Title
81304
    1CHL1    C3    1   6.087   5.055  10.301  0.1669 -0.2325  0.0439
    1CHL1    H3    2   6.135   5.154  10.318 -2.3081  1.2910 -1.1603
    1CHL1    O3    3   6.033   5.018  10.429 -0.2826 -0.2243  0.3054
    1CHL1   H3'    4   6.031   4.923  10.422  1.9998 -0.2503 -0.8646
    1CHL1    C4    5   5.960   5.096  10.213 -0.0948  0.6103  0.4129
    1CHL1   H4A    6   5.891   5.009  10.208 -0.4805  0.9065  0.5217
    1CHL1   H4B    7   5.915   5.185  10.261  1.8972  2.8261 -1.5945
    1CHL1    C5    8   6.002   5.124  10.070  0.1618 -0.1397 -1.2135
    1CHL1    C6    9   5.946   5.235  10.008 -0.8389  0.4288  0.3363
    1CHL1    H6   10   5.874   5.299  10.061 -1.0516  1.5407 -1.2229
    1CHL1    C7   11   5.992   5.287   9.872  0.1188 -0.0782 -0.8522
    1CHL1   H7A   12   5.905   5.310   9.806  0.1225 -1.2802 -1.3000
    1CHL1   H7B   13   6.052   5.377   9.898  1.8465 -1.6078  0.7939
    1CHL1    C8   14   6.088   5.194   9.789 -0.5654  0.3787  1.0035
    1CHL1    H8   15   6.016   5.126   9.739  1.3545  0.7114 -2.5441
    1CHL1   C14   16   6.155   5.270   9.677  0.4769 -0.8283 -0.2355
    1CHL1   H14   17   6.218   5.349   9.722 -1.3354  0.5693 -0.0152
    1CHL1   C15   18   6.071   5.356   9.584  0.4394 -0.3243  0.2425
    1CHL1  H15A   19   5.983   5.302   9.543 -1.0064  1.4149  0.8868
    1CHL1  H15B   20   6.041   5.453   9.630 -0.8903 -1.4538  1.8545
    1CHL1   C16   21   6.166   5.386   9.471  0.0987  0.3708 -0.1745
    1CHL1  H16A   22   6.119   5.360   9.374  0.4043  1.3009 -0.5857
    1CHL1  H16B   23   6.185   5.495   9.458 -1.6786  0.6445 -0.8026
    1CHL1   C17   24   6.300   5.288   9.486 -1.2008 -0.3731 -0.1165
    1CHL1   H17   25   6.381   5.354   9.523 -0.5203  0.5634 -3.0756
    1CHL1   C13   26   6.247   5.186   9.594  0.3956 -0.4272 -0.0735
    1CHL1   C18   27   6.163   5.075   9.520 -0.1350 -0.3457  0.2437
    1CHL1  H18A   28   6.130   5.002   9.597  1.3638 -1.5770 -0.2203
    1CHL1  H18B   29   6.077   5.115   9.462  1.3705  3.0027  0.1475
    1CHL1  H18C   30   6.228   5.016   9.451  0.7879  0.3889  0.4646
    1CHL1   C12   31   6.352   5.127   9.697 -0.0276  0.2825 -0.4506
    1CHL1  H12A   32   6.430   5.063   9.651  3.3970  2.5166  1.7947
    1CHL1  H12B   33   6.401   5.216   9.742  2.1953 -1.0286 -0.1167
    1CHL1   C11   34   6.284   5.037   9.810 -0.2310  0.7252  0.2730
    1CHL1  H11A   35   6.238   4.947   9.765 -2.8060  1.2101  1.7403
    1CHL1  H11B   36   6.371   5.003   9.870 -0.8390 -0.7680  0.3482
    1CHL1    C9   37   6.179   5.124   9.888 -0.0142 -0.0006  0.5495
    1CHL1    H9   38   6.250   5.203   9.920  2.8008 -0.4769 -3.7144
    1CHL1   C10   39   6.115   5.046  10.006 -0.2354 -0.5594 -0.0507
    1CHL1   C19   40   6.036   4.931   9.954  0.3706  0.5261  0.5519
    1CHL1  H19A   41   5.953   4.960   9.886  1.7984  1.8269 -0.7016
    1CHL1  H19B   42   6.109   4.859   9.910  0.2775 -0.3803  1.8160
    1CHL1  H19C   43   5.988   4.884  10.043 -1.9342  1.0044 -0.3884
    1CHL1    C1   44   6.231   5.012  10.107 -0.2994  0.3973 -0.0579
    1CHL1   H1A   45   6.306   4.941  10.064 -0.0641  2.2419 -2.9689
    1CHL1   H1B   46   6.277   5.110  10.132 -2.0730  1.2778 -0.1127
    1CHL1    C2   47   6.180   4.956  10.238 -0.2766 -0.5179 -0.8997
    1CHL1   H2A   48   6.249   4.930  10.322 -0.8496  2.0207  0.4681
    1CHL1   H2B   49   6.125   4.866  10.204 -2.2243 -0.4489  1.7261
    1CHL1   C20   50   6.362   5.234   9.360  0.1613  0.3487  0.7758
    1CHL1   H20   51   6.288   5.167   9.313 -0.1690  0.5540  0.9960
    1CHL1   C21   52   6.475   5.133   9.376 -0.8814 -0.0236 -0.0739
    1CHL1  H21A   53   6.535   5.104   9.287  1.9806 -1.3017  2.1119
    1CHL1  H21B   54   6.427   5.043   9.419 -2.7460  1.1043  0.3226
    1CHL1  H21C   55   6.541   5.178   9.454  0.8168 -2.1351 -0.2014
    1CHL1   C22   56   6.389   5.339   9.256 -0.1443  0.5436  0.7500
    1CHL1  H22A   57   6.299   5.403   9.245 -0.7257 -0.6859 -2.7620
    1CHL1  H22B   58   6.473   5.406   9.285 -1.2011  2.0978  0.3643
    1CHL1   C23   59   6.431   5.287   9.116  0.3215  0.2221  0.2989
    1CHL1  H23A   60   6.518   5.219   9.123 -0.1691 -0.3553  0.9198
    1CHL1  H23B   61   6.343   5.239   9.068 -1.7960  3.3100  0.7966
    1CHL1   C24   62   6.469   5.408   9.024 -0.2220  0.7389 -0.3408
    1CHL1  H24A   63   6.387   5.481   9.039 -0.4685  0.1727  1.1819
    1CHL1  H24B   64   6.569   5.445   9.053  0.5745 -3.7173  3.8739
    1CHL1   C25   65   6.473   5.376   8.871  0.2319 -0.2490 -0.1210
    1CHL1   H25   66   6.371   5.332   8.861  0.2162  0.1379 -1.9253
    1CHL1   C26   67   6.479   5.501   8.784  0.6253 -0.0116  0.5231
    1CHL1  H26A   68   6.578   5.550   8.778 -0.1510  1.5197 -0.7114
    1CHL1  H26B   69   6.462   5.483   8.676 -2.0209  1.8363  0.5222
    1CHL1  H26C   70   6.405   5.579   8.814 -0.5152  0.4471 -3.0052
    1CHL1   C27   71   6.591   5.286   8.835  0.2253 -0.1511 -0.5467
    1CHL1  H27A   72   6.593   5.253   8.729  3.0452  0.8957 -0.8908
    1CHL1  H27B   73   6.685   5.343   8.846 -1.2004  2.2597 -0.0642
    1CHL1  H27C   74   6.587   5.197   8.901  0.0011  1.0329  1.0769
    2CHL1    C3   75   0.591   3.514  10.087 -0.2179 -0.7678  0.5493
    2CHL1    H3   76   0.683   3.571  10.060 -2.8591  2.9880 -1.4597
    2CHL1    O3   77   0.544   3.542  10.221  0.2517 -0.3363  0.1421
    2CHL1   H3'   78   0.475   3.477  10.241 -0.7190  0.4929 -0.4041
    2CHL1    C4   79   0.481   3.569   9.988 -0.3055  0.3403 -0.3845
    2CHL1   H4A   80   0.394   3.508  10.020 -0.2583 -0.7874 -2.2634
    2CHL1   H4B   81   0.458   3.676  10.006 -0.4927  0.5205 -1.6508
    2CHL1    C5   82   0.515   3.533   9.846 -0.1948 -0.6587  0.6479
    2CHL1    C6   83   0.545   3.631   9.756 -0.1332  0.5913  0.9138
    2CHL1    H6   84   0.538   3.737   9.785  2.7809  1.0942  0.0955
    2CHL1    C7   85   0.571   3.601   9.608  0.3818  0.0031 -0.0051
    2CHL1   H7A   86   0.515   3.675   9.547 -1.1818 -0.5290  0.7289
    2CHL1   H7B   87   0.677   3.616   9.578  0.1387 -1.7818 -2.0361
    2CHL1    C8   88   0.529   3.455   9.568 -0.4351 -0.3917  0.4118
    2CHL1    H8   89   0.419   3.442   9.562 -0.8286  2.0845  1.1803
    2CHL1   C14   90   0.589   3.428   9.420  0.0756 -0.0972 -0.1006
    2CHL1   H14   91   0.693   3.463   9.434  0.5880 -2.2535  2.2667
    2CHL1   C15   92   0.544   3.517   9.296  0.2136  0.7917 -0.2920
    2CHL1  H15A   93   0.439   3.551   9.309 -0.2874 -0.9611  0.5582
    2CHL1  H15B   94   0.613   3.604   9.286 -0.4626  1.5613  1.2686
    2CHL1   C16   95   0.572   3.428   9.176  0.2059  0.3141  0.1051
    2CHL1  H16A   96   0.488   3.409   9.106 -1.4429 -1.9337  2.5198
    2CHL1  H16B   97   0.653   3.479   9.119 -0.2085  1.5941  0.6261
    2CHL1   C17   98   0.620   3.294   9.230 -0.5637  0.2109 -0.2848
    2CHL1   H17   99   0.730   3.303   9.242 -0.9964  4.9758  2.0443
    2CHL1   C13  100   0.568   3.282   9.376 -0.1441 -0.5858  0.6669
    2CHL1   C18  101   0.417   3.237   9.375  0.3164 -0.8163  0.1044
    2CHL1  H18A  102   0.375   3.234   9.478  1.1151 -0.5349  0.4533
    2CHL1  H18B  103   0.349   3.310   9.326 -1.0559 -1.5417  0.8782
    2CHL1  H18C  104   0.391   3.136   9.339  0.2009 -0.9244  0.4860
    2CHL1   C12  105   0.646   3.197   9.478 -0.8031  0.4015 -0.3019
    2CHL1  H12A  106   0.656   3.091   9.444  1.1604  0.5424 -0.2716
    2CHL1  H12B  107   0.753   3.226   9.478 -0.2145 -1.3783 -3.2198
    2CHL1   C11  108   0.599   3.217   9.628  0.2450  0.6060  0.0003
    2CHL1  H11A  109   0.503   3.161   9.634  1.4905 -1.5037  1.7732
    2CHL1  H11B  110   0.674   3.158   9.684 -0.1826 -0.9533 -1.0124
    2CHL1    C9  111   0.598   3.365   9.675  0.1027 -0.2866 -0.3634
    2CHL1    H9  112   0.701   3.404   9.685  0.2112 -0.4108 -0.9578
    2CHL1   C10  113   0.541   3.379   9.822  0.1547  0.0442  0.5973
    2CHL1   C19  114   0.407   3.304   9.835 -0.0939  0.6120  0.3680
    2CHL1  H19A  115   0.360   3.324   9.933  0.9319  1.1652  0.7526
    2CHL1  H19B  116   0.333   3.343   9.761  0.2689  0.0835 -0.2861
    2CHL1  H19C  117   0.433   3.196   9.835 -0.6118  0.4810  1.1240
    2CHL1    C1  118   0.648   3.324   9.928  0.2245 -0.3501  0.2294
    2CHL1   H1A  119   0.658   3.213   9.928 -2.7409 -0.7172  1.9692
    2CHL1   H1B  120   0.749   3.366   9.910 -0.2250  1.7600  2.1516
    2CHL1    C2  121   0.620   3.369  10.071  0.1226  0.1709 -0.6241
    2CHL1   H2A  122   0.711   3.332  10.122  1.7748 -1.6125 -4.4858
    2CHL1   H2B  123   0.532   3.311  10.107  0.7977  0.1762  1.1480
    2CHL1   C20  124   0.582   3.182   9.139 -0.2769  0.0448  0.0614
    2CHL1   H20  125   0.472   3.170   9.151 -0.2560  0.1887  0.3780
    2CHL1   C21  126   0.646   3.053   9.187 -0.0524  0.0816  0.7140
    2CHL1  H21A  127   0.631   2.973   9.111  0.4091 -0.1012  0.8103
    2CHL1  H21B  128   0.586   3.008   9.269  0.6739  0.6130  1.5508
    2CHL1  H21C  129   0.753   3.052   9.219  0.5490  0.7678 -1.1603
    2CHL1   C22  130   0.614   3.208   8.984 -0.1616  0.4550 -0.0295
    2CHL1  H22A  131   0.608   3.317   8.961 -0.4584  1.1944  3.0313
    2CHL1  H22B  132   0.720   3.178   8.976  0.4327  2.0933  0.9993
    2CHL1   C23  133   0.527   3.133   8.879 -0.6188  0.9944 -0.2707
    2CHL1  H23A  134   0.548   3.025   8.894 -1.9451  0.7810  0.2055
    2CHL1  H23B  135   0.420   3.152   8.904 -0.8060 -1.0888  0.6975
    2CHL1   C24  136   0.574   3.163   8.732  0.3495 -0.6919  0.2621
    2CHL1  H24A  137   0.551   3.269   8.708  0.8353 -0.2385  1.6589
    2CHL1  H24B  138   0.683   3.143   8.718  0.6780  0.9372  0.3103
    2CHL1   C25  139   0.504   3.083   8.623 -0.2419 -0.3372 -0.3080
    2CHL1   H25  140   0.521   2.974   8.624  1.1519 -0.1476 -1.1093
    2CHL1   C26  141   0.357   3.115   8.630  0.0160 -1.2268  0.1558
    2CHL1  H26A  142   0.306   3.060   8.548 -0.1387 -0.8076 -0.0348
    2CHL1  H26B  143   0.320   3.079   8.728  2.2331  0.3033  1.6549
    2CHL1  H26C  144   0.343   3.222   8.600 -0.6341 -1.4649 -0.4241
    2CHL1   C27  145   0.573   3.118   8.485  0.8381 -0.8157  0.6261
    2CHL1  H27A  146   0.562   3.227   8.464  0.8509 -0.8884  0.2376
    2CHL1  H27B  147   0.683   3.104   8.485  0.8114 -1.0335  0.4421
    2CHL1  H27C  148   0.537   3.049   8.405  0.9447 -1.4719  1.1391
    3CHL1    C3  149   2.396   2.508   9.994 -0.4105  0.1491 -0.7241
    3CHL1    H3  150   2.367   2.422   9.930  0.6278  0.8038 -2.1169
    3CHL1    O3  151   2.391   2.462  10.126  0.5254  0.2580  0.0456
    3CHL1   H3'  152   2.416   2.543  10.170  0.2933 -0.4111  1.4570
    3CHL1    C4  153   2.538   2.548   9.945 -0.1331 -0.2271 -0.0264
    3CHL1   H4A  154   2.573   2.634  10.007 -2.9089  0.6651  0.4720
    3CHL1   H4B  155   2.615   2.472   9.968  0.8929  0.6450 -0.4980
    3CHL1    C5  156   2.537   2.580   9.795  0.4913  0.1700  0.4176
    3CHL1    C6  157   2.614   2.512   9.713 -0.0297 -0.0476  0.2664
    3CHL1    H6  158   2.668   2.421   9.741  0.0008 -0.7840 -1.9604
    3CHL1    C7  159   2.605   2.537   9.565 -0.2313  0.2047 -0.0036
    3CHL1   H7A  160   2.710   2.530   9.529 -1.1499 -1.7072 -2.5495
    3CHL1   H7B  161   2.552   2.455   9.513  0.0043  0.2268 -0.2766
    3CHL1    C8  162   2.550   2.678   9.521 -0.5139 -0.1934 -0.0837
    3CHL1    H8  163   2.624   2.754   9.554 -1.9550  0.9360  0.6607
    3CHL1   C14  164   2.516   2.686   9.370  0.2746 -0.4407  0.9486
    3CHL1   H14  165   2.438   2.610   9.346  0.1050  0.2693 -0.9053
    3CHL1   C15  166   2.634   2.644   9.268 -0.4480 -0.0270 -0.6774
    3CHL1  H15A  167   2.727   2.679   9.317 -0.9512  0.4512 -0.0344
    3CHL1  H15B  168   2.646   2.535   9.250 -0.3108  0.1493 -1.6730
    3CHL1   C16  169   2.601   2.723   9.141  0.0621  0.2518 -0.1445
    3CHL1  H16A  170   2.686   2.788   9.111  1.1195 -0.1893  1.7348
    3CHL1  H16B  171   2.580   2.655   9.055 -0.3093 -1.2502  1.0804
    3CHL1   C17  172   2.468   2.797   9.167  0.1416 -0.0247 -0.3805
    3CHL1   H17  173   2.385   2.726   9.147 -1.3231  1.2650  0.8009
    3CHL1   C13  174   2.459   2.815   9.324 -0.0216 -0.7839 -0.0261
    3CHL1   C18  175   2.554   2.930   9.365  0.1932 -0.2397  0.1721
    3CHL1  H18A  176   2.544   2.950   9.474  2.0261  0.7234  0.2062
    3CHL1  H18B  177   2.662   2.906   9.359  0.0180 -0.9980 -0.0268
    3CHL1  H18C  178   2.523   3.029   9.325  0.6132 -0.1798 -0.0055
    3CHL1   C12  179   2.318   2.825   9.391 -0.6413  0.6468 -0.7668
    3CHL1  H12A  180   2.242   2.899   9.360 -2.6530 -0.9532  0.1293
    3CHL1  H12B  181   2.261   2.732   9.369  0.3611  0.4947 -2.9715
    3CHL1   C11  182   2.341   2.833   9.549  0.2797 -0.0194  0.3979
    3CHL1  H11A  183   2.386   2.927   9.586  0.2192 -0.4457  1.6060
    3CHL1  H11B  184   2.239   2.839   9.592 -0.2467 -1.1486 -0.6345
    3CHL1    C9  185   2.423   2.709   9.598 -0.2962  0.2545 -0.0735
    3CHL1    H9  186   2.358   2.630   9.557  1.3495 -0.2497 -1.8341
    3CHL1   C10  187   2.437   2.691   9.752 -1.2256 -0.5958 -0.5706
    3CHL1   C19  188   2.489   2.828   9.811 -0.0317  0.2786  0.1611
    3CHL1  H19A  189   2.575   2.851   9.744  0.0676  1.3661  0.6551
    3CHL1  H19B  190   2.413   2.908   9.800  0.3093  0.4444 -1.1527
    3CHL1  H19C  191   2.522   2.818   9.916 -0.2233  2.2764  0.4350
    3CHL1    C1  192   2.304   2.662   9.820 -0.0119  0.0496 -0.3066
    3CHL1   H1A  193   2.229   2.744   9.808 -0.5124 -0.2261  0.8088
    3CHL1   H1B  194   2.257   2.576   9.769  1.8904  0.4336 -2.9147
    3CHL1    C2  195   2.301   2.627   9.973 -0.0768 -0.6321 -0.7016
    3CHL1   H2A  196   2.199   2.597  10.006  0.1958  0.8978  1.7481
    3CHL1   H2B  197   2.334   2.717  10.029  2.6555 -2.0784  0.1893
    3CHL1   C20  198   2.450   2.922   9.085  0.2119 -0.1391 -0.0524
    3CHL1   H20  199   2.518   3.006   9.111  0.5658 -0.3000 -0.4593
    3CHL1   C21  200   2.307   2.991   9.100 -0.2184  0.3941  0.0879
    3CHL1  H21A  201   2.231   2.921   9.060 -1.2525  1.2604  0.4846
    3CHL1  H21B  202   2.298   3.089   9.047  1.4340  1.0957  1.0349
    3CHL1  H21C  203   2.286   3.016   9.206 -0.7747  3.1919 -0.6056
    3CHL1   C22  204   2.472   2.895   8.939 -0.0708 -0.6874 -0.3908
    3CHL1  H22A  205   2.461   2.993   8.888 -1.4146 -0.4335  0.3313
    3CHL1  H22B  206   2.575   2.858   8.920 -0.0280 -0.0339 -1.5020
    3CHL1   C23  207   2.380   2.797   8.866 -0.3705  0.2357  0.8458
    3CHL1  H23A  208   2.368   2.704   8.925 -1.8564 -0.2096 -0.1122
    3CHL1  H23B  209   2.279   2.836   8.843  0.6015  1.4838 -1.7756
    3CHL1   C24  210   2.438   2.754   8.727 -0.3664 -0.2202 -0.7228
    3CHL1  H24A  211   2.438   2.834   8.651  0.7152  0.3057 -0.1934
    3CHL1  H24B  212   2.545   2.729   8.744 -0.2517  1.2720  1.1129
    3CHL1   C25  213   2.356   2.636   8.665  0.1609  0.4990 -0.4999
    3CHL1   H25  214   2.361   2.545   8.728  0.4556  1.1513  0.4503
    3CHL1   C26  215   2.203   2.664   8.646  0.1391  0.7165  0.3657
    3CHL1  H26A  216   2.155   2.700   8.740  1.8631 -2.2413  2.5641
    3CHL1  H26B  217   2.202   2.733   8.559 -0.5340  0.4903  0.1919
    3CHL1  H26C  218   2.151   2.579   8.597 -2.2268  1.9182  0.6349
    3CHL1   C27  219   2.418   2.605   8.529 -0.2553  0.1392 -0.2971
    3CHL1  H27A  220   2.509   2.542   8.531 -1.0494 -1.0657  2.0122
    3CHL1  H27B  221   2.345   2.549   8.467  1.7319  0.3320 -2.9833
    3CHL1  H27C  222   2.450   2.698   8.478 -0.8346  0.3485 -0.2824
    4CHL1    C3  223   6.562   6.158  10.544 -0.5021  0.8158  0.2248
    4CHL1    H3  224   6.454   6.173  10.567 -0.9003 -0.6960 -0.5639
    4CHL1    O3  225   6.631   6.143  10.667 -0.1367  0.0196 -0.5686
    4CHL1   H3'  226   6.611   6.227  10.709 -2.2589 -0.8533  0.3111
    4CHL1    C4  227   6.567   6.028  10.460  0.2490  0.0129 -0.0726
    4CHL1   H4A  228   6.673   5.996  10.448  0.2096  0.2839 -1.2259
    4CHL1   H4B  229   6.516   5.961  10.533  0.3601 -0.0665 -0.0673
    4CHL1    C5  230   6.498   6.047  10.333 -0.1264  0.3919 -0.3871
    4CHL1    C6  231   6.390   5.972  10.300  0.4536 -0.6094 -0.0599
    4CHL1    H6  232   6.366   5.891  10.371  1.2895 -0.7777  0.0447
    4CHL1    C7  233   6.302   5.984  10.177 -0.0538 -0.0532 -0.3479
    4CHL1   H7A  234   6.262   5.892  10.130 -2.1012 -0.5089  2.0952
    4CHL1   H7B  235   6.214   6.043  10.209 -0.5786 -1.2691  0.5251
    4CHL1    C8  236   6.379   6.074  10.073  0.0424  0.2404  0.3636
    4CHL1    H8  237   6.465   6.011  10.045  0.7464 -0.2579  3.2733
    4CHL1   C14  238   6.275   6.106   9.959  0.7973  1.4351  0.6191
    4CHL1   H14  239   6.205   6.183   9.999  2.2865  2.2755  1.7049
    4CHL1   C15  240   6.185   5.993   9.905 -0.9893  1.2614  0.1485
    4CHL1  H15A  241   6.257   5.910   9.888  0.6992  2.2059  2.1350
    4CHL1  H15B  242   6.107   5.947   9.970  0.6306 -0.5204  0.9068
    4CHL1   C16  243   6.129   6.051   9.775  0.3730  0.5369  0.2530
    4CHL1  H16A  244   6.121   5.975   9.694 -0.8544 -1.1557  1.8638
    4CHL1  H16B  245   6.024   6.079   9.799  0.2153 -0.7809  1.2244
    4CHL1   C17  246   6.220   6.167   9.741  0.0331  0.5517 -0.0362
    4CHL1   H17  247   6.173   6.259   9.783  0.3149  1.1948 -1.0951
    4CHL1   C13  248   6.343   6.158   9.833 -0.9830 -0.4645  0.1377
    4CHL1   C18  249   6.448   6.058   9.773 -0.0177 -0.3332 -0.2652
    4CHL1  H18A  250   6.530   6.025   9.840 -0.8259 -1.0267  0.4197
    4CHL1  H18B  251   6.393   5.968   9.737  0.8069 -0.8608 -0.2272
    4CHL1  H18C  252   6.486   6.094   9.675  1.0843  0.7339  0.5378
    4CHL1   C12  253   6.410   6.295   9.871  0.0695  0.8423 -0.5206
    4CHL1  H12A  254   6.482   6.346   9.804 -0.1100  2.4644  0.4557
    4CHL1  H12B  255   6.328   6.366   9.896 -0.6838 -0.3450  0.4702
    4CHL1   C11  256   6.504   6.285   9.999  0.5973  0.5543  0.5620
    4CHL1  H11A  257   6.597   6.229   9.973  0.8610 -0.2252  2.9456
    4CHL1  H11B  258   6.520   6.387  10.039 -1.4755  1.8843 -1.7140
    4CHL1    C9  259   6.444   6.199  10.117 -0.6856  0.2886  0.1481
    4CHL1    H9  260   6.368   6.264  10.164  0.6555  1.8243  0.2534
    4CHL1   C10  261   6.542   6.172  10.242 -0.4838 -0.0538  0.1077
    4CHL1   C19  262   6.684   6.132  10.196  0.5333 -0.0287  0.1962
    4CHL1  H19A  263   6.669   6.048  10.125  1.2309 -1.8366  2.0874
    4CHL1  H19B  264   6.729   6.221  10.148  0.6749  0.6548  1.5444
    4CHL1  H19C  265   6.754   6.120  10.281  0.1205 -0.6877  0.4533
    4CHL1    C1  266   6.550   6.298  10.332 -0.1950 -0.1342  0.4196
    4CHL1   H1A  267   6.590   6.375  10.261  0.6730 -1.2224 -0.3101
    4CHL1   H1B  268   6.447   6.338  10.345  0.7821  2.7628  0.0587
    4CHL1    C2  269   6.623   6.271  10.469  0.4047 -0.3101 -0.4268
    4CHL1   H2A  270   6.605   6.368  10.520 -4.3668 -0.1786 -1.7830
    4CHL1   H2B  271   6.728   6.240  10.455 -0.7028 -4.4711 -1.0077
    4CHL1   C20  272   6.247   6.196   9.586 -0.0122  0.0367  0.6758
    4CHL1   H20  273   6.301   6.114   9.534 -0.1780  1.0134 -1.1123
    4CHL1   C21  274   6.349   6.308   9.561  0.5142 -0.0113  0.1102
    4CHL1  H21A  275   6.327   6.398   9.621  0.9893  1.3842 -1.7041
    4CHL1  H21B  276   6.337   6.340   9.455 -1.8659  0.1021  0.3584
    4CHL1  H21C  277   6.455   6.285   9.584 -0.1082 -0.9797  2.2372
    4CHL1   C22  278   6.118   6.220   9.515  0.2639 -0.2489  0.6872
    4CHL1  H22A  279   6.037   6.160   9.561 -0.6191  0.9059  0.7099
    4CHL1  H22B  280   6.093   6.328   9.501 -1.2585 -0.7427 -0.7567
    4CHL1   C23  281   6.114   6.182   9.368 -0.0938 -0.3071 -0.2334
    4CHL1  H23A  282   6.201   6.228   9.316  1.5682  0.0549  2.6538
    4CHL1  H23B  283   6.104   6.072   9.360 -1.6274 -0.2196  0.2903
    4CHL1   C24  284   5.984   6.223   9.299  0.5694 -0.4463  0.5659
    4CHL1  H24A  285   5.897   6.191   9.360  1.8789 -1.9412  1.7612
    4CHL1  H24B  286   5.983   6.333   9.285  0.5638  0.0135  3.4617
    4CHL1   C25  287   5.967   6.151   9.155 -0.3129  0.0280 -0.6764
    4CHL1   H25  288   6.003   6.048   9.173  1.1141  0.6991  0.4883
    4CHL1   C26  289   5.819   6.158   9.125 -0.2540  0.6141  0.3324
    4CHL1  H26A  290   5.791   6.101   9.034  2.7638  1.5974 -1.3547
    4CHL1  H26B  291   5.746   6.134   9.206 -0.6798  0.5501 -0.0616
    4CHL1  H26C  292   5.790   6.263   9.103  0.1060  0.2837 -1.9112
    4CHL1   C27  293   6.042   6.198   9.032  0.0016  0.2016 -0.0588
    4CHL1  H27A  294   6.016   6.305   9.017 -1.4807 -0.1213 -0.0261
    4CHL1  H27B  295   6.152   6.190   9.030 -0.1192 -2.0974 -0.4109
    4CHL1  H27C  296   6.014   6.144   8.938  2.3276 -0.2063 -0.5699
    5CHL1    C3  297   1.887   2.302  10.088  0.6111  0.2609  0.0420
    5CHL1    H3  298   1.813   2.386  10.090 -3.7999 -3.1780  3.2547
    5CHL1    O3  299   1.880   2.259  10.223 -0.4398 -0.3438 -0.0216
    5CHL1   H3'  300   1.927   2.176  10.214  0.7783  0.3462 -0.2617
    5CHL1    C4  301   1.832   2.188   9.995 -0.4320 -0.0955 -0.2690
    5CHL1   H4A  302   1.899   2.100  10.005 -0.2909  0.1531  1.1883
    5CHL1   H4B  303   1.731   2.156  10.029 -0.2970 -0.1367  0.0943
    5CHL1    C5  304   1.830   2.229   9.848  0.8946  0.0405 -0.4548
    5CHL1    C6  305   1.720   2.216   9.772  0.0786  0.7879  0.2383
    5CHL1    H6  306   1.634   2.162   9.815  0.2248 -1.5622 -2.1695
    5CHL1    C7  307   1.703   2.264   9.623  0.2871  0.2671  1.1890
    5CHL1   H7A  308   1.658   2.184   9.561 -0.7730 -0.0997  2.3754
    5CHL1   H7B  309   1.640   2.354   9.612  0.3661  0.0957 -0.9413
    5CHL1    C8  310   1.837   2.292   9.559 -0.0463 -0.6027 -0.4151
    5CHL1    H8  311   1.885   2.193   9.546  3.3882  0.9989 -1.1709
    5CHL1   C14  312   1.818   2.368   9.429  0.2088 -0.5454  0.5748
    5CHL1   H14  313   1.774   2.467   9.452  3.4749  1.1792  0.0050
    5CHL1   C15  314   1.715   2.303   9.333  1.0722  0.0455  0.4913
    5CHL1  H15A  315   1.728   2.193   9.334 -1.4414 -0.3991  4.1408
    5CHL1  H15B  316   1.611   2.332   9.361  0.9541 -1.1404  1.3345
    5CHL1   C16  317   1.748   2.361   9.191 -0.6390 -0.9321 -0.8401
    5CHL1  H16A  318   1.775   2.279   9.122  1.8841 -0.8741 -0.0024
    5CHL1  H16B  319   1.656   2.415   9.158 -1.3542  0.4109  2.8568
    5CHL1   C17  320   1.876   2.454   9.215 -0.0314 -0.6413 -0.2819
    5CHL1   H17  321   1.817   2.545   9.234  0.0656 -0.0613 -2.4376
    5CHL1   C13  322   1.942   2.397   9.351  0.0228  0.4095  0.3380
    5CHL1   C18  323   2.020   2.261   9.319  0.6391  0.6130  0.3606
    5CHL1  H18A  324   2.121   2.279   9.276  0.6447 -1.3054 -0.5311
    5CHL1  H18B  325   2.042   2.208   9.414  0.1097 -0.3784 -0.0545
    5CHL1  H18C  326   1.960   2.186   9.263  1.8426 -0.1307  0.0471
    5CHL1   C12  327   2.031   2.486   9.439  0.2544  0.5717 -0.1020
    5CHL1  H12A  328   2.130   2.491   9.389  0.5705 -0.8487  0.3359
    5CHL1  H12B  329   2.003   2.593   9.445  1.0310  1.0029 -2.8302
    5CHL1   C11  330   2.052   2.415   9.575  0.1085 -0.4257  0.0421
    5CHL1  H11A  331   2.117   2.329   9.549  0.5744  0.4081 -1.6815
    5CHL1  H11B  332   2.108   2.486   9.639 -0.1952  0.5390 -0.7352
    5CHL1    C9  333   1.929   2.372   9.655 -0.1752  0.3336  0.0781
    5CHL1    H9  334   1.878   2.468   9.682  0.6654  0.4508  1.2988
    5CHL1   C10  335   1.955   2.299   9.790 -0.1277 -0.7387 -0.4051
    5CHL1   C19  336   2.057   2.188   9.772 -0.4787 -0.2950 -0.2586
    5CHL1  H19A  337   2.153   2.225   9.730 -2.0251  2.7921 -1.4269
    5CHL1  H19B  338   2.074   2.135   9.868  0.5398  1.0373  0.3167
    5CHL1  H19C  339   2.024   2.107   9.704  2.3883 -2.2354  0.4779
    5CHL1    C1  340   2.001   2.403   9.890 -0.1018  0.4310  0.1469
    5CHL1   H1A  341   2.097   2.448   9.859 -0.2021  1.1721  0.8742
    5CHL1   H1B  342   1.926   2.485   9.884 -0.9768 -0.2556  1.2987
    5CHL1    C2  343   2.016   2.353  10.038 -0.3066  0.4991  0.0846
    5CHL1   H2A  344   2.053   2.440  10.096 -3.1279  1.3859  0.6928
    5CHL1   H2B  345   2.090   2.270  10.045 -0.7046  0.1614  0.2901
    5CHL1   C20  346   1.970   2.473   9.097  0.7937 -0.2111  0.1525
    5CHL1   H20  347   2.046   2.392   9.101 -1.7038 -2.7729 -0.7803
    5CHL1   C21  348   2.040   2.605   9.123 -0.6644  0.3629  0.6917
    5CHL1  H21A  349   2.125   2.582   9.191  0.7752 -0.3699 -1.2649
    5CHL1  H21B  350   1.975   2.680   9.173  1.0862  1.7465  1.0017
    5CHL1  H21C  351   2.080   2.655   9.032 -1.0930 -0.0798  0.2616
    5CHL1   C22  352   1.910   2.473   8.959 -0.5901  0.0464 -0.5013
    5CHL1  H22A  353   1.997   2.483   8.890 -0.5493  0.4547 -0.3925
    5CHL1  H22B  354   1.859   2.376   8.943 -0.0051 -0.4907  0.7661
    5CHL1   C23  355   1.799   2.577   8.936 -0.0165  0.3941 -0.7985
    5CHL1  H23A  356   1.719   2.561   9.012  1.5887 -1.5903  0.5676
    5CHL1  H23B  357   1.837   2.678   8.962 -2.9667  1.4473 -0.1847
    5CHL1   C24  358   1.745   2.594   8.796 -0.4496  0.2843 -0.0779
    5CHL1  H24A  359   1.662   2.667   8.794  1.0453  2.0920  0.9603
    5CHL1  H24B  360   1.826   2.630   8.729 -1.4510  0.1216 -1.4098
    5CHL1   C25  361   1.693   2.463   8.739  0.1121 -0.3202  0.1149
    5CHL1   H25  362   1.773   2.388   8.753 -2.1499 -2.8000  0.5799
    5CHL1   C26  363   1.562   2.412   8.808  0.6475  0.1138  0.4400
    5CHL1  H26A  364   1.589   2.391   8.914  0.4902 -0.2864  0.4045
    5CHL1  H26B  365   1.485   2.492   8.810  0.6183  0.1441 -1.2490
    5CHL1  H26C  366   1.526   2.318   8.760  1.1651  0.0860  0.1083
    5CHL1   C27  367   1.679   2.477   8.585  0.2809 -0.0923 -0.3031
    5CHL1  H27A  368   1.589   2.538   8.564 -0.6682 -0.8611  1.3282
    5CHL1  H27B  369   1.769   2.532   8.550 -0.5942  2.0624  0.6935
    5CHL1  H27C  370   1.673   2.378   8.535  1.2549 -0.8037  0.9064
    6CHL1    C3  371   5.668   5.489  10.382  0.0778 -0.0698 -0.0281
    6CHL1    H3  372   5.753   5.420  10.367  0.4143  0.5735 -1.2313
    6CHL1    O3  373   5.633   5.481  10.515 -0.4418  0.5334  0.3504
    6CHL1   H3'  374   5.585   5.398  10.520 -0.1006  0.2749 -0.5189
    6CHL1    C4  375   5.706   5.636  10.336 -0.3738 -0.1597 -0.2578
    6CHL1   H4A  376   5.614   5.696  10.354  0.4455  0.8969  0.4845
    6CHL1   H4B  377   5.795   5.662  10.397  1.3532 -1.6912 -1.9676
    6CHL1    C5  378   5.729   5.648  10.189  0.4254  0.0865  0.3121
    6CHL1    C6  379   5.838   5.700  10.144 -0.0008 -0.2214  0.1242
    6CHL1    H6  380   5.901   5.755  10.216 -0.8840 -0.3853  1.0460
    6CHL1    C7  381   5.878   5.709  10.003 -0.0607 -0.2493 -0.9873
    6CHL1   H7A  382   5.938   5.797   9.974  1.0765 -0.7814 -0.3353
    6CHL1   H7B  383   5.927   5.613   9.976  0.2360 -0.6031  0.6966
    6CHL1    C8  384   5.749   5.699   9.907  0.4851 -0.6931 -0.6484
    6CHL1    H8  385   5.689   5.790   9.931  1.1275 -0.2642 -0.6442
    6CHL1   C14  386   5.777   5.679   9.759 -0.0912 -0.4410 -0.1523
    6CHL1   H14  387   5.840   5.588   9.747  0.0792 -0.0453 -2.8996
    6CHL1   C15  388   5.869   5.794   9.705 -0.1089  0.5116  0.2592
    6CHL1  H15A  389   5.837   5.891   9.749 -2.1997 -0.2083  0.4914
    6CHL1  H15B  390   5.976   5.782   9.729 -0.6754 -0.2690  2.6598
    6CHL1   C16  391   5.840   5.794   9.553  0.5910  0.2159 -0.5835
    6CHL1  H16A  392   5.801   5.895   9.527 -0.5479  0.1436  0.7398
    6CHL1  H16B  393   5.927   5.773   9.487 -0.4073  0.5343 -2.0641
    6CHL1   C17  394   5.728   5.678   9.524 -0.3189 -0.4040 -0.2901
    6CHL1   H17  395   5.786   5.583   9.514 -0.7853 -0.7554  0.3321
    6CHL1   C13  396   5.658   5.666   9.660 -0.0032 -0.4743 -0.5399
    6CHL1   C18  397   5.556   5.778   9.675  0.5749  0.3897  0.5351
    6CHL1  H18A  398   5.507   5.782   9.774 -2.5552 -1.2844 -0.7952
    6CHL1  H18B  399   5.601   5.879   9.675 -1.8763  1.6405 -2.4235
    6CHL1  H18C  400   5.469   5.774   9.606 -0.4272  0.3108  1.7799
    6CHL1   C12  401   5.592   5.536   9.692  0.1960  0.4684 -0.1866
    6CHL1  H12A  402   5.494   5.507   9.648  0.8660 -2.0853 -0.1384
    6CHL1  H12B  403   5.659   5.448   9.683  0.6517  0.7076  0.6905
    6CHL1   C11  404   5.552   5.531   9.845  0.5352 -0.2305  0.5242
    6CHL1  H11A  405   5.470   5.606   9.856  1.7362  0.9423  1.8000
    6CHL1  H11B  406   5.511   5.430   9.867 -2.2480  0.7871  0.4759
    6CHL1    C9  407   5.663   5.573   9.949  0.2742 -0.4654  0.5201
    6CHL1    H9  408   5.743   5.497   9.936  0.8899  0.0776  1.0639
    6CHL1   C10  409   5.622   5.578  10.097 -0.4780 -0.6833  0.5398
    6CHL1   C19  410   5.501   5.671  10.099 -0.4447  0.1762  0.1191
    6CHL1  H19A  411   5.534   5.772  10.067 -1.6690  0.3882 -0.5072
    6CHL1  H19B  412   5.411   5.637  10.044  0.2193 -3.4900  1.0475
    6CHL1  H19C  413   5.470   5.693  10.203 -2.0939  0.6236 -0.4413
    6CHL1    C1  414   5.582   5.435  10.152 -0.4976 -0.0601 -0.3140
    6CHL1   H1A  415   5.499   5.400  10.087 -0.3725  2.0158 -1.6593
    6CHL1   H1B  416   5.675   5.376  10.136 -0.0876  0.3546  0.4822
    6CHL1    C2  417   5.547   5.429  10.301 -0.0855 -1.0043  0.1515
    6CHL1   H2A  418   5.525   5.323  10.325  3.4279 -2.5300 -2.4923
    6CHL1   H2B  419   5.458   5.491  10.321 -1.2652 -2.7777  0.6439
    6CHL1   C20  420   5.648   5.708   9.397  0.4605 -0.1673 -0.9422
    6CHL1   H20  421   5.583   5.793   9.426  2.2939  0.5952  1.2207
    6CHL1   C21  422   5.568   5.581   9.352 -0.5122 -0.1602 -0.7271
    6CHL1  H21A  423   5.635   5.492   9.354 -0.6174 -0.2686 -1.6822
    6CHL1  H21B  424   5.539   5.593   9.246 -0.8336  0.3242 -0.5858
    6CHL1  H21C  425   5.479   5.560   9.415 -2.1042 -1.4261 -3.2294
    6CHL1   C22  426   5.735   5.753   9.281  0.0373  0.7039  0.1046
    6CHL1  H22A  427   5.667   5.757   9.193  2.4370 -0.7871 -1.9587
    6CHL1  H22B  428   5.785   5.851   9.295  1.5276  0.0421 -0.3818
    6CHL1   C23  429   5.843   5.657   9.242 -0.3731  1.2169 -0.1720
    6CHL1  H23A  430   5.913   5.655   9.329 -1.8117  1.9749  1.0436
    6CHL1  H23B  431   5.811   5.551   9.238 -0.8123  1.2709  1.3184
    6CHL1   C24  432   5.918   5.696   9.110  0.3445 -0.0955 -0.6705
    6CHL1  H24A  433   5.843   5.680   9.030  0.2442 -0.4529 -0.5050
    6CHL1  H24B  434   5.960   5.800   9.113  1.5807 -0.5861  1.8323
    6CHL1   C25  435   6.048   5.607   9.093  0.3327  0.5393 -0.2296
    6CHL1   H25  436   6.116   5.597   9.180  0.4740  0.2508 -0.3704
    6CHL1   C26  437   5.998   5.467   9.052  0.2725  0.2848 -0.1468
    6CHL1  H26A  438   5.917   5.457   8.977  2.2521  0.3256 -2.4037
    6CHL1  H26B  439   6.081   5.410   9.006 -1.2301 -1.9028 -0.2738
    6CHL1  H26C  440   5.968   5.413   9.144 -2.1047  2.7763  0.6733
    6CHL1   C27  441   6.119   5.675   8.977  0.4366 -0.2752 -0.4096
    6CHL1  H27A  442   6.042   5.689   8.898  0.0883 -1.5230 -0.3189
    6CHL1  H27B  443   6.164   5.774   8.999 -3.4620  1.9484 -1.4959
    6CHL1  H27C  444   6.186   5.595   8.937 -0.3617 -1.4567  0.5771
    7CHL1    C3  445   2.291   4.237  10.225  0.0705 -0.2466  0.0912
    7CHL1    H3  446   2.290   4.127  10.214  0.3701 -0.2021 -0.4524
    7CHL1    O3  447   2.263   4.269  10.356  0.1332  0.3252 -0.6092
    7CHL1   H3'  448   2.176   4.231  10.371 -1.0273  1.8936 -2.8572
    7CHL1    C4  449   2.422   4.292  10.185  0.0377 -0.3018  1.4159
    7CHL1   H4A  450   2.421   4.402  10.200  2.8290  0.7078 -3.4850
    7CHL1   H4B  451   2.509   4.268  10.249 -0.8502 -1.4728  2.2252
    7CHL1    C5  452   2.456   4.273  10.035  0.6528  0.1446  0.0329
    7CHL1    C6  453   2.570   4.214   9.999 -0.4145  0.1384  0.0575
    7CHL1    H6  454   2.645   4.207  10.080 -1.0721 -1.3617  0.5656
    7CHL1    C7  455   2.616   4.194   9.859  0.4404 -0.2335 -0.2913
    7CHL1   H7A  456   2.722   4.225   9.848 -0.6816  4.2300 -0.4885
    7CHL1   H7B  457   2.607   4.085   9.837 -0.3414 -0.0911 -0.7548
    7CHL1    C8  458   2.530   4.277   9.762 -0.1728 -0.3145  0.2788
    7CHL1    H8  459   2.558   4.384   9.777  1.5082 -0.6485 -0.2810
    7CHL1   C14  460   2.555   4.232   9.618  0.1658  0.3768  0.2066
    7CHL1   H14  461   2.524   4.126   9.605 -1.5255  0.9515 -0.7178
    7CHL1   C15  462   2.697   4.231   9.565 -0.0864  0.1498  0.3322
    7CHL1  H15A  463   2.738   4.333   9.578  2.0282 -0.2643 -2.3090
    7CHL1  H15B  464   2.764   4.145   9.584 -0.1378  0.3241  1.3271
    7CHL1   C16  465   2.669   4.235   9.410 -0.6687 -0.2843  0.4254
    7CHL1  H16A  466   2.739   4.312   9.372 -0.7071 -0.5416 -0.1922
    7CHL1  H16B  467   2.692   4.136   9.365 -0.2936 -0.5959  1.2802
    7CHL1   C17  468   2.522   4.256   9.380 -0.2882 -0.3721  0.6712
    7CHL1   H17  469   2.469   4.159   9.365 -1.0351  0.3758 -2.1473
    7CHL1   C13  470   2.466   4.310   9.507  0.0621 -0.8856  0.6732
    7CHL1   C18  471   2.505   4.465   9.510  0.6237 -0.0709 -0.4527
    7CHL1  H18A  472   2.615   4.476   9.497  0.2392  3.7487 -1.7928
    7CHL1  H18B  473   2.463   4.523   9.424  1.4680  0.0152 -0.8190
    7CHL1  H18C  474   2.467   4.519   9.599 -1.5352 -1.0155 -0.7451
    7CHL1   C12  475   2.323   4.274   9.532 -0.1634 -0.5231 -0.2385
    7CHL1  H12A  476   2.250   4.323   9.464  0.8615  0.2236 -0.8359
    7CHL1  H12B  477   2.310   4.164   9.526 -0.7720 -0.5457  1.1579
    7CHL1   C11  478   2.288   4.318   9.679 -0.0275 -0.4893 -0.7290
    7CHL1  H11A  479   2.287   4.429   9.683  2.4936 -0.4441  0.9017
    7CHL1  H11B  480   2.187   4.281   9.707 -0.5145  1.9665  1.1438
    7CHL1    C9  481   2.378   4.267   9.797  0.0280  0.5092  0.1778
    7CHL1    H9  482   2.364   4.157   9.804  1.1229  0.0976 -2.6582
    7CHL1   C10  483   2.348   4.326   9.938  0.0824  0.5370 -0.8718
    7CHL1   C19  484   2.355   4.481   9.941 -0.2959  0.0058  0.0164
    7CHL1  H19A  485   2.283   4.524   9.869  0.2862 -1.8957 -1.8378
    7CHL1  H19B  486   2.343   4.534  10.037  1.4134  2.3939 -0.9905
    7CHL1  H19C  487   2.455   4.513   9.903  1.8999 -2.6561  2.9272
    7CHL1    C1  488   2.206   4.270   9.986  0.3852 -0.0705 -0.9982
    7CHL1   H1A  489   2.125   4.313   9.923  0.8475  0.7565 -1.0480
    7CHL1   H1B  490   2.201   4.160   9.976  3.3419 -0.4492  0.5952
    7CHL1    C2  491   2.179   4.290  10.134 -0.0548  0.1452  0.2585
    7CHL1   H2A  492   2.081   4.249  10.166 -0.2989  0.6243  0.1336
    7CHL1   H2B  493   2.180   4.400  10.150  2.9047  0.0598  1.3271
    7CHL1   C20  494   2.507   4.323   9.247 -0.2202  0.6264  0.6606
    7CHL1   H20  495   2.543   4.428   9.247 -0.3628  0.7353  3.2007
    7CHL1   C21  496   2.358   4.347   9.216  0.3531  0.3273 -0.2419
    7CHL1  H21A  497   2.342   4.394   9.117  0.7711  2.7665  0.7747
    7CHL1  H21B  498   2.306   4.420   9.281  0.6998  0.6705 -0.3509
    7CHL1  H21C  499   2.301   4.251   9.209 -0.0592  0.3478  1.9909
    7CHL1   C22  500   2.585   4.241   9.138 -0.1055 -0.1999  0.6406
    7CHL1  H22A  501   2.692   4.269   9.135 -0.3746  0.7555 -0.1468
    7CHL1  H22B  502   2.576   4.131   9.156 -2.4710  0.2134  2.5339
    7CHL1   C23  503   2.545   4.273   8.994  0.2502  0.5763 -0.1917
    7CHL1  H23A  504   2.592   4.195   8.930  0.6971 -0.5489  1.4490
    7CHL1  H23B  505   2.435   4.261   8.983 -0.0036  2.8846 -0.6214
    7CHL1   C24  506   2.570   4.423   8.960  0.3086  0.5752  0.2520
    7CHL1  H24A  507   2.517   4.496   9.026 -0.1297  1.1480 -0.7190
    7CHL1  H24B  508   2.678   4.438   8.980 -0.0314  1.0866  1.8597
    7CHL1   C25  509   2.522   4.453   8.813 -0.8850  0.9915  0.5811
    7CHL1   H25  510   2.564   4.367   8.757  0.6581  0.3389  2.6381
    7CHL1   C26  511   2.373   4.460   8.801  0.0648  0.4672 -0.3785
    7CHL1  H26A  512   2.342   4.473   8.695  0.8060  1.1847 -0.5210
    7CHL1  H26B  513   2.330   4.367   8.844  0.5003 -0.2464 -1.4328
    7CHL1  H26C  514   2.340   4.552   8.853 -0.3427 -0.0124  0.2189
    7CHL1   C27  515   2.593   4.586   8.766 -0.4525  0.0798 -0.2271
    7CHL1  H27A  516   2.550   4.675   8.816 -3.0766 -1.0288 -0.3687
    7CHL1  H27B  517   2.695   4.560   8.801 -1.4520 -1.6896  1.6069
    7CHL1  H27C  518   2.591   4.608   8.657 -0.9167 -0.2306 -0.2816
    8CHL1    C3  519   1.440   4.592  10.543  0.0443  1.1000  0.1979
    8CHL1    H3  520   1.413   4.699  10.548 -0.9702  0.8727 -0.1977
    8CHL1    O3  521   1.436   4.538  10.670  0.2925 -0.0441  0.4393
    8CHL1   H3'  522   1.444   4.446  10.643 -2.0491 -0.0941 -0.3579
    8CHL1    C4  523   1.329   4.529  10.453 -0.2404 -0.2218 -0.2652
    8CHL1   H4A  524   1.338   4.419  10.458 -0.1253 -0.1575  1.2371
    8CHL1   H4B  525   1.233   4.563  10.498  0.1595  0.2661  0.2323
    8CHL1    C5  526   1.334   4.571  10.307 -0.2618  0.5963  1.3934
    8CHL1    C6  527   1.227   4.635  10.251  0.2009  0.0533  1.1003
    8CHL1    H6  528   1.136   4.654  10.310 -0.4578 -3.2818  1.3331
    8CHL1    C7  529   1.231   4.670  10.102  0.0490  0.3163  0.6786
    8CHL1   H7A  530   1.132   4.649  10.057  1.0099 -2.3304 -0.4108
    8CHL1   H7B  531   1.240   4.779  10.086 -1.4430  0.1099 -2.2198
    8CHL1    C8  532   1.339   4.593  10.016 -0.3463 -0.1745 -0.4959
    8CHL1    H8  533   1.321   4.483  10.019  1.3677 -0.4662  0.3534
    8CHL1   C14  534   1.366   4.659   9.881 -0.2015 -0.7856 -1.1568
    8CHL1   H14  535   1.379   4.767   9.903 -0.6389 -1.0803  0.7583
    8CHL1   C15  536   1.241   4.662   9.792 -0.2997 -0.1524  0.2253
    8CHL1  H15A  537   1.194   4.563   9.807 -0.1318 -0.2818 -0.0998
    8CHL1  H15B  538   1.169   4.739   9.828  0.9464  0.9029  0.5256
    8CHL1   C16  539   1.293   4.688   9.651  0.2280 -0.4978  0.6912
    8CHL1  H16A  540   1.263   4.604   9.583 -1.0126  1.0289 -0.7418
    8CHL1  H16B  541   1.248   4.783   9.616 -1.0676 -1.9150 -1.8272
    8CHL1   C17  542   1.448   4.674   9.662  0.1637  0.5464 -0.1500
    8CHL1   H17  543   1.478   4.779   9.681 -1.1267  0.9077 -0.0441
    8CHL1   C13  544   1.474   4.604   9.800 -0.2114  0.2544  0.0166
    8CHL1   C18  545   1.456   4.455   9.776  0.5182 -0.0113 -0.0885
    8CHL1  H18A  546   1.355   4.422   9.744  0.7454 -1.4197  0.5524
    8CHL1  H18B  547   1.522   4.425   9.691  0.0247 -3.8211  0.6855
    8CHL1  H18C  548   1.498   4.392   9.858  0.3635 -1.4984 -1.1131
    8CHL1   C12  549   1.608   4.629   9.871  0.0540  0.0482 -0.1900
    8CHL1  H12A  550   1.697   4.588   9.820  0.4410 -0.8531  1.1521
    8CHL1  H12B  551   1.616   4.740   9.883  1.7793 -0.2734  2.5092
    8CHL1   C11  552   1.602   4.577  10.017  0.0038 -0.1730  0.2959
    8CHL1  H11A  553   1.620   4.468  10.004  3.6000  0.2352  0.8612
    8CHL1  H11B  554   1.698   4.600  10.068 -0.3207 -0.5698  1.1075
    8CHL1    C9  555   1.476   4.616  10.101 -0.0886 -0.1095 -0.6150
    8CHL1    H9  556   1.485   4.726  10.108  1.8086 -0.3109  0.9543
    8CHL1   C10  557   1.473   4.544  10.240 -0.2361 -0.4766  0.1163
    8CHL1   C19  558   1.496   4.391  10.226  0.8492 -0.4110  0.3069
    8CHL1  H19A  559   1.597   4.368  10.187  1.1014  1.9027 -0.5787
    8CHL1  H19B  560   1.482   4.338  10.323 -1.5923 -0.1231  0.1783
    8CHL1  H19C  561   1.417   4.353  10.157 -0.7727  1.3092  1.1314
    8CHL1    C1  562   1.581   4.613  10.334 -0.3385 -0.2863  1.1984
    8CHL1   H1A  563   1.680   4.591  10.289 -0.4609  0.2077  0.6773
    8CHL1   H1B  564   1.561   4.722  10.337 -0.9451 -0.2992 -0.9412
    8CHL1    C2  565   1.576   4.565  10.479  0.5398 -0.0774  0.3117
    8CHL1   H2A  566   1.651   4.626  10.535 -0.8714  2.5943 -0.5490
    8CHL1   H2B  567   1.593   4.457  10.494  1.6645  0.1710  0.9622
    8CHL1   C20  568   1.515   4.627   9.532 -0.0999  0.6065 -0.6642
    8CHL1   H20  569   1.519   4.517   9.521  2.0800  0.5985 -0.1928
    8CHL1   C21  570   1.665   4.667   9.529  1.0297  0.2215 -0.1690
    8CHL1  H21A  571   1.665   4.777   9.546  1.1906  0.0051  1.4095
    8CHL1  H21B  572   1.716   4.654   9.431  0.1032  1.9421 -0.9130
    8CHL1  H21C  573   1.710   4.609   9.613  2.0433  0.3173 -0.6266
    8CHL1   C22  574   1.456   4.694   9.407  0.1650  0.0489 -0.3844
    8CHL1  H22A  575   1.346   4.681   9.401  0.0775  1.3141 -3.5669
    8CHL1  H22B  576   1.477   4.802   9.393  0.6138  0.0580  0.3423
    8CHL1   C23  577   1.508   4.634   9.269 -0.2728  0.7618  0.2165
    8CHL1  H23A  578   1.608   4.668   9.235  0.2684  0.7097  1.6699
    8CHL1  H23B  579   1.529   4.526   9.285 -2.8895 -0.5025 -3.5794
    8CHL1   C24  580   1.423   4.677   9.149  0.2825  0.1847  0.6112
    8CHL1  H24A  581   1.320   4.638   9.149  0.2806  0.1870  0.0027
    8CHL1  H24B  582   1.420   4.788   9.163 -0.7509 -0.0227  2.3352
    8CHL1   C25  583   1.488   4.666   9.002  0.1722 -0.2535  0.3328
    8CHL1   H25  584   1.587   4.715   9.007  0.5568 -1.0107  0.2145
    8CHL1   C26  585   1.511   4.523   8.962  0.2018  0.3065  0.0901
    8CHL1  H26A  586   1.571   4.524   8.869  0.5940  0.2414  0.3388
    8CHL1  H26B  587   1.577   4.470   9.034 -1.1919  2.0765  2.8314
    8CHL1  H26C  588   1.421   4.465   8.935 -0.7277  1.8483 -0.2851
    8CHL1   C27  589   1.398   4.736   8.896  0.0170  0.3613 -0.0434
    8CHL1  H27A  590   1.302   4.680   8.903  1.4220 -2.0579  1.6151
    8CHL1  H27B  591   1.395   4.842   8.927  2.6537  0.5307 -0.1764
    8CHL1  H27C  592   1.440   4.727   8.794 -1.4538 -0.8716 -0.5746
    9CHL1    C3  593   5.517   0.288  10.195  0.0338  0.0333  0.1356
    9CHL1    H3  594   5.614   0.244  10.161 -0.7781 -1.7511  0.0109
    9CHL1    O3  595   5.516   0.287  10.337 -0.5937 -0.0800  0.0235
    9CHL1   H3'  596   5.476   0.373  10.354 -0.0997 -0.0201  0.9916
    9CHL1    C4  597   5.513   0.434  10.152 -0.3655 -0.3253 -0.2060
    9CHL1   H4A  598   5.425   0.485  10.197  0.2987  0.5188  0.1793
    9CHL1   H4B  599   5.603   0.486  10.193 -0.8441 -0.8757  1.6541
    9CHL1    C5  600   5.507   0.455  10.001 -0.0057 -0.0005 -0.0742
    9CHL1    C6  601   5.585   0.531   9.933 -0.1125  0.0950 -0.3148
    9CHL1    H6  602   5.664   0.588   9.985  1.4872 -1.8524 -0.4680
    9CHL1    C7  603   5.569   0.557   9.779  0.7258 -0.4631 -0.0802
    9CHL1   H7A  604   5.580   0.662   9.742 -2.1920  0.0466  0.2688
    9CHL1   H7B  605   5.652   0.502   9.730  2.3434  0.0772  1.9348
    9CHL1    C8  606   5.434   0.505   9.712 -0.7557  0.4615  0.0962
    9CHL1    H8  607   5.345   0.566   9.737 -1.9123 -0.6030 -1.2211
    9CHL1   C14  608   5.448   0.496   9.557 -0.5850 -0.7422 -0.1890
    9CHL1   H14  609   5.532   0.425   9.552  0.6386  0.5737  0.8244
    9CHL1   C15  610   5.491   0.622   9.470  0.2309  0.1850  0.5850
    9CHL1  H15A  611   5.428   0.704   9.512  1.4573  0.4121  2.0613
    9CHL1  H15B  612   5.599   0.642   9.487  0.4643 -2.6012  3.1299
    9CHL1   C16  613   5.451   0.585   9.330 -0.3884  0.3351  0.5357
    9CHL1  H16A  614   5.375   0.664   9.312 -0.7390 -0.3876 -1.2791
    9CHL1  H16B  615   5.530   0.594   9.252  0.2226 -0.7717  0.9974
    9CHL1   C17  616   5.384   0.446   9.342 -0.3769 -0.5668  0.1156
    9CHL1   H17  617   5.468   0.374   9.332 -0.4450 -0.5035 -1.1349
    9CHL1   C13  618   5.331   0.430   9.489  0.3117 -0.9474 -0.0202
    9CHL1   C18  619   5.204   0.520   9.500 -0.5558  0.2024 -1.0556
    9CHL1  H18A  620   5.167   0.525   9.605 -0.2891 -0.7919 -0.9030
    9CHL1  H18B  621   5.220   0.613   9.442 -1.0086  0.7266 -0.3661
    9CHL1  H18C  622   5.112   0.474   9.457 -0.7601 -1.8331  1.3016
    9CHL1   C12  623   5.306   0.295   9.545  0.3383 -0.2190  0.3598
    9CHL1  H12A  624   5.220   0.253   9.489  1.6029  1.1079 -2.8579
    9CHL1  H12B  625   5.401   0.240   9.524  0.5660 -0.5490  2.0710
    9CHL1   C11  626   5.293   0.297   9.703 -0.4077 -0.2606  0.2921
    9CHL1  H11A  627   5.194   0.343   9.725  0.3204  0.3198  2.5792
    9CHL1  H11B  628   5.301   0.188   9.726  2.3334 -0.4286 -1.0721
    9CHL1    C9  629   5.411   0.364   9.777 -0.5319  0.2794  0.0785
    9CHL1    H9  630   5.507   0.313   9.753  0.0783  0.3617  2.1350
    9CHL1   C10  631   5.397   0.370   9.932  0.4260 -0.5640 -0.0743
    9CHL1   C19  632   5.259   0.428   9.970 -0.2664 -0.4098 -0.0887
    9CHL1  H19A  633   5.249   0.530   9.928 -0.0671 -0.4828 -0.3187
    9CHL1  H19B  634   5.178   0.363   9.933 -0.0161 -0.6732 -0.1804
    9CHL1  H19C  635   5.247   0.425  10.081 -1.9915 -0.6262 -0.2611
    9CHL1    C1  636   5.395   0.228   9.992 -0.0918 -0.9209  0.6465
    9CHL1   H1A  637   5.302   0.187   9.947  0.5619 -1.3832 -0.3179
    9CHL1   H1B  638   5.481   0.167   9.957  0.3353  0.7695 -1.5297
    9CHL1    C2  639   5.401   0.207  10.145  0.1919  0.3737  0.0793
    9CHL1   H2A  640   5.415   0.098  10.163 -1.0680 -0.2592 -2.3856
    9CHL1   H2B  641   5.302   0.236  10.188 -0.1839 -0.8985  0.1313
    9CHL1   C20  642   5.295   0.427   9.222  0.2589 -0.6475  0.6244
    9CHL1   H20  643   5.194   0.474   9.233 -0.3626 -1.4744 -1.1763
    9CHL1   C21  644   5.281   0.279   9.197 -0.5985  0.3550 -0.2423
    9CHL1  H21A  645   5.224   0.228   9.276 -1.5714  1.7813  0.0132
    9CHL1  H21B  646   5.381   0.230   9.188  0.8110  3.2650 -2.0927
    9CHL1  H21C  647   5.206   0.270   9.116  0.1585  0.6973 -1.0035
    9CHL1   C22  648   5.359   0.494   9.094 -0.2883 -0.1324  0.8030
    9CHL1  H22A  649   5.348   0.604   9.106 -1.9532 -0.0739 -0.7962
    9CHL1  H22B  650   5.467   0.477   9.075  0.0473  2.1451  0.4062
    9CHL1   C23  651   5.302   0.454   8.960 -0.7914 -0.0818  0.6872
    9CHL1  H23A  652   5.333   0.348   8.945 -0.4731 -0.1268  1.6107
    9CHL1  H23B  653   5.192   0.459   8.962 -0.8159  0.3526 -0.5311
    9CHL1   C24  654   5.355   0.543   8.845 -0.1496  0.3067  0.0351
    9CHL1  H24A  655   5.305   0.642   8.846 -0.0968  0.3640  2.3740
    9CHL1  H24B  656   5.462   0.566   8.863  0.1447 -1.4406  0.7092
    9CHL1   C25  657   5.339   0.476   8.701 -0.1303  0.3143 -0.0242
    9CHL1   H25  658   5.395   0.380   8.701 -1.9682 -0.8212  0.8899
    9CHL1   C26  659   5.192   0.466   8.655  0.3087 -0.1815  0.1771
    9CHL1  H26A  660   5.133   0.394   8.716  0.9556 -0.9144 -0.0328
    9CHL1  H26B  661   5.145   0.565   8.670 -0.7494 -0.3973 -1.5351
    9CHL1  H26C  662   5.172   0.437   8.550  1.3091  1.3671 -0.4714
    9CHL1   C27  663   5.407   0.562   8.597 -0.1019 -1.2419 -0.0460
    9CHL1  H27A  664   5.514   0.582   8.616  0.2418  0.2627 -2.9522
    9CHL1  H27B  665   5.411   0.510   8.499  1.1515  1.7625 -1.7161
    9CHL1  H27C  666   5.364   0.663   8.579 -1.0049 -2.1126 -3.6623
   10CHL1    C3  667   4.136   3.820  10.046 -0.3997  0.7339  0.2883
   10CHL1    H3  668   4.241   3.789  10.028  0.1697  2.4522  0.4551
   10CHL1    O3  669   4.137   3.838  10.187 -0.1890  0.0314 -0.0877
   10CHL1   H3'  670   4.170   3.928  10.186 -0.1269  0.0114 -2.0812
   10CHL1    C4  671   4.088   3.950   9.986  0.1654  0.0249 -0.1574
   10CHL1   H4A  672   3.992   3.959  10.042  1.3671  2.1322  1.6872
   10CHL1   H4B  673   4.148   4.041  10.005  0.7441 -0.1801 -0.9475
   10CHL1    C5  674   4.065   3.935   9.837  0.8504  0.5024  0.6705
   10CHL1    C6  675   4.118   4.027   9.756  0.3681 -0.2109  0.0332
   10CHL1    H6  676   4.178   4.105   9.805  0.7300 -0.9951  0.8525
   10CHL1    C7  677   4.086   4.025   9.609  0.1077  0.9159  0.5729
   10CHL1   H7A  678   4.060   4.126   9.569  1.5335  1.1586  0.2152
   10CHL1   H7B  679   4.180   3.997   9.557 -0.2031  2.1293 -0.7225
   10CHL1    C8  680   3.968   3.931   9.565  0.0237  0.3823 -0.0076
   10CHL1    H8  681   3.874   3.991   9.563 -0.9105 -1.0341 -0.7425
   10CHL1   C14  682   3.987   3.903   9.420  0.7048  0.5879  0.2659
   10CHL1   H14  683   4.083   3.848   9.417  1.3369  1.7109 -0.6127
   10CHL1   C15  684   4.002   4.023   9.325 -0.1969  0.3368 -0.1534
   10CHL1  H15A  685   3.949   4.113   9.360 -0.6711 -0.4029  1.1053
   10CHL1  H15B  686   4.108   4.056   9.322 -0.4411  1.8492  3.3988
   10CHL1   C16  687   3.961   3.967   9.183 -0.0699  0.9225 -0.4657
   10CHL1  H16A  688   3.885   4.025   9.127 -0.0848  0.4428 -0.9481
   10CHL1  H16B  689   4.053   3.961   9.121 -0.5113 -2.6876 -0.9821
   10CHL1   C17  690   3.909   3.821   9.209 -0.2414  0.2932  0.2068
   10CHL1   H17  691   4.000   3.760   9.190  0.6924  0.8268  2.6276
   10CHL1   C13  692   3.871   3.816   9.364 -0.0096 -0.2946 -0.5226
   10CHL1   C18  693   3.730   3.874   9.374 -0.2391  0.0005  0.1184
   10CHL1  H18A  694   3.719   3.917   9.475  3.2642  1.2629  0.0956
   10CHL1  H18B  695   3.719   3.952   9.295  1.5374 -1.1414 -1.3302
   10CHL1  H18C  696   3.652   3.797   9.355 -1.4034  1.5208 -1.6652
   10CHL1   C12  697   3.878   3.687   9.440  0.3300 -0.1108 -0.0729
   10CHL1  H12A  698   3.799   3.625   9.393  1.7355 -0.7730 -1.6894
   10CHL1  H12B  699   3.973   3.639   9.408 -0.5372 -1.5818 -0.5348
   10CHL1   C11  700   3.866   3.694   9.593  0.5729  0.4730  1.2960
   10CHL1  H11A  701   3.760   3.728   9.602  0.7766  1.3624  0.4991
   10CHL1  H11B  702   3.879   3.591   9.633 -2.6067 -0.7888 -0.5154
   10CHL1    C9  703   3.966   3.802   9.644  0.5882  0.8001  0.0380
   10CHL1    H9  704   4.060   3.750   9.614  0.3712  1.3827 -1.8063
   10CHL1   C10  705   3.974   3.819   9.793  0.1771 -0.4716  0.4025
   10CHL1   C19  706   3.832   3.849   9.842 -0.4854 -0.3444  0.7771
   10CHL1  H19A  707   3.764   3.766   9.813  1.2893 -1.0307 -1.6938
   10CHL1  H19B  708   3.830   3.866   9.952 -0.4641  2.4410  0.4184
   10CHL1  H19C  709   3.806   3.945   9.793  0.6416 -1.2592 -1.7950
   10CHL1    C1  710   4.025   3.683   9.859 -0.4426 -0.4029  0.3361
   10CHL1   H1A  711   3.943   3.610   9.840 -1.0784  0.2311  0.6076
   10CHL1   H1B  712   4.122   3.666   9.807 -0.2544  1.2955  0.0901
   10CHL1    C2  713   4.042   3.697  10.009 -0.4490 -0.0649 -0.0773
   10CHL1   H2A  714   4.093   3.603  10.039  1.3614  1.4334  1.8817
   10CHL1   H2B  715   3.945   3.717  10.058 -0.6130  0.0998 -0.4628
   10CHL1   C20  716   3.804   3.776   9.097 -0.2619 -0.2557  0.0588
   10CHL1   H20  717   3.739   3.865   9.081  2.0647  1.9458  1.9935
   10CHL1   C21  718   3.720   3.649   9.134  0.8955 -0.5050 -0.1814
   10CHL1  H21A  719   3.781   3.574   9.189  0.9695  0.2172  0.7478
   10CHL1  H21B  720   3.668   3.593   9.053 -0.5495  0.1676  0.2493
   10CHL1  H21C  721   3.641   3.684   9.204  1.6937 -0.1472  0.5672
   10CHL1   C22  722   3.882   3.751   8.961  0.0388 -0.1540  0.5883
   10CHL1  H22A  723   3.945   3.839   8.933  1.1017 -1.2309 -0.5392
   10CHL1  H22B  724   3.937   3.655   8.963 -0.3715 -0.5813 -2.8337
   10CHL1   C23  725   3.786   3.732   8.844 -0.0853 -0.7419 -0.0490
   10CHL1  H23A  726   3.713   3.650   8.858  1.0560 -1.9133 -0.7381
   10CHL1  H23B  727   3.721   3.822   8.841  0.2847 -0.4925 -0.8677
   10CHL1   C24  728   3.853   3.728   8.703  0.0054  0.3212  0.7409
   10CHL1  H24A  729   3.917   3.818   8.692  1.3284 -0.5637  0.9295
   10CHL1  H24B  730   3.912   3.634   8.694  0.1055  0.3125  1.4507
   10CHL1   C25  731   3.749   3.741   8.584  0.8268  0.1171  0.0134
   10CHL1   H25  732   3.677   3.824   8.603 -0.0405 -0.7947  0.8152
   10CHL1   C26  733   3.825   3.762   8.446 -0.0542 -1.4144 -0.5947
   10CHL1  H26A  734   3.889   3.853   8.451  0.3559 -1.7638  0.9342
   10CHL1  H26B  735   3.881   3.671   8.416  1.4745 -0.4881 -0.6372
   10CHL1  H26C  736   3.745   3.775   8.370 -0.4874 -1.8104 -0.2150
   10CHL1   C27  737   3.659   3.615   8.575 -0.6518  0.3207  0.0136
   10CHL1  H27A  738   3.609   3.603   8.673 -0.2863 -0.5879  0.0932
   10CHL1  H27B  739   3.580   3.636   8.500  0.9479  0.1166 -1.8205
   10CHL1  H27C  740   3.716   3.521   8.558  1.0897  1.2442  0.4562
   11CHL1    C3  741   0.922   2.036  10.029 -0.0973 -0.5029  0.2039
   11CHL1    H3  742   0.941   2.146  10.021 -0.5586 -0.4984 -1.0330
   11CHL1    O3  743   0.926   1.996  10.164 -0.4673  0.0865 -0.4469
   11CHL1   H3'  744   0.919   1.901  10.165  0.6698 -0.0176 -0.2613
   11CHL1    C4  745   0.784   2.005   9.975  0.3539 -0.8280  0.0536
   11CHL1   H4A  746   0.761   1.898   9.996  0.6742 -0.7393  0.8799
   11CHL1   H4B  747   0.706   2.065  10.026  1.1773  2.2377 -2.0037
   11CHL1    C5  748   0.765   2.021   9.826  0.1969  0.5926  0.2244
   11CHL1    C6  749   0.689   2.113   9.777 -0.6572  0.0235 -0.1404
   11CHL1    H6  750   0.611   2.157   9.841 -1.3617 -3.3160  1.5554
   11CHL1    C7  751   0.679   2.141   9.629 -0.4653 -0.1713 -0.7013
   11CHL1   H7A  752   0.571   2.132   9.606 -0.8710  1.2412  0.5351
   11CHL1   H7B  753   0.718   2.240   9.595  1.7598 -0.3980  0.9265
   11CHL1    C8  754   0.743   2.035   9.537 -0.2670  0.7308  0.4349
   11CHL1    H8  755   0.683   1.942   9.536  0.8834 -0.1397  2.9548
   11CHL1   C14  756   0.762   2.085   9.398 -0.5947  0.5939 -0.2197
   11CHL1   H14  757   0.829   2.173   9.409  2.7280 -1.5628 -1.5995
   11CHL1   C15  758   0.639   2.128   9.316 -0.2868 -0.7169  0.3788
   11CHL1  H15A  759   0.549   2.063   9.321  0.1084 -1.2718  0.4335
   11CHL1  H15B  760   0.600   2.230   9.338 -0.4906 -0.3732 -1.4349
   11CHL1   C16  761   0.692   2.137   9.172  0.0294  0.7142  0.2536
   11CHL1  H16A  762   0.623   2.089   9.099 -0.2923  2.5995 -0.7594
   11CHL1  H16B  763   0.688   2.244   9.143 -0.6472  0.6672  0.1608
   11CHL1   C17  764   0.840   2.078   9.168  0.1726  0.6651 -0.0834
   11CHL1   H17  765   0.912   2.162   9.180 -0.3859  1.0532  0.6068
   11CHL1   C13  766   0.839   1.990   9.302 -0.3994 -0.8982  0.0888
   11CHL1   C18  767   0.763   1.855   9.283  0.1259  0.0687  1.1400
   11CHL1  H18A  768   0.835   1.778   9.249  1.1546  1.2494  0.5542
   11CHL1  H18B  769   0.718   1.816   9.377 -0.5744 -0.7648  0.4815
   11CHL1  H18C  770   0.681   1.865   9.208  0.7007 -1.0712  0.3210
   11CHL1   C12  771   0.981   1.964   9.363 -0.4785 -0.4556 -0.2033
   11CHL1  H12A  772   1.036   1.896   9.293  0.5352  2.1341 -2.0743
   11CHL1  H12B  773   1.039   2.058   9.364 -0.6732 -0.3240 -0.8519
   11CHL1   C11  774   0.971   1.902   9.504  0.4547  0.3667 -0.0010
   11CHL1  H11A  775   0.940   1.795   9.496  3.6687 -0.8893  2.0828
   11CHL1  H11B  776   1.074   1.902   9.546  0.5959  0.5539 -0.3454
   11CHL1    C9  777   0.872   1.992   9.600 -0.9751  0.4977 -0.7366
   11CHL1    H9  778   0.931   2.085   9.610  0.8994 -0.8995  3.1913
   11CHL1   C10  779   0.869   1.940   9.744 -0.1961  0.1835 -0.2192
   11CHL1   C19  780   0.829   1.794   9.750  0.2563  0.0861 -0.5013
   11CHL1  H19A  781   0.902   1.734   9.692 -0.0872  0.6229 -1.5169
   11CHL1  H19B  782   0.844   1.753   9.852  2.7459  0.1625 -0.7797
   11CHL1  H19C  783   0.729   1.762   9.713 -0.7586  0.9077  1.4181
   11CHL1    C1  784   1.014   1.966   9.809  0.2267 -0.2062 -0.1500
   11CHL1   H1A  785   1.085   1.891   9.767 -1.0729 -1.6315  0.1516
   11CHL1   H1B  786   1.053   2.065   9.776 -2.4390  0.8693 -0.2634
   11CHL1    C2  787   1.028   1.955   9.962 -0.5279  0.4391  0.8632
   11CHL1   H2A  788   1.132   1.973   9.998 -0.2709 -0.3460  0.5206
   11CHL1   H2B  789   1.022   1.846   9.983  1.0807  0.2855  0.6627
   11CHL1   C20  790   0.867   2.002   9.037 -0.0700  0.2491 -0.0342
   11CHL1   H20  791   0.795   1.918   9.034 -1.1420  1.1526 -2.1325
   11CHL1   C21  792   1.011   1.945   9.039 -0.4587  0.2949 -0.4815
   11CHL1  H21A  793   1.096   2.012   9.067  0.4268 -1.3985  1.1474
   11CHL1  H21B  794   1.031   1.912   8.935 -3.0772  1.6137 -1.4631
   11CHL1  H21C  795   1.029   1.859   9.107 -2.1869  0.0024 -0.3685
   11CHL1   C22  796   0.857   2.089   8.907  0.3977 -0.4005 -0.4044
   11CHL1  H22A  797   0.886   2.029   8.817  1.5238 -3.3017  1.7387
   11CHL1  H22B  798   0.747   2.107   8.903  0.2357 -0.4978  2.1543
   11CHL1   C23  799   0.939   2.215   8.914 -0.4919  0.4937  0.8508
   11CHL1  H23A  800   0.877   2.290   8.967  0.3105  0.6993  1.5093
   11CHL1  H23B  801   1.036   2.190   8.962  1.0200 -0.0460 -2.2165
   11CHL1   C24  802   0.949   2.291   8.778  0.3576  0.4425 -0.3096
   11CHL1  H24A  803   1.018   2.226   8.719 -0.1610  0.6937 -1.2028
   11CHL1  H24B  804   0.857   2.311   8.720  0.4963 -0.0886 -0.7312
   11CHL1   C25  805   1.015   2.430   8.796  0.1398 -0.4699  0.4136
   11CHL1   H25  806   0.954   2.499   8.859 -1.2301 -1.0598 -0.2291
   11CHL1   C26  807   1.159   2.420   8.850  0.3359  0.1338  0.2266
   11CHL1  H26A  808   1.147   2.370   8.949 -1.9085  2.3951  1.2168
   11CHL1  H26B  809   1.222   2.366   8.776  1.6066  0.0731  1.3079
   11CHL1  H26C  810   1.207   2.520   8.860  1.4707 -0.1973 -1.5420
   11CHL1   C27  811   1.026   2.496   8.658 -0.0484  0.4879 -0.0443
   11CHL1  H27A  812   1.069   2.598   8.665 -0.4962  0.6469  0.4786
   11CHL1  H27B  813   1.084   2.441   8.581 -1.2734 -0.0037 -0.6492
   11CHL1  H27C  814   0.920   2.518   8.634 -0.2644  0.5670  0.9307
   12CHL1    C3  815   3.219   5.558  10.300 -0.7501 -0.9245  0.0122
   12CHL1    H3  816   3.316   5.607  10.321 -0.7125 -0.7142 -0.6264
   12CHL1    O3  817   3.143   5.541  10.415 -0.2885 -0.0929 -0.1258
   12CHL1   H3'  818   3.092   5.621  10.428  0.1616  0.2964 -0.6912
   12CHL1    C4  819   3.133   5.638  10.197 -0.1343  0.0297  0.0964
   12CHL1   H4A  820   3.039   5.580  10.186 -0.1763  0.4985 -2.5723
   12CHL1   H4B  821   3.116   5.737  10.244  1.0379  0.4146 -0.2646
   12CHL1    C5  822   3.211   5.649  10.067  0.0665  0.0542  0.0622
   12CHL1    C6  823   3.253   5.767  10.021 -0.2829 -0.2580 -0.2404
   12CHL1    H6  824   3.224   5.861  10.070  0.0940  0.6468 -1.7172
   12CHL1    C7  825   3.336   5.782   9.897  0.6719 -0.5346  0.6520
   12CHL1   H7A  826   3.314   5.880   9.850 -0.4070 -0.6139  0.9599
   12CHL1   H7B  827   3.439   5.785   9.938  0.4935 -1.4837  1.2025
   12CHL1    C8  828   3.321   5.661   9.807 -0.2599 -0.5548 -0.2011
   12CHL1    H8  829   3.217   5.660   9.768  0.4085 -2.9173 -2.1679
   12CHL1   C14  830   3.415   5.684   9.690 -1.2527 -0.2036 -0.0479
   12CHL1   H14  831   3.516   5.674   9.735 -0.8452 -2.2363 -1.2520
   12CHL1   C15  832   3.387   5.818   9.606 -0.6604  0.2906  0.4286
   12CHL1  H15A  833   3.276   5.824   9.596 -0.8893 -3.1355 -0.4617
   12CHL1  H15B  834   3.426   5.903   9.666  0.2054  0.3190 -0.1556
   12CHL1   C16  835   3.451   5.791   9.469 -0.2641 -0.2799 -0.1080
   12CHL1  H16A  836   3.401   5.825   9.377  1.0247  0.5032 -0.5490
   12CHL1  H16B  837   3.551   5.840   9.465  0.7226 -2.2448 -0.9604
   12CHL1   C17  838   3.490   5.637   9.464  0.1196 -0.0376  0.3312
   12CHL1   H17  839   3.596   5.627   9.496  1.3991 -0.0882 -3.3946
   12CHL1   C13  840   3.411   5.576   9.581  0.3400 -0.1743  0.0648
   12CHL1   C18  841   3.261   5.551   9.535  0.7852  0.0592 -0.4962
   12CHL1  H18A  842   3.216   5.644   9.496 -1.0548 -1.0494 -1.1616
   12CHL1  H18B  843   3.245   5.475   9.454 -4.5553 -0.8711  1.0720
   12CHL1  H18C  844   3.196   5.513   9.616 -0.1135  1.0002 -0.7637
   12CHL1   C12  845   3.467   5.454   9.654 -0.6089  0.1223  0.0730
   12CHL1  H12A  846   3.458   5.365   9.588  0.4863 -0.4668  0.7078
   12CHL1  H12B  847   3.574   5.470   9.680 -0.4687 -0.3935 -0.1788
   12CHL1   C11  848   3.385   5.422   9.790  0.7682 -0.1708 -0.1794
   12CHL1  H11A  849   3.289   5.386   9.748  1.4278 -0.7110 -1.2929
   12CHL1  H11B  850   3.431   5.335   9.841 -2.1268 -1.0437  1.1489
   12CHL1    C9  851   3.361   5.540   9.888 -0.2733 -0.0169  0.0635
   12CHL1    H9  852   3.465   5.546   9.925 -0.9096 -0.4013  2.0488
   12CHL1   C10  853   3.261   5.514  10.002  0.0078  0.4672  0.2831
   12CHL1   C19  854   3.136   5.446   9.949  0.3613 -0.0854 -0.0510
   12CHL1  H19A  855   3.160   5.341   9.919  2.0391  0.5282 -1.0196
   12CHL1  H19B  856   3.064   5.426  10.030  0.7961  0.9471  0.6082
   12CHL1  H19C  857   3.080   5.493   9.865 -2.5065 -1.0053  1.2477
   12CHL1    C1  858   3.327   5.420  10.108  0.0385  0.1493 -0.6914
   12CHL1   H1A  859   3.337   5.317  10.067 -0.0972 -0.4212  0.6542
   12CHL1   H1B  860   3.427   5.459  10.135 -0.6263  0.9252  0.7459
   12CHL1    C2  861   3.246   5.415  10.241 -0.1137  0.6766  0.5200
   12CHL1   H2A  862   3.308   5.364  10.318  0.4747  0.9769  0.2456
   12CHL1   H2B  863   3.149   5.361  10.233  0.1676  0.2864 -0.3278
   12CHL1   C20  864   3.491   5.574   9.326 -0.1117  0.1263 -0.0277
   12CHL1   H20  865   3.387   5.582   9.287 -1.4616 -1.4619  2.9409
   12CHL1   C21  866   3.537   5.424   9.333  0.0985  0.4414  0.3367
   12CHL1  H21A  867   3.458   5.354   9.368  0.3945 -1.3571 -2.3492
   12CHL1  H21B  868   3.625   5.418   9.401  1.1586 -0.9547 -1.0682
   12CHL1  H21C  869   3.568   5.386   9.234 -1.9371 -1.4189  0.3389
   12CHL1   C22  870   3.590   5.648   9.230  0.6529  0.9940  0.3189
   12CHL1  H22A  871   3.570   5.757   9.231  1.8829  1.2869 -1.5688
   12CHL1  H22B  872   3.694   5.627   9.262 -0.3626 -4.3454  1.1078
   12CHL1   C23  873   3.570   5.605   9.082  0.6884  0.0713  0.2300
   12CHL1  H23A  874   3.624   5.509   9.068  3.0965  1.5962 -1.6431
   12CHL1  H23B  875   3.463   5.604   9.052  1.1815  1.0536 -1.7401
   12CHL1   C24  876   3.654   5.701   8.990 -0.5122  0.1479 -0.2136
   12CHL1  H24A  877   3.618   5.806   8.999  1.1856  0.9309 -1.6946
   12CHL1  H24B  878   3.757   5.708   9.031 -0.4993  0.6713 -0.3241
   12CHL1   C25  879   3.669   5.674   8.837  1.1205 -0.4176 -0.3269
   12CHL1   H25  880   3.579   5.700   8.778 -0.2461 -2.2264  0.8372
   12CHL1   C26  881   3.784   5.756   8.786 -0.2808 -0.0763  0.3249
   12CHL1  H26A  882   3.776   5.862   8.818 -2.0282  0.2503 -1.0640
   12CHL1  H26B  883   3.874   5.716   8.838  0.0787  1.4196  0.8883
   12CHL1  H26C  884   3.794   5.752   8.676 -2.1389  1.7530  0.0379
   12CHL1   C27  885   3.699   5.523   8.810 -0.3033 -0.4430 -0.1675
   12CHL1  H27A  886   3.733   5.514   8.705  0.3557  0.9044 -0.0930
   12CHL1  H27B  887   3.784   5.480   8.866  0.8084  1.7823 -0.0268
   12CHL1  H27C  888   3.612   5.455   8.827  1.0570 -2.0490  0.6296
   13CHL1    C3  889   1.150   0.426   9.974  0.1485 -0.3258  0.3536
   13CHL1    H3  890   1.190   0.529   9.970  2.3498 -1.1076  0.7421
   13CHL1    O3  891   1.138   0.395  10.108  0.4192  0.5733 -0.4604
   13CHL1   H3'  892   1.049   0.415  10.137  0.6958  1.9470 -0.5154
   13CHL1    C4  893   1.018   0.424   9.903  0.7776 -0.0423  0.6361
   13CHL1   H4A  894   0.978   0.321   9.911 -3.4455  1.3771  0.4344
   13CHL1   H4B  895   0.939   0.483   9.954  0.9535  0.3525  0.4559
   13CHL1    C5  896   1.024   0.469   9.759 -0.6175  0.0426  0.1731
   13CHL1    C6  897   0.957   0.581   9.718 -0.3221  0.0777  0.3664
   13CHL1    H6  898   0.903   0.641   9.793 -0.1768 -0.1328  0.6395
   13CHL1    C7  899   0.961   0.632   9.576 -0.1057  0.1292  0.2728
   13CHL1   H7A  900   0.860   0.655   9.538  0.9326  0.4934 -2.4881
   13CHL1   H7B  901   1.013   0.730   9.572  0.7149 -0.3309 -1.6249
   13CHL1    C8  902   1.016   0.526   9.476 -0.1846 -0.5306 -0.8141
   13CHL1    H8  903   0.935   0.453   9.453 -1.2191  0.5255 -0.6153
   13CHL1   C14  904   1.054   0.593   9.343 -0.6808  0.1707 -0.4740
   13CHL1   H14  905   1.147   0.651   9.362 -1.2203 -0.1265  4.3106
   13CHL1   C15  906   0.954   0.691   9.282  0.5537 -0.4522 -0.1191
   13CHL1  H15A  907   0.852   0.656   9.306  0.1265  1.7060  1.6086
   13CHL1  H15B  908   0.977   0.799   9.297  0.6113  0.0553 -3.1760
   13CHL1   C16  909   0.984   0.676   9.128  0.3443  0.0300 -0.0567
   13CHL1  H16A  910   0.904   0.612   9.085  1.0983 -2.2919  1.7606
   13CHL1  H16B  911   0.986   0.776   9.080 -0.0753 -0.2654 -0.7020
   13CHL1   C17  912   1.112   0.586   9.118 -0.3752 -0.6468 -0.6041
   13CHL1   H17  913   1.205   0.646   9.130  1.1534 -2.5421 -2.2805
   13CHL1   C13  914   1.108   0.489   9.244  0.5739 -0.4468 -0.0720
   13CHL1   C18  915   1.004   0.383   9.215  0.3758 -0.8722  0.2880
   13CHL1  H18A  916   1.028   0.306   9.139  1.1272 -2.2547  1.8613
   13CHL1  H18B  917   0.979   0.327   9.309  1.7746  2.4790  2.8645
   13CHL1  H18C  918   0.904   0.421   9.185  0.8770 -0.6007 -1.1069
   13CHL1   C12  919   1.238   0.432   9.300 -0.7413 -0.2596  0.2034
   13CHL1  H12A  920   1.296   0.365   9.233 -0.2367  0.5132 -0.1616
   13CHL1  H12B  921   1.308   0.516   9.320  0.7044 -0.8339 -2.0194
   13CHL1   C11  922   1.216   0.358   9.433  0.1642 -0.8778 -0.0513
   13CHL1  H11A  923   1.152   0.269   9.416 -2.8734  0.8163  1.5930
   13CHL1  H11B  924   1.312   0.327   9.479  0.8364  0.7459 -0.2829
   13CHL1    C9  925   1.143   0.449   9.535 -0.0843  0.3392  0.0857
   13CHL1    H9  926   1.214   0.530   9.563 -0.8745  0.5917  1.4883
   13CHL1   C10  927   1.114   0.379   9.670 -0.3219 -0.1433  0.5520
   13CHL1   C19  928   1.044   0.236   9.650  0.2310 -0.0567 -1.0749
   13CHL1  H19A  929   1.021   0.193   9.750  1.2701 -0.5256 -1.0185
   13CHL1  H19B  930   0.953   0.248   9.588 -0.4905 -1.2701 -0.3037
   13CHL1  H19C  931   1.117   0.171   9.597  2.5483  0.6493  1.0239
   13CHL1    C1  932   1.256   0.366   9.749 -0.8204  0.6417  0.2389
   13CHL1   H1A  933   1.311   0.284   9.697  1.3690  1.8574  0.5358
   13CHL1   H1B  934   1.310   0.463   9.741 -3.0803  1.8982 -0.6719
   13CHL1    C2  935   1.240   0.327   9.898 -0.1034  0.7090 -0.2566
   13CHL1   H2A  936   1.335   0.336   9.957 -1.2281 -0.4025  1.8520
   13CHL1   H2B  937   1.190   0.229   9.912 -2.6012  1.9641  0.2060
   13CHL1   C20  938   1.120   0.524   8.978 -0.1080  0.4975 -0.4561
   13CHL1   H20  939   1.039   0.450   8.964 -0.8472  0.4766  2.9277
   13CHL1   C21  940   1.242   0.431   8.967  0.4393 -0.2302  0.4219
   13CHL1  H21A  941   1.222   0.328   9.003  1.5346 -1.7672 -2.9479
   13CHL1  H21B  942   1.329   0.490   9.001  0.8529  0.6184 -1.9017
   13CHL1  H21C  943   1.262   0.419   8.858  1.5564  1.7732  0.3520
   13CHL1   C22  944   1.122   0.629   8.858 -0.5403 -0.5806 -0.1938
   13CHL1  H22A  945   1.047   0.709   8.881 -0.6890 -0.8348  0.2268
   13CHL1  H22B  946   1.217   0.684   8.877  0.1464 -1.9338  0.3953
   13CHL1   C23  947   1.096   0.575   8.717  0.1213  0.2016  0.3525
   13CHL1  H23A  948   1.115   0.664   8.653  1.3918 -0.2733  0.0319
   13CHL1  H23B  949   1.174   0.499   8.694 -0.7316 -0.4562 -0.4142
   13CHL1   C24  950   0.954   0.518   8.700 -0.6260  0.4446  0.4817
   13CHL1  H24A  951   0.935   0.429   8.764 -1.1738 -0.2865 -0.6546
   13CHL1  H24B  952   0.873   0.584   8.738 -0.5728 -0.0401  1.4690
   13CHL1   C25  953   0.923   0.488   8.553 -0.0456  0.4013 -0.2178
   13CHL1   H25  954   0.996   0.423   8.500 -0.9387  0.5907 -1.7525
   13CHL1   C26  955   0.796   0.410   8.550  0.1203  0.0887  0.7648
   13CHL1  H26A  956   0.711   0.476   8.577  1.6857  2.3108  0.5518
   13CHL1  H26B  957   0.767   0.367   8.451 -1.4040 -3.1377  2.4645
   13CHL1  H26C  958   0.784   0.328   8.624 -1.9329 -0.4725 -0.0952
   13CHL1   C27  959   0.911   0.612   8.474  0.0223 -0.6286  0.1255
   13CHL1  H27A  960   0.873   0.590   8.372 -0.5549  1.2275 -0.1118
   13CHL1  H27B  961   0.842   0.690   8.513  1.9563  1.3574 -0.2447
   13CHL1  H27C  962   1.011   0.660   8.464 -1.3520  2.3108 -0.9080
   14CHL1    C3  963   2.269   3.856  10.382  0.1467  0.3654 -0.8183
   14CHL1    H3  964   2.259   3.967  10.376  1.2150  0.6244  1.2128
   14CHL1    O3  965   2.266   3.826  10.521 -0.4110 -0.1354  0.6729
   14CHL1   H3'  966   2.174   3.836  10.548 -0.2549 -0.9123  1.5417
   14CHL1    C4  967   2.170   3.777  10.294  0.1382  0.0160  0.1277
   14CHL1   H4A  968   2.166   3.670  10.322 -0.7529 -0.3369 -1.2464
   14CHL1   H4B  969   2.074   3.812  10.338  1.0826  0.8940  1.5942
   14CHL1    C5  970   2.196   3.801  10.154 -0.3678 -0.2026 -0.2359
   14CHL1    C6  971   2.108   3.862  10.067  0.1120 -0.7503 -0.0563
   14CHL1    H6  972   2.016   3.907  10.108 -0.3976 -1.2816 -0.6108
   14CHL1    C7  973   2.127   3.880   9.916  0.3219  0.9271 -0.0975
   14CHL1   H7A  974   2.033   3.841   9.871  0.9917 -1.7452  0.5979
   14CHL1   H7B  975   2.144   3.989   9.902  2.7517  0.6707  0.4456
   14CHL1    C8  976   2.248   3.799   9.868  0.4302 -0.3032  0.0960
   14CHL1    H8  977   2.223   3.690   9.872 -0.8852 -0.0124  0.1985
   14CHL1   C14  978   2.276   3.845   9.734 -0.0239 -0.7820  0.3424
   14CHL1   H14  979   2.315   3.949   9.742  0.0630 -0.6920 -0.9347
   14CHL1   C15  980   2.153   3.867   9.633 -0.4080  0.2073  0.2553
   14CHL1  H15A  981   2.078   3.785   9.640 -1.0844  0.6916 -1.0059
   14CHL1  H15B  982   2.105   3.967   9.639  2.9934  2.0815 -1.2334
   14CHL1   C16  983   2.234   3.857   9.502 -0.5887 -0.4536  0.4286
   14CHL1  H16A  984   2.195   3.763   9.456 -1.5752 -0.3673  1.0661
   14CHL1  H16B  985   2.208   3.935   9.427  1.2170 -0.9550 -0.7947
   14CHL1   C17  986   2.384   3.846   9.526 -0.4701 -0.1858 -0.2086
   14CHL1   H17  987   2.414   3.953   9.537  0.1109 -0.1874 -1.5449
   14CHL1   C13  988   2.395   3.774   9.663 -0.5179  0.4429 -0.2405
   14CHL1   C18  989   2.363   3.623   9.644 -0.1904 -1.0134  0.3397
   14CHL1  H18A  990   2.350   3.567   9.739 -2.2806  1.2061  1.4675
   14CHL1  H18B  991   2.264   3.622   9.594 -0.1135  2.1542 -0.0419
   14CHL1  H18C  992   2.439   3.579   9.576 -0.6006  1.1017 -1.5885
   14CHL1   C12  993   2.525   3.792   9.748 -0.5237  0.4240  0.0209
   14CHL1  H12A  994   2.595   3.716   9.707 -2.3737 -1.0382 -0.5572
   14CHL1  H12B  995   2.569   3.894   9.749  0.1043  0.1612  0.6699
   14CHL1   C11  996   2.501   3.758   9.893 -0.1490  0.2365  0.5599
   14CHL1  H11A  997   2.521   3.648   9.895  1.5479  0.5148  0.8769
   14CHL1  H11B  998   2.583   3.811   9.946  2.2854 -1.2615 -1.4997
   14CHL1    C9  999   2.374   3.817   9.960  0.4953  0.4089  0.6390
   14CHL1    H9 1000   2.390   3.926   9.968  1.8325  0.1290  2.2179
   14CHL1   C10 1001   2.340   3.770  10.102  1.0638  0.5378  0.1823
   14CHL1   C19 1002   2.369   3.614  10.103 -0.2589  0.2646 -0.2522
   14CHL1  H19A 1003   2.357   3.565  10.004 -0.2592  0.3512 -0.2964
   14CHL1  H19B 1004   2.472   3.582  10.127 -0.3204 -0.0966 -0.4589
   14CHL1  H19C 1005   2.311   3.560  10.181  1.5017 -1.1059  0.1487
   14CHL1    C1 1006   2.437   3.849  10.197  0.0754  0.0527  0.0495
   14CHL1   H1A 1007   2.539   3.810  10.176 -0.8331 -2.1625 -0.6008
   14CHL1   H1B 1008   2.441   3.958  10.177  2.0883 -0.4869 -3.2479
   14CHL1    C2 1009   2.414   3.816  10.347 -0.1984 -0.2368  0.5989
   14CHL1   H2A 1010   2.494   3.867  10.406  0.5164 -1.0676  0.3741
   14CHL1   H2B 1011   2.428   3.707  10.357  1.4411 -0.1308 -0.1137
   14CHL1   C20 1012   2.470   3.799   9.409  0.4000 -0.0677 -0.2465
   14CHL1   H20 1013   2.468   3.688   9.398 -0.7356  0.0382 -1.3288
   14CHL1   C21 1014   2.619   3.850   9.433  0.0504 -0.7468  0.0533
   14CHL1  H21A 1015   2.665   3.783   9.509  0.2795 -0.7986 -0.1307
   14CHL1  H21B 1016   2.609   3.955   9.468  0.9793  0.0065 -1.8270
   14CHL1  H21C 1017   2.676   3.839   9.339  0.8376 -0.6141  0.5013
   14CHL1   C22 1018   2.419   3.867   9.284 -0.1057  0.7310 -0.1222
   14CHL1  H22A 1019   2.316   3.831   9.264  0.2710 -0.5552  0.1901
   14CHL1  H22B 1020   2.411   3.977   9.302  1.4132  0.8108  0.2037
   14CHL1   C23 1021   2.492   3.836   9.149  0.0045  0.1249  0.2976
   14CHL1  H23A 1022   2.581   3.901   9.134 -0.6084  1.2209  1.2649
   14CHL1  H23B 1023   2.527   3.731   9.147 -1.9033 -0.5513 -1.3965
   14CHL1   C24 1024   2.397   3.838   9.024 -0.4302  0.0694  0.7697
   14CHL1  H24A 1025   2.324   3.754   9.030 -1.3570  0.6346 -1.5942
   14CHL1  H24B 1026   2.337   3.932   9.024 -1.4941 -0.5832  1.3797
   14CHL1   C25 1027   2.476   3.853   8.888 -0.5029  0.3779  0.7794
   14CHL1   H25 1028   2.523   3.953   8.891  1.1997 -0.2952 -1.0313
   14CHL1   C26 1029   2.587   3.750   8.866  0.2111 -0.3433 -0.3921
   14CHL1  H26A 1030   2.607   3.740   8.757 -0.2402 -0.7239 -0.4431
   14CHL1  H26B 1031   2.680   3.785   8.916 -0.2717  1.1665 -0.5114
   14CHL1  H26C 1032   2.582   3.652   8.918 -1.3584 -0.7322 -1.2161
   14CHL1   C27 1033   2.378   3.856   8.769 -0.5852  0.5624 -0.2236
   14CHL1  H27A 1034   2.358   3.748   8.750  0.8648  0.2623 -0.1100
   14CHL1  H27B 1035   2.294   3.925   8.796 -0.8721  0.5066 -0.9427
   14CHL1  H27C 1036   2.417   3.906   8.677  0.4412 -0.1301 -0.1764
   15CHL1    C3 1037   3.354   1.838  10.072  0.2617 -0.6232 -0.5780
   15CHL1    H3 1038   3.431   1.917  10.069 -1.7969  1.4529 -1.4937
   15CHL1    O3 1039   3.302   1.829  10.201 -0.2697  0.3235 -0.3492
   15CHL1   H3' 1040   3.242   1.756  10.186 -0.5475  0.3789  0.4162
   15CHL1    C4 1041   3.237   1.865   9.984 -0.4218 -0.0687 -0.1077
   15CHL1   H4A 1042   3.156   1.792  10.004  0.5058 -0.6662  1.6199
   15CHL1   H4B 1043   3.191   1.964  10.008 -2.6109 -0.4077 -2.4446
   15CHL1    C5 1044   3.280   1.867   9.839  0.7353  0.2726 -0.0212
   15CHL1    C6 1045   3.247   1.974   9.762  0.9596 -0.1272 -0.5465
   15CHL1    H6 1046   3.195   2.062   9.803 -0.5679  0.0406 -2.6537
   15CHL1    C7 1047   3.283   1.979   9.618 -0.5876  0.7459  0.8392
   15CHL1   H7A 1048   3.197   2.020   9.560 -0.1064 -0.0207 -0.4455
   15CHL1   H7B 1049   3.381   2.032   9.616  1.0506 -2.1093  0.6002
   15CHL1    C8 1050   3.319   1.843   9.551  0.0842  0.1039 -0.4954
   15CHL1    H8 1051   3.228   1.783   9.533  0.2554 -1.1497  2.3027
   15CHL1   C14 1052   3.397   1.868   9.424 -0.1143  0.1139 -0.4467
   15CHL1   H14 1053   3.494   1.916   9.446 -0.1270 -0.2075  0.3454
   15CHL1   C15 1054   3.327   1.969   9.326  1.0661  0.0622 -0.2540
   15CHL1  H15A 1055   3.218   1.949   9.317  0.9738  0.3132  0.2561
   15CHL1  H15B 1056   3.348   2.074   9.356  0.3468 -0.3260  1.7838
   15CHL1   C16 1057   3.394   1.937   9.186 -0.1555  0.1256 -0.2235
   15CHL1  H16A 1058   3.317   1.919   9.108 -0.8304  0.5953  0.3155
   15CHL1  H16B 1059   3.458   2.024   9.157  2.0524 -0.7941  1.5832
   15CHL1   C17 1060   3.481   1.808   9.218 -0.3875  0.4458 -0.4346
   15CHL1   H17 1061   3.583   1.845   9.243  0.2502 -1.8862  0.7291
   15CHL1   C13 1062   3.438   1.741   9.353  0.2619 -0.2400  0.9146
   15CHL1   C18 1063   3.322   1.651   9.324  1.0841  0.3619 -0.2852
   15CHL1  H18A 1064   3.355   1.554   9.280  1.4385 -0.4994  1.7613
   15CHL1  H18B 1065   3.268   1.620   9.416 -3.2167  0.0281 -2.6402
   15CHL1  H18C 1066   3.249   1.712   9.265  0.2176 -0.0882  0.3030
   15CHL1   C12 1067   3.542   1.671   9.448  0.5819 -0.7711 -0.5706
   15CHL1  H12A 1068   3.596   1.578   9.417  1.0580 -0.8697  0.5100
   15CHL1  H12B 1069   3.617   1.751   9.466 -0.0773 -0.5877  1.5594
   15CHL1   C11 1070   3.485   1.648   9.586 -0.5805 -0.0834  0.3135
   15CHL1  H11A 1071   3.412   1.564   9.593  0.4663 -0.9331  1.8715
   15CHL1  H11B 1072   3.565   1.636   9.662 -1.4837 -2.0794  1.0346
   15CHL1    C9 1073   3.418   1.771   9.650  0.2553 -0.5006  0.2624
   15CHL1    H9 1074   3.500   1.846   9.659  1.3055 -1.0436 -3.3473
   15CHL1   C10 1075   3.354   1.740   9.791  0.3938 -0.6210 -0.1744
   15CHL1   C19 1076   3.241   1.634   9.780 -0.7401 -0.3758 -0.1384
   15CHL1  H19A 1077   3.299   1.541   9.763 -0.0414  0.0912 -0.3915
   15CHL1  H19B 1078   3.187   1.621   9.875 -0.0985  0.3482  0.3430
   15CHL1  H19C 1079   3.171   1.649   9.695 -0.2934  2.0804 -0.1521
   15CHL1    C1 1080   3.474   1.704   9.894 -0.2917 -0.3149 -0.8293
   15CHL1   H1A 1081   3.525   1.606   9.879  1.8702  0.3816  1.4089
   15CHL1   H1B 1082   3.548   1.787   9.887 -0.8183  0.3179  0.6865
   15CHL1    C2 1083   3.410   1.708  10.035 -1.2157  0.1602  0.9421
   15CHL1   H2A 1084   3.493   1.687  10.106  0.4369  0.0087 -0.9717
   15CHL1   H2B 1085   3.330   1.631  10.046 -1.4669  0.2611 -0.0981
   15CHL1   C20 1086   3.496   1.708   9.098 -0.6123 -0.0287  0.7692
   15CHL1   H20 1087   3.402   1.663   9.058  1.2257  0.0805 -4.3529
   15CHL1   C21 1088   3.606   1.596   9.125 -0.3969  0.9936  0.4050
   15CHL1  H21A 1089   3.604   1.517   9.047 -0.9798  1.7932 -0.4094
   15CHL1  H21B 1090   3.591   1.544   9.222  1.9241 -0.5839  0.0144
   15CHL1  H21C 1091   3.710   1.635   9.130  0.6129 -1.5209  0.3005
   15CHL1   C22 1092   3.544   1.791   8.974 -0.2892  0.7140 -0.4116
   15CHL1  H22A 1093   3.463   1.868   8.968 -0.2879  1.1443  2.9409
   15CHL1  H22B 1094   3.638   1.843   9.001  0.5661 -0.7354 -0.4816
   15CHL1   C23 1095   3.568   1.707   8.848 -0.3121  0.4004 -0.4881
   15CHL1  H23A 1096   3.646   1.629   8.856  1.6618  2.2903 -0.2062
   15CHL1  H23B 1097   3.475   1.652   8.824  0.5924 -2.3774  1.8893
   15CHL1   C24 1098   3.609   1.806   8.736  0.0211  0.4098  0.5260
   15CHL1  H24A 1099   3.541   1.894   8.737  0.2517  0.7816 -3.0700
   15CHL1  H24B 1100   3.711   1.846   8.751  0.3688 -0.4254  0.4465
   15CHL1   C25 1101   3.612   1.739   8.597  0.4406  0.3499  0.9694
   15CHL1   H25 1102   3.687   1.656   8.598  2.0332  1.7234  0.6371
   15CHL1   C26 1103   3.476   1.673   8.556  0.2056 -0.2646 -0.5267
   15CHL1  H26A 1104   3.389   1.740   8.576  0.1972 -0.1919 -0.8051
   15CHL1  H26B 1105   3.465   1.641   8.451 -2.3592 -0.9859 -0.1066
   15CHL1  H26C 1106   3.477   1.584   8.623 -0.2517 -0.1065 -0.3023
   15CHL1   C27 1107   3.628   1.836   8.485 -0.1419 -0.5984 -0.5532
   15CHL1  H27A 1108   3.622   1.783   8.388 -1.7071 -0.2482 -0.6698
   15CHL1  H27B 1109   3.549   1.914   8.491  0.1282 -0.4160  1.0109
   15CHL1  H27C 1110   3.728   1.885   8.489  0.0683 -0.8500 -2.1449
   16CHL1    C3 1111   4.282   2.250  10.167  0.4574 -0.0477  0.0444
   16CHL1    H3 1112   4.300   2.357  10.145  1.6561  0.1407  1.7659
   16CHL1    O3 1113   4.274   2.234  10.310 -0.2970 -0.1900  0.0196
   16CHL1   H3' 1114   4.361   2.203  10.335  0.6460  2.4070  0.2496
   16CHL1    C4 1115   4.149   2.210  10.096 -0.6037 -0.2123  0.3940
   16CHL1   H4A 1116   4.114   2.107  10.117 -1.6298 -0.0605 -0.4688
   16CHL1   H4B 1117   4.069   2.279  10.131 -1.5752 -0.8964 -0.4126
   16CHL1    C5 1118   4.164   2.247   9.948  0.0933 -0.1701 -0.1844
   16CHL1    C6 1119   4.072   2.329   9.883  0.3703  0.7160  0.5929
   16CHL1    H6 1120   3.992   2.367   9.948 -0.7172  0.7157 -0.7173
   16CHL1    C7 1121   4.074   2.358   9.738 -0.0343  0.4228 -0.4603
   16CHL1   H7A 1122   3.971   2.355   9.695 -0.6949  0.2406  1.0632
   16CHL1   H7B 1123   4.116   2.461   9.741  1.6148 -0.2170 -0.8279
   16CHL1    C8 1124   4.170   2.271   9.656 -0.0993 -0.2316  0.3599
   16CHL1    H8 1125   4.130   2.169   9.639  1.6110 -0.8112 -0.4582
   16CHL1   C14 1126   4.192   2.324   9.511 -0.4036  0.1195 -0.7357
   16CHL1   H14 1127   4.253   2.414   9.532  0.7575 -1.4818  4.0940
   16CHL1   C15 1128   4.068   2.367   9.424 -1.0432 -0.0519 -0.0864
   16CHL1  H15A 1129   4.001   2.278   9.430  0.8203 -1.4192  1.9493
   16CHL1  H15B 1130   4.024   2.464   9.455 -1.2186 -0.2424  0.2570
   16CHL1   C16 1131   4.132   2.373   9.286 -0.5052 -0.3976  0.0453
   16CHL1  H16A 1132   4.071   2.302   9.227 -1.6437  1.0765 -0.5943
   16CHL1  H16B 1133   4.131   2.475   9.242  0.2409 -0.4995 -0.2351
   16CHL1   C17 1134   4.284   2.329   9.291  0.2948  0.1484 -0.4481
   16CHL1   H17 1135   4.358   2.411   9.305  0.2309  0.4357 -1.6940
   16CHL1   C13 1136   4.292   2.247   9.422  0.0899  0.4489  0.5035
   16CHL1   C18 1137   4.259   2.095   9.395  0.0016 -0.1152  0.2557
   16CHL1  H18A 1138   4.254   2.025   9.481  2.7052  1.2905  1.7103
   16CHL1  H18B 1139   4.154   2.091   9.361  0.0339  0.7589  0.0282
   16CHL1  H18C 1140   4.330   2.058   9.317 -1.0563  0.6842 -1.1344
   16CHL1   C12 1141   4.432   2.247   9.501  0.2389 -0.7035  0.1749
   16CHL1  H12A 1142   4.506   2.197   9.436 -2.1888 -0.8620 -2.6881
   16CHL1  H12B 1143   4.469   2.351   9.514  0.7426 -1.0178  1.3459
   16CHL1   C11 1144   4.420   2.184   9.643 -0.8141  0.4421  0.4320
   16CHL1  H11A 1145   4.397   2.076   9.636 -1.7339  0.4251  2.6838
   16CHL1  H11B 1146   4.514   2.198   9.700 -0.2172  1.0142 -0.6774
   16CHL1    C9 1147   4.308   2.249   9.731  0.4667 -0.3965  0.6148
   16CHL1    H9 1148   4.350   2.351   9.743  0.5238 -0.4091  0.5213
   16CHL1   C10 1149   4.286   2.186   9.879 -0.7620  0.3225 -0.0690
   16CHL1   C19 1150   4.268   2.028   9.863  0.1103 -0.5227  0.3732
   16CHL1  H19A 1151   4.255   1.976   9.960  0.8835 -1.1781  0.1349
   16CHL1  H19B 1152   4.183   2.012   9.793  0.3907  1.3478 -0.4474
   16CHL1  H19C 1153   4.358   1.986   9.815  1.5195  2.3125  0.3319
   16CHL1    C1 1154   4.409   2.215   9.965 -0.2775  0.1273  0.3953
   16CHL1   H1A 1155   4.499   2.168   9.920 -0.0872  1.2711 -0.4811
   16CHL1   H1B 1156   4.424   2.325   9.961  1.2807 -0.0950 -2.1843
   16CHL1    C2 1157   4.398   2.173  10.110 -0.2672 -0.7935  0.4428
   16CHL1   H2A 1158   4.492   2.210  10.155 -0.1951  0.4828 -0.7004
   16CHL1   H2B 1159   4.363   2.068  10.122 -0.8498 -0.7308 -0.5738
   16CHL1   C20 1160   4.332   2.256   9.160 -0.5001  0.3359  0.0444
   16CHL1   H20 1161   4.291   2.155   9.144 -1.3857  0.1758  2.7596
   16CHL1   C21 1162   4.485   2.243   9.170  0.1369 -0.6925  0.0319
   16CHL1  H21A 1163   4.527   2.160   9.232  2.3862 -0.5881 -1.2486
   16CHL1  H21B 1164   4.535   2.338   9.198  0.5676 -0.4901 -1.3614
   16CHL1  H21C 1165   4.531   2.210   9.075 -0.5650  0.1037 -0.5899
   16CHL1   C22 1166   4.299   2.349   9.036  0.1760 -0.5569 -0.2969
   16CHL1  H22A 1167   4.188   2.358   9.035  0.1919 -0.0471 -2.0144
   16CHL1  H22B 1168   4.344   2.449   9.055  0.8422 -0.7887 -0.6268
   16CHL1   C23 1169   4.338   2.288   8.898  0.1732 -0.1631  0.2610
   16CHL1  H23A 1170   4.443   2.252   8.896 -0.0328 -0.7859 -1.3529
   16CHL1  H23B 1171   4.278   2.194   8.894  0.6452 -0.5709  2.0241
   16CHL1   C24 1172   4.330   2.387   8.774 -0.3953 -0.2149 -0.2973
   16CHL1  H24A 1173   4.240   2.453   8.782  1.0366  1.5964  3.1896
   16CHL1  H24B 1174   4.405   2.468   8.785  1.0620 -1.1423 -2.5630
   16CHL1   C25 1175   4.354   2.326   8.634 -0.8330  0.4805  0.3553
   16CHL1   H25 1176   4.437   2.252   8.645 -2.4179 -1.1968  1.8983
   16CHL1   C26 1177   4.232   2.255   8.572 -0.1397  0.1465 -0.2070
   16CHL1  H26A 1178   4.175   2.187   8.638 -1.9263  1.4084 -0.3824
   16CHL1  H26B 1179   4.161   2.338   8.552 -0.7159  0.1334  1.6481
   16CHL1  H26C 1180   4.260   2.204   8.477  0.0473 -0.7115  0.2968
   16CHL1   C27 1181   4.383   2.443   8.537  1.2543 -0.0855  0.4601
   16CHL1  H27A 1182   4.305   2.522   8.541 -0.4303 -1.6829  0.5573
   16CHL1  H27B 1183   4.477   2.493   8.569  0.3552  1.5569  0.6559
   16CHL1  H27C 1184   4.386   2.401   8.435  1.6448 -2.0597  1.2417
   17CHL1    C3 1185   4.975   5.315  10.291  0.1959 -0.4106 -0.5270
   17CHL1    H3 1186   4.917   5.409  10.295  1.7492  0.5498  1.6022
   17CHL1    O3 1187   4.977   5.250  10.418 -0.1146  0.0854  0.0210
   17CHL1   H3' 1188   4.899   5.195  10.429  0.9768 -1.0900  3.3098
   17CHL1    C4 1189   4.908   5.221  10.191  0.6663  0.5533  0.0495
   17CHL1   H4A 1190   4.935   5.114  10.197 -0.7002  0.2031  0.3471
   17CHL1   H4B 1191   4.798   5.215  10.209  0.5712 -1.6225 -0.9263
   17CHL1    C5 1192   4.922   5.274  10.041  0.4153  0.9093 -0.0545
   17CHL1    C6 1193   4.817   5.279   9.958  0.2869 -1.3824 -1.0514
   17CHL1    H6 1194   4.723   5.245  10.004 -0.4147  2.4404  0.8005
   17CHL1    C7 1195   4.821   5.322   9.818 -0.1674  0.0877 -0.8502
   17CHL1   H7A 1196   4.758   5.255   9.756  0.0088  0.3356 -1.3006
   17CHL1   H7B 1197   4.763   5.417   9.818  0.8131  0.7129  0.3760
   17CHL1    C8 1198   4.963   5.332   9.762 -0.1884 -0.1965 -0.6933
   17CHL1    H8 1199   5.001   5.233   9.730 -1.6669 -0.6214 -1.1851
   17CHL1   C14 1200   4.952   5.428   9.647 -0.6074 -0.6236  0.7028
   17CHL1   H14 1201   4.933   5.524   9.701  0.9083  0.6052 -0.8290
   17CHL1   C15 1202   4.846   5.412   9.542  0.0458  0.3450 -0.0323
   17CHL1  H15A 1203   4.830   5.305   9.513 -1.4082 -0.3625  2.9593
   17CHL1  H15B 1204   4.745   5.445   9.575  0.5727 -0.1307  2.1962
   17CHL1   C16 1205   4.896   5.498   9.413  0.3570 -0.5238 -0.0047
   17CHL1  H16A 1206   4.898   5.433   9.322 -1.8825 -6.2251  3.4230
   17CHL1  H16B 1207   4.823   5.580   9.398  0.2952 -0.2721  1.4863
   17CHL1   C17 1208   5.032   5.557   9.454 -0.1684  0.1842  0.0163
   17CHL1   H17 1209   5.007   5.648   9.513 -3.2064  0.5400 -1.6593
   17CHL1   C13 1210   5.082   5.451   9.566  0.1186 -0.0519 -0.2231
   17CHL1   C18 1211   5.131   5.316   9.497  0.2971 -0.2553  0.5724
   17CHL1  H18A 1212   5.163   5.249   9.579 -0.2963  1.4222  2.2301
   17CHL1  H18B 1213   5.047   5.268   9.442  2.0002 -1.7985 -0.8201
   17CHL1  H18C 1214   5.219   5.339   9.432  0.8350 -0.4647  1.2191
   17CHL1   C12 1215   5.186   5.503   9.676 -0.0428  0.3410  0.5752
   17CHL1  H12A 1216   5.284   5.526   9.630 -0.2599  0.2469  0.0539
   17CHL1  H12B 1217   5.132   5.595   9.705 -0.1667  1.6094 -3.1646
   17CHL1   C11 1218   5.203   5.417   9.796  0.4688  0.3575  0.4658
   17CHL1  H11A 1219   5.244   5.317   9.770  0.2106  0.7976 -1.7708
   17CHL1  H11B 1220   5.285   5.460   9.857  1.5016  1.6041 -1.6836
   17CHL1    C9 1221   5.065   5.395   9.869 -0.4716 -0.0897 -0.4865
   17CHL1    H9 1222   5.037   5.501   9.890 -0.4401 -0.2164  0.2105
   17CHL1   C10 1223   5.061   5.325  10.006  0.0244 -0.2268 -0.2936
   17CHL1   C19 1224   5.134   5.189   9.980  0.4987  0.7591 -0.3375
   17CHL1  H19A 1225   5.092   5.128   9.897 -2.0459 -0.3607  1.6083
   17CHL1  H19B 1226   5.242   5.197   9.957  0.7508  0.4057  0.6768
   17CHL1  H19C 1227   5.122   5.121  10.068 -1.4897 -0.8112 -1.7160
   17CHL1    C1 1228   5.140   5.405  10.112 -0.3544  0.2606  0.2322
   17CHL1   H1A 1229   5.246   5.409  10.079 -0.4022 -1.2352 -0.1909
   17CHL1   H1B 1230   5.102   5.509  10.120  1.0134  0.7852  0.2343
   17CHL1    C2 1231   5.124   5.343  10.253 -0.7402  0.0595  0.2789
   17CHL1   H2A 1232   5.180   5.411  10.321 -0.6549  1.5470 -1.2099
   17CHL1   H2B 1233   5.186   5.251  10.256  0.1863  0.7018  2.1858
   17CHL1   C20 1234   5.128   5.592   9.340 -0.1956 -0.2013  0.0036
   17CHL1   H20 1235   5.193   5.505   9.315 -2.2647 -1.2279 -2.1396
   17CHL1   C21 1236   5.209   5.706   9.402 -0.0908 -0.1759 -0.3928
   17CHL1  H21A 1237   5.167   5.808   9.390  2.1348  1.3112  2.9225
   17CHL1  H21B 1238   5.311   5.722   9.361  0.9580 -1.1540  1.6875
   17CHL1  H21C 1239   5.230   5.692   9.510 -3.4968  1.7820  0.6873
   17CHL1   C22 1240   5.055   5.646   9.213 -0.2005  0.1809  0.6233
   17CHL1  H22A 1241   4.985   5.565   9.184  1.0947 -0.9650  0.6092
   17CHL1  H22B 1242   5.004   5.737   9.252 -0.4073  0.0827  0.5878
   17CHL1   C23 1243   5.158   5.681   9.103 -0.0978 -0.3317  0.5805
   17CHL1  H23A 1244   5.204   5.781   9.118  1.7407 -1.1027  0.3216
   17CHL1  H23B 1245   5.237   5.604   9.094  0.6327  0.6326 -2.3293
   17CHL1   C24 1246   5.075   5.680   8.973  0.6302  0.0437  0.5651
   17CHL1  H24A 1247   5.042   5.576   8.950  0.0674  0.3582 -0.0714
   17CHL1  H24B 1248   4.979   5.734   8.986 -0.7611 -1.7373 -1.5928
   17CHL1   C25 1249   5.136   5.744   8.845 -0.6927  0.0851  0.8654
   17CHL1   H25 1250   5.245   5.723   8.845 -0.7974 -0.5051 -0.0040
   17CHL1   C26 1251   5.074   5.681   8.717 -0.1038  0.3872  0.4482
   17CHL1  H26A 1252   5.095   5.574   8.697 -2.4805  0.2869 -2.3032
   17CHL1  H26B 1253   4.965   5.703   8.706 -0.3277 -0.6406  0.5501
   17CHL1  H26C 1254   5.116   5.733   8.628 -4.0017  1.9119 -0.7215
   17CHL1   C27 1255   5.124   5.895   8.843 -0.5203 -0.3373 -0.5921
   17CHL1  H27A 1256   5.142   5.929   8.947 -2.8058 -1.4634  0.2558
   17CHL1  H27B 1257   5.191   5.938   8.766  2.0149 -2.2135  0.4429
   17CHL1  H27C 1258   5.021   5.923   8.813  0.2177  0.2820 -2.7370
   18CHL1    C3 1259   5.391   4.267  10.090  0.0919  0.1338  0.0244
   18CHL1    H3 1260   5.379   4.368  10.045  3.7272  0.1931 -1.1677
   18CHL1    O3 1261   5.370   4.286  10.234 -0.6353  0.3643 -0.4092
   18CHL1   H3' 1262   5.328   4.205  10.264  1.0398 -0.3738  0.0763
   18CHL1    C4 1263   5.271   4.189  10.038  0.3490  0.2996 -0.5551
   18CHL1   H4A 1264   5.262   4.095  10.097  2.2098  0.9458  0.8403
   18CHL1   H4B 1265   5.180   4.243  10.073  0.9854  0.4844  0.9015
   18CHL1    C5 1266   5.289   4.173   9.886  0.0734 -0.4676  0.1873
   18CHL1    C6 1267   5.192   4.230   9.805 -0.5125  0.0232  0.0985
   18CHL1    H6 1268   5.101   4.276   9.847 -0.9038 -1.9754  1.5848
   18CHL1    C7 1269   5.190   4.210   9.654  0.7317 -0.1836 -0.6825
   18CHL1   H7A 1270   5.089   4.186   9.615  0.3757  0.1793 -0.0105
   18CHL1   H7B 1271   5.221   4.308   9.611  0.6297  0.6129  0.9690
   18CHL1    C8 1272   5.288   4.096   9.600 -0.2004 -0.2276  0.4834
   18CHL1    H8 1273   5.241   3.997   9.622  0.4663 -0.2557  1.8312
   18CHL1   C14 1274   5.310   4.127   9.452  0.2562  0.3038 -0.6818
   18CHL1   H14 1275   5.368   4.222   9.442  0.7442  0.4600  2.4125
   18CHL1   C15 1276   5.190   4.120   9.359 -0.6605 -0.1130 -0.0027
   18CHL1  H15A 1277   5.120   4.039   9.387 -3.0259  2.0848  0.7465
   18CHL1  H15B 1278   5.133   4.215   9.351 -1.4312 -0.5540  0.1642
   18CHL1   C16 1279   5.248   4.086   9.222 -0.2141 -0.5765  0.0952
   18CHL1  H16A 1280   5.187   4.004   9.178  0.6638 -1.8657  1.1509
   18CHL1  H16B 1281   5.245   4.180   9.164  0.2454  1.2820  2.9163
   18CHL1   C17 1282   5.397   4.058   9.246 -0.5754  0.0993  0.3459
   18CHL1   H17 1283   5.456   4.151   9.234  1.4023 -1.1432  0.0254
   18CHL1   C13 1284   5.408   4.020   9.392  0.1092  0.2439  0.1986
   18CHL1   C18 1285   5.349   3.873   9.412  0.1648 -0.2038  0.0748
   18CHL1  H18A 1286   5.353   3.845   9.519  0.9030  1.3471  0.4719
   18CHL1  H18B 1287   5.245   3.863   9.376 -0.4556  0.6944  1.5605
   18CHL1  H18C 1288   5.412   3.796   9.361  0.4455  0.6368 -0.8774
   18CHL1   C12 1289   5.544   4.044   9.464 -0.9239  0.1225 -0.1686
   18CHL1  H12A 1290   5.619   3.969   9.432 -0.3136  0.4779  0.3964
   18CHL1  H12B 1291   5.592   4.142   9.443  1.2841 -0.8758 -0.0646
   18CHL1   C11 1292   5.535   4.022   9.618  0.1478  0.0925  0.1283
   18CHL1  H11A 1293   5.511   3.915   9.634  2.3962 -0.9736 -2.6451
   18CHL1  H11B 1294   5.628   4.037   9.677 -1.3323 -3.8708  4.0556
   18CHL1    C9 1295   5.426   4.111   9.678 -0.3116 -0.2783  0.7478
   18CHL1    H9 1296   5.469   4.210   9.651  1.4534 -1.0882  0.4298
   18CHL1   C10 1297   5.410   4.104   9.836 -0.3475 -0.4357  0.9835
   18CHL1   C19 1298   5.396   3.956   9.867 -0.2049  0.4166  0.2122
   18CHL1  H19A 1299   5.314   3.910   9.808  1.1060 -0.1744 -1.2209
   18CHL1  H19B 1300   5.489   3.900   9.845 -0.3920  0.7444 -1.5684
   18CHL1  H19C 1301   5.371   3.939   9.974  0.3601  1.8562  0.5985
   18CHL1    C1 1302   5.540   4.173   9.905 -0.2079 -0.2988 -0.5682
   18CHL1   H1A 1303   5.628   4.110   9.882 -0.4487  0.0335 -2.6627
   18CHL1   H1B 1304   5.551   4.271   9.854  3.1974 -0.1286  0.2971
   18CHL1    C2 1305   5.526   4.202  10.058 -0.1167  0.5383 -0.2330
   18CHL1   H2A 1306   5.610   4.270  10.081 -0.1433  0.9329 -1.2706
   18CHL1   H2B 1307   5.536   4.108  10.117  1.4735  0.2216 -0.9516
   18CHL1   C20 1308   5.457   3.970   9.134 -0.0945 -0.0652 -0.0704
   18CHL1   H20 1309   5.436   3.861   9.136  0.8484 -0.2646 -0.4069
   18CHL1   C21 1310   5.613   3.998   9.135 -1.2734 -0.2654 -0.1464
   18CHL1  H21A 1311   5.669   3.953   9.220  0.2184  0.3729 -0.7531
   18CHL1  H21B 1312   5.641   4.105   9.132  1.1097 -0.8386 -0.9917
   18CHL1  H21C 1313   5.666   3.954   9.048 -0.2167 -1.4737  1.0477
   18CHL1   C22 1314   5.408   4.011   8.994  0.4178 -0.8289  0.1878
   18CHL1  H22A 1315   5.300   4.038   8.991  0.6253  0.0376  0.2044
   18CHL1  H22B 1316   5.461   4.105   8.969 -1.5734  0.1310 -0.5863
   18CHL1   C23 1317   5.425   3.902   8.880  0.3609 -0.2503 -0.1470
   18CHL1  H23A 1318   5.524   3.854   8.873  0.0617 -0.7071 -1.4005
   18CHL1  H23B 1319   5.358   3.819   8.913 -0.3654  0.1394 -0.6073
   18CHL1   C24 1320   5.376   3.941   8.740  0.9718 -0.9554 -0.0882
   18CHL1  H24A 1321   5.278   3.991   8.755  0.9150 -0.4332 -1.9592
   18CHL1  H24B 1322   5.446   4.017   8.700 -0.2812  1.3102  1.7640
   18CHL1   C25 1323   5.358   3.842   8.620 -0.9128  0.4400  0.8086
   18CHL1   H25 1324   5.294   3.759   8.655 -1.7177  1.5474  2.1001
   18CHL1   C26 1325   5.296   3.909   8.495  1.0493  0.0114 -0.7533
   18CHL1  H26A 1326   5.188   3.915   8.523  1.5138  2.8809  0.8431
   18CHL1  H26B 1327   5.336   4.012   8.482 -0.4551  1.0316  1.8416
   18CHL1  H26C 1328   5.312   3.848   8.404 -1.5526 -2.3123  0.1880
   18CHL1   C27 1329   5.500   3.798   8.577 -0.8068 -0.0936  0.1216
   18CHL1  H27A 1330   5.513   3.709   8.511  1.9008  0.4834 -0.2249
   18CHL1  H27B 1331   5.559   3.876   8.526  0.8210 -0.6127  1.1348
   18CHL1  H27C 1332   5.563   3.779   8.667 -0.0352 -0.3431 -0.4615
   19CHL1    C3 1333   2.550   1.376  10.013  0.3722  0.4638 -0.5090
   19CHL1    H3 1334   2.440   1.363  10.012  0.1363  2.1214 -2.4274
   19CHL1    O3 1335   2.613   1.340  10.136 -0.5615  0.1573 -0.0933
   19CHL1   H3' 1336   2.545   1.295  10.187 -0.8423 -0.8762 -1.3499
   19CHL1    C4 1337   2.598   1.267   9.908  0.0122 -0.0702 -0.4533
   19CHL1   H4A 1338   2.708   1.281   9.905  0.1935  0.1961  3.0925
   19CHL1   H4B 1339   2.580   1.167   9.954 -0.7251  1.0247  1.8002
   19CHL1    C5 1340   2.529   1.297   9.777  0.8578 -0.0133 -0.6635
   19CHL1    C6 1341   2.457   1.205   9.710  0.5429  0.0760 -0.0750
   19CHL1    H6 1342   2.441   1.100   9.741  3.1567 -0.3589  0.0491
   19CHL1    C7 1343   2.386   1.225   9.582  0.2996 -0.5549 -0.6174
   19CHL1   H7A 1344   2.393   1.133   9.520 -1.5705 -1.9112  1.0266
   19CHL1   H7B 1345   2.275   1.234   9.593  0.4692  0.8665  0.1266
   19CHL1    C8 1346   2.457   1.342   9.507 -0.1310 -0.0255  0.5946
   19CHL1    H8 1347   2.555   1.310   9.466 -0.0653  2.6636 -1.6292
   19CHL1   C14 1348   2.376   1.372   9.385  0.3076  0.6667  0.5830
   19CHL1   H14 1349   2.275   1.399   9.423 -0.1396 -2.6917  2.1611
   19CHL1   C15 1350   2.361   1.257   9.287  0.1003  0.0479  0.1046
   19CHL1  H15A 1351   2.454   1.205   9.254  0.4249  1.1569 -0.7862
   19CHL1  H15B 1352   2.299   1.173   9.324 -0.7136  1.4114  1.9417
   19CHL1   C16 1353   2.310   1.326   9.160  0.2824  0.6692 -0.3900
   19CHL1  H16A 1354   2.371   1.287   9.076  0.5404 -0.0523  0.1241
   19CHL1  H16B 1355   2.208   1.307   9.120  1.1445 -2.3270 -1.4117
   19CHL1   C17 1356   2.337   1.480   9.180 -0.6269  0.1655  0.2590
   19CHL1   H17 1357   2.236   1.519   9.206 -1.1206  1.0141 -2.6373
   19CHL1   C13 1358   2.433   1.491   9.301  0.3551  0.3797  0.2622
   19CHL1   C18 1359   2.576   1.463   9.245  0.2135  0.0699  0.3544
   19CHL1  H18A 1360   2.575   1.402   9.152 -0.6336  1.1038 -0.3385
   19CHL1  H18B 1361   2.620   1.559   9.211 -0.2451  0.4958  0.9427
   19CHL1  H18C 1362   2.640   1.418   9.324  0.9768 -0.4260 -0.5159
   19CHL1   C12 1363   2.431   1.613   9.390  0.1434  0.4402  0.9149
   19CHL1  H12A 1364   2.473   1.702   9.338 -0.7216  0.5001  0.2739
   19CHL1  H12B 1365   2.324   1.634   9.414 -1.1711 -0.8669 -2.9637
   19CHL1   C11 1366   2.518   1.597   9.515 -0.0589  0.3732  0.2445
   19CHL1  H11A 1367   2.621   1.573   9.482  0.2176  0.2034  1.1993
   19CHL1  H11B 1368   2.520   1.695   9.567  1.1508  0.8983 -0.7455
   19CHL1    C9 1369   2.471   1.468   9.600  0.2826  0.0099 -1.0281
   19CHL1    H9 1370   2.368   1.500   9.625 -0.0283 -0.3461 -1.8443
   19CHL1   C10 1371   2.554   1.440   9.732  0.2191 -0.0514  0.4741
   19CHL1   C19 1372   2.697   1.442   9.688 -0.4280 -1.2358  0.2399
   19CHL1  H19A 1373   2.760   1.403   9.771 -0.8710 -1.8900  0.2660
   19CHL1  H19B 1374   2.720   1.369   9.607  1.7516 -0.1239 -0.2359
   19CHL1  H19C 1375   2.739   1.543   9.667  0.7336 -1.3414  1.8212
   19CHL1    C1 1376   2.519   1.549   9.836 -0.2528  0.0239  0.4969
   19CHL1   H1A 1377   2.543   1.651   9.799  2.8565  0.2987  2.9186
   19CHL1   H1B 1378   2.408   1.556   9.847 -0.3039 -1.1768  0.8555
   19CHL1    C2 1379   2.586   1.521   9.972  0.1139  0.0216 -0.6650
   19CHL1   H2A 1380   2.541   1.589  10.048 -0.1631  0.5699 -1.3094
   19CHL1   H2B 1381   2.697   1.527   9.967  0.2728 -2.6355 -1.4122
   19CHL1   C20 1382   2.374   1.554   9.048 -0.2493 -0.3737 -0.0291
   19CHL1   H20 1383   2.461   1.500   9.004  1.6856 -0.1918  3.2556
   19CHL1   C21 1384   2.417   1.697   9.067 -0.3097 -0.1458 -0.2237
   19CHL1  H21A 1385   2.442   1.734   8.965 -1.2491  0.4440 -0.2552
   19CHL1  H21B 1386   2.507   1.708   9.132 -0.2342 -0.6325 -0.2473
   19CHL1  H21C 1387   2.342   1.773   9.096  0.1818  0.0866  0.4714
   19CHL1   C22 1388   2.258   1.555   8.944  0.2052 -0.0858 -0.3743
   19CHL1  H22A 1389   2.197   1.462   8.946  1.0439 -0.6286  0.1932
   19CHL1  H22B 1390   2.198   1.647   8.960  1.6667  0.9806 -0.7854
   19CHL1   C23 1391   2.300   1.581   8.800 -0.2983  1.0469  0.1264
   19CHL1  H23A 1392   2.373   1.665   8.794 -0.1391  0.9248  0.3495
   19CHL1  H23B 1393   2.353   1.485   8.777 -0.7879  0.7054  0.4147
   19CHL1   C24 1394   2.179   1.598   8.704  0.3466 -0.4061  0.2110
   19CHL1  H24A 1395   2.114   1.508   8.705  0.6490 -0.8124 -3.4111
   19CHL1  H24B 1396   2.128   1.691   8.737  0.9251  0.9860 -2.4985
   19CHL1   C25 1397   2.210   1.607   8.557 -0.2490 -0.8343  0.2890
   19CHL1   H25 1398   2.292   1.682   8.547 -1.9940  1.0048 -1.4542
   19CHL1   C26 1399   2.244   1.472   8.501  0.4581 -0.0472  0.6863
   19CHL1  H26A 1400   2.241   1.474   8.390  1.0433 -1.3248  0.6258
   19CHL1  H26B 1401   2.348   1.444   8.529  0.7587 -0.2550 -0.6089
   19CHL1  H26C 1402   2.177   1.390   8.534 -1.2683  0.0201 -2.3611
   19CHL1   C27 1403   2.095   1.676   8.476  0.6875  0.0897 -0.4917
   19CHL1  H27A 1404   2.093   1.782   8.507 -0.3856  0.1644 -0.7795
   19CHL1  H27B 1405   2.121   1.677   8.367  2.4767 -0.4015 -0.1049
   19CHL1  H27C 1406   1.998   1.623   8.488  0.5313  0.7615  1.6061
   20CHL1    C3 1407   4.658   2.481  10.404 -0.4546 -0.2232  0.5039
   20CHL1    H3 1408   4.568   2.419  10.386  0.0938 -0.4700 -1.7773
   20CHL1    O3 1409   4.661   2.536  10.531  0.3346 -0.3886  0.0373
   20CHL1   H3' 1410   4.751   2.568  10.536  0.1223  0.0659  1.1239
   20CHL1    C4 1411   4.772   2.384  10.380  0.1223  0.4266 -0.1867
   20CHL1   H4A 1412   4.867   2.431  10.413 -0.3049  0.0581  1.7097
   20CHL1   H4B 1413   4.749   2.306  10.456 -1.0925  0.2502 -0.7133
   20CHL1    C5 1414   4.794   2.322  10.243 -0.3303  0.3837  0.4639
   20CHL1    C6 1415   4.785   2.190  10.214  0.4205  0.5875  0.0290
   20CHL1    H6 1416   4.767   2.115  10.293  0.2629 -1.3456 -1.7697
   20CHL1    C7 1417   4.805   2.141  10.072 -0.5387  0.3231  0.4948
   20CHL1   H7A 1418   4.871   2.052  10.079 -0.9871 -0.1603 -1.0404
   20CHL1   H7B 1419   4.709   2.111  10.025 -0.7989 -0.0627  1.2550
   20CHL1    C8 1420   4.856   2.246   9.973 -0.0354  0.1081  0.0119
   20CHL1    H8 1421   4.965   2.263   9.988  0.6217 -0.4553 -3.4063
   20CHL1   C14 1422   4.829   2.196   9.826  0.5338 -0.7649  0.4651
   20CHL1   H14 1423   4.719   2.183   9.822  0.4742  0.0979 -1.4428
   20CHL1   C15 1424   4.898   2.068   9.789  0.7116  0.5964 -0.1496
   20CHL1  H15A 1425   5.008   2.063   9.797  0.7983  0.1973 -1.4600
   20CHL1  H15B 1426   4.855   1.973   9.829  0.5083  0.2308 -1.1955
   20CHL1   C16 1427   4.873   2.065   9.637  0.3061  0.0756  0.5634
   20CHL1  H16A 1428   4.963   2.026   9.584  2.5947  2.5732  2.3290
   20CHL1  H16B 1429   4.792   1.998   9.602 -0.9288  0.4863  2.5345
   20CHL1   C17 1430   4.825   2.208   9.592 -0.3038 -0.0342  0.0125
   20CHL1   H17 1431   4.714   2.223   9.592 -0.1666  1.0632  0.3589
   20CHL1   C13 1432   4.860   2.294   9.719  0.2209 -0.3574 -0.9073
   20CHL1   C18 1433   5.006   2.347   9.708 -0.3614 -0.2220 -0.4893
   20CHL1  H18A 1434   5.077   2.263   9.698  1.0167  0.7001  0.9922
   20CHL1  H18B 1435   5.019   2.412   9.619  1.0789  0.3652  0.0963
   20CHL1  H18C 1436   5.032   2.403   9.801 -0.3585  1.9197 -1.7092
   20CHL1   C12 1437   4.770   2.419   9.748 -0.2103 -0.4766 -0.3751
   20CHL1  H12A 1438   4.784   2.498   9.672 -0.5652  0.4245  0.4734
   20CHL1  H12B 1439   4.665   2.381   9.744 -0.2002 -0.5696  0.1557
   20CHL1   C11 1440   4.798   2.483   9.888 -0.1039  0.0334  0.1979
   20CHL1  H11A 1441   4.895   2.537   9.882 -1.6282  3.2295  1.6144
   20CHL1  H11B 1442   4.715   2.556   9.891 -1.8658 -1.8672 -0.0074
   20CHL1    C9 1443   4.778   2.381   9.995  0.1632  0.3976  1.0379
   20CHL1    H9 1444   4.675   2.342   9.987  1.1322 -2.5272  1.2892
   20CHL1   C10 1445   4.798   2.433  10.134  0.0158 -0.4005 -0.2800
   20CHL1   C19 1446   4.941   2.499  10.147  0.0919  1.1837  0.2613
   20CHL1  H19A 1447   5.018   2.432  10.102  0.8217  1.4100  1.1396
   20CHL1  H19B 1448   4.938   2.597  10.097 -1.2549  0.7983 -0.4677
   20CHL1  H19C 1449   4.967   2.520  10.253 -2.9049  0.9081  1.1364
   20CHL1    C1 1450   4.693   2.545  10.162  0.5347  0.6599 -0.6062
   20CHL1   H1A 1451   4.703   2.633  10.095  0.2483 -0.1862 -1.7912
   20CHL1   H1B 1452   4.600   2.497  10.124  0.5829  1.0865 -1.2835
   20CHL1    C2 1453   4.669   2.594  10.306 -0.4438  0.1869 -0.0483
   20CHL1   H2A 1454   4.580   2.660  10.315 -1.3758 -0.8092 -1.4282
   20CHL1   H2B 1455   4.758   2.652  10.337 -0.5064 -1.0471  2.6508
   20CHL1   C20 1456   4.867   2.250   9.452  0.0813 -0.5808  0.7161
   20CHL1   H20 1457   4.968   2.295   9.459 -0.6488  1.4540 -0.8924
   20CHL1   C21 1458   4.788   2.376   9.409 -0.1376  0.0476  0.8503
   20CHL1  H21A 1459   4.804   2.460   9.479  0.5495  0.1049  0.6278
   20CHL1  H21B 1460   4.678   2.359   9.409 -0.0595 -0.5016  1.1523
   20CHL1  H21C 1461   4.819   2.419   9.311 -1.1518 -3.2855 -1.1183
   20CHL1   C22 1462   4.866   2.148   9.333 -0.4905 -0.4250  0.1066
   20CHL1  H22A 1463   4.943   2.069   9.344  1.0351  1.2438  2.3687
   20CHL1  H22B 1464   4.768   2.095   9.341 -1.1247  0.9559  2.6644
   20CHL1   C23 1465   4.904   2.202   9.197  0.0023  0.2718 -0.5872
   20CHL1  H23A 1466   4.822   2.267   9.160  1.2825  2.2793 -0.0667
   20CHL1  H23B 1467   4.991   2.271   9.201  0.5169 -0.4080  0.0972
   20CHL1   C24 1468   4.924   2.084   9.096 -0.3185  0.0439  0.5238
   20CHL1  H24A 1469   5.016   2.029   9.122 -0.2201 -0.2829 -0.4478
   20CHL1  H24B 1470   4.837   2.015   9.090  0.9023 -1.4759 -0.4230
   20CHL1   C25 1471   4.959   2.132   8.949  1.1607 -0.3102  0.1774
   20CHL1   H25 1472   5.044   2.204   8.957  0.5561  0.3362  0.9220
   20CHL1   C26 1473   4.997   2.020   8.847 -0.0122  0.0014 -0.7311
   20CHL1  H26A 1474   4.904   1.967   8.818 -1.1024  1.6132 -0.3266
   20CHL1  H26B 1475   5.050   2.067   8.761  0.5447  1.1757  0.2164
   20CHL1  H26C 1476   5.078   1.964   8.898  0.4433  2.1544  1.0970
   20CHL1   C27 1477   4.840   2.207   8.890  0.5087 -0.0486  0.5147
   20CHL1  H27A 1478   4.813   2.293   8.956  0.5410 -0.3788  0.9666
   20CHL1  H27B 1479   4.864   2.249   8.790  0.2528 -1.2452 -0.0649
   20CHL1  H27C 1480   4.744   2.155   8.875  0.7787 -0.4297  0.0819
   21CHL1    C3 1481   1.439   5.477  10.295  0.2728 -0.3315 -0.0932
   21CHL1    H3 1482   1.499   5.392  10.256  1.4582  0.9820 -1.2508
   21CHL1    O3 1483   1.449   5.482  10.435  0.3475  0.3805  0.0928
   21CHL1   H3' 1484   1.369   5.437  10.463  0.4457  0.5902  0.7065
   21CHL1    C4 1485   1.517   5.599  10.241 -0.9451 -0.1931  0.1842
   21CHL1   H4A 1486   1.469   5.686  10.292  2.2469  1.3409  0.8384
   21CHL1   H4B 1487   1.617   5.600  10.290 -0.6324 -1.8801 -0.3787
   21CHL1    C5 1488   1.517   5.605  10.090  0.2393 -0.3189 -0.2324
   21CHL1    C6 1489   1.638   5.604  10.029 -0.2385  0.4613  0.1216
   21CHL1    H6 1490   1.730   5.608  10.089 -0.3280 -1.3843  0.4150
   21CHL1    C7 1491   1.660   5.611   9.877 -0.0300  0.0134 -0.1627
   21CHL1   H7A 1492   1.718   5.702   9.852 -0.9386  0.7392  0.3127
   21CHL1   H7B 1493   1.706   5.516   9.844  0.7780  0.4970 -0.4643
   21CHL1    C8 1494   1.525   5.634   9.805  0.0786  0.4761 -0.4079
   21CHL1    H8 1495   1.497   5.739   9.823 -1.8590 -0.3405  1.8369
   21CHL1   C14 1496   1.548   5.587   9.660 -0.1935  0.0445  0.0476
   21CHL1   H14 1497   1.583   5.481   9.657  0.9962  0.4154  0.1556
   21CHL1   C15 1498   1.658   5.664   9.581  0.6806  0.3690  0.3534
   21CHL1  H15A 1499   1.633   5.770   9.600  0.3961  0.7975 -2.0010
   21CHL1  H15B 1500   1.762   5.642   9.610  0.4755 -0.7568  0.3132
   21CHL1   C16 1501   1.616   5.642   9.433 -0.5346 -0.6526 -0.1336
   21CHL1  H16A 1502   1.624   5.742   9.385 -2.1396 -1.0835 -1.4156
   21CHL1  H16B 1503   1.688   5.575   9.381  0.5844 -0.6135  1.3014
   21CHL1   C17 1504   1.468   5.583   9.428 -0.4853  0.0224  0.3951
   21CHL1   H17 1505   1.477   5.473   9.416 -1.6024 -0.0533  0.0727
   21CHL1   C13 1506   1.414   5.603   9.575  0.0080 -0.0872 -0.2921
   21CHL1   C18 1507   1.356   5.740   9.595 -0.0638 -0.3058  0.1497
   21CHL1  H18A 1508   1.268   5.754   9.529  0.8745  0.1668 -1.0317
   21CHL1  H18B 1509   1.314   5.757   9.697  1.9278  2.4532  0.6141
   21CHL1  H18C 1510   1.432   5.820   9.585  1.3897 -1.5538  0.8836
   21CHL1   C12 1511   1.326   5.499   9.634  0.1065  0.5117  0.5626
   21CHL1  H12A 1512   1.229   5.485   9.581 -0.0705 -1.3531  1.3084
   21CHL1  H12B 1513   1.368   5.398   9.614 -0.0800  0.4490  0.4848
   21CHL1   C11 1514   1.293   5.522   9.783  0.0930  0.0898 -0.1625
   21CHL1  H11A 1515   1.221   5.605   9.797 -0.1260 -0.2618  0.8339
   21CHL1  H11B 1516   1.255   5.422   9.814  0.1718  0.4774  1.2508
   21CHL1    C9 1517   1.419   5.544   9.873  0.2764  0.0829 -0.3403
   21CHL1    H9 1518   1.467   5.444   9.874  2.0690  0.8730  1.6366
   21CHL1   C10 1519   1.390   5.579  10.019 -0.1503 -0.3352 -0.5877
   21CHL1   C19 1520   1.305   5.701  10.026 -0.0042 -0.3105 -0.6057
   21CHL1  H19A 1521   1.202   5.683   9.988 -0.5819  0.0646  0.7265
   21CHL1  H19B 1522   1.294   5.735  10.131 -0.1626 -1.7075 -0.1440
   21CHL1  H19C 1523   1.334   5.785   9.959 -0.2475  1.4300  1.3449
   21CHL1    C1 1524   1.307   5.463  10.086 -0.0702 -0.6715  0.1835
   21CHL1   H1A 1525   1.205   5.462  10.040  0.4280  1.2915 -1.1081
   21CHL1   H1B 1526   1.354   5.366  10.061 -1.9261 -1.4077 -0.6170
   21CHL1    C2 1527   1.299   5.481  10.239  0.7001  0.7305 -0.0924
   21CHL1   H2A 1528   1.248   5.387  10.269 -0.1183  0.3811 -2.3898
   21CHL1   H2B 1529   1.238   5.564  10.282 -0.8054 -1.3791  2.0779
   21CHL1   C20 1530   1.390   5.634   9.310  0.7851 -0.2576  0.4147
   21CHL1   H20 1531   1.379   5.744   9.320  3.3616  0.0892  0.0182
   21CHL1   C21 1532   1.247   5.571   9.300 -0.2934  0.2294  0.2251
   21CHL1  H21A 1533   1.237   5.463   9.279 -1.3725  0.4515 -0.5058
   21CHL1  H21B 1534   1.184   5.614   9.219 -0.0716  1.2660  0.5868
   21CHL1  H21C 1535   1.184   5.584   9.391  1.0466  0.8759  1.0847
   21CHL1   C22 1536   1.459   5.614   9.174  0.4277 -0.4667  0.9759
   21CHL1  H22A 1537   1.558   5.663   9.183  0.8336 -0.2091 -2.8857
   21CHL1  H22B 1538   1.480   5.506   9.158  0.0968 -0.5659  1.2087
   21CHL1   C23 1539   1.393   5.675   9.053 -0.1445 -0.5278 -0.1827
   21CHL1  H23A 1540   1.301   5.615   9.037  0.2549 -1.4697  0.9484
   21CHL1  H23B 1541   1.366   5.781   9.072 -3.3521 -1.0045 -1.4609
   21CHL1   C24 1542   1.489   5.662   8.935  0.3794  0.1882  0.1629
   21CHL1  H24A 1543   1.577   5.728   8.949  0.1322  0.7275 -0.7918
   21CHL1  H24B 1544   1.511   5.554   8.924 -2.9929 -0.7698  1.4508
   21CHL1   C25 1545   1.421   5.700   8.795  0.2206 -0.9118 -0.0709
   21CHL1   H25 1546   1.377   5.798   8.821 -0.3507 -0.5325 -2.2590
   21CHL1   C26 1547   1.528   5.729   8.687  0.2118  0.1931  0.1135
   21CHL1  H26A 1548   1.582   5.820   8.720  0.1945 -0.6158  2.5152
   21CHL1  H26B 1549   1.595   5.640   8.685  2.8426  2.0432 -0.8953
   21CHL1  H26C 1550   1.486   5.751   8.586 -1.4245 -0.7209  0.5650
   21CHL1   C27 1551   1.308   5.601   8.749 -0.1918 -0.4104  0.3182
   21CHL1  H27A 1552   1.338   5.494   8.754 -1.3722 -0.7250  0.9822
   21CHL1  H27B 1553   1.226   5.612   8.823 -0.7213 -1.9466 -0.0146
   21CHL1  H27C 1554   1.276   5.625   8.646 -0.7547 -0.8553  0.3840
   22CHL1    C3 1555   2.296   5.363  10.077 -0.0237  0.8344  0.1352
   22CHL1    H3 1556   2.347   5.459  10.055 -0.0634  0.6572 -0.7626
   22CHL1    O3 1557   2.290   5.335  10.218 -0.0635 -0.0761  0.2785
   22CHL1   H3' 1558   2.263   5.243  10.221 -0.1942 -0.0676 -0.4730
   22CHL1    C4 1559   2.160   5.358  10.011  0.5002  0.3660 -0.1283
   22CHL1   H4A 1560   2.113   5.258  10.028 -1.4399  1.5285  1.9197
   22CHL1   H4B 1561   2.093   5.436  10.051 -0.5878  0.5834 -2.2400
   22CHL1    C5 1562   2.167   5.366   9.860  0.1461  0.2554 -0.4513
   22CHL1    C6 1563   2.084   5.453   9.796 -0.1615 -0.2691  0.0540
   22CHL1    H6 1564   2.013   5.513   9.854  0.3299  0.3909 -0.0225
   22CHL1    C7 1565   2.060   5.461   9.645 -0.4785 -0.6590 -0.4307
   22CHL1   H7A 1566   1.954   5.439   9.623 -0.0915 -1.5066 -1.5231
   22CHL1   H7B 1567   2.087   5.565   9.616 -0.0235 -0.5319  0.4003
   22CHL1    C8 1568   2.148   5.364   9.570  0.4613  0.1579  0.1111
   22CHL1    H8 1569   2.090   5.269   9.561  0.4506  0.2854 -1.3943
   22CHL1   C14 1570   2.174   5.429   9.429  0.2270 -0.0027  0.5868
   22CHL1   H14 1571   2.243   5.513   9.453 -0.0816 -0.0455  1.6755
   22CHL1   C15 1572   2.053   5.487   9.352  0.1874  0.1681 -0.4414
   22CHL1  H15A 1573   1.970   5.414   9.356  0.1619  0.1858 -0.6464
   22CHL1  H15B 1574   2.023   5.587   9.391 -0.1973  0.2683 -0.9826
   22CHL1   C16 1575   2.108   5.490   9.205  0.0857  0.2634 -0.0548
   22CHL1  H16A 1576   2.032   5.433   9.146  2.4533 -2.4214 -0.7445
   22CHL1  H16B 1577   2.127   5.594   9.171  1.3886  0.4300  1.1150
   22CHL1   C17 1578   2.252   5.420   9.200  0.1903 -0.9082  0.2526
   22CHL1   H17 1579   2.334   5.492   9.218 -1.5863  1.0110  1.1416
   22CHL1   C13 1580   2.247   5.337   9.330 -0.0893  0.2783  0.0873
   22CHL1   C18 1581   2.157   5.205   9.306 -0.1085 -0.7138 -0.3834
   22CHL1  H18A 1582   2.065   5.244   9.258  0.9115  2.9088  0.3229
   22CHL1  H18B 1583   2.215   5.123   9.259  1.8553  1.1337 -1.3287
   22CHL1  H18C 1584   2.125   5.157   9.401 -1.4234 -2.3486 -1.5642
   22CHL1   C12 1585   2.387   5.305   9.401  1.0109  0.3625 -0.5890
   22CHL1  H12A 1586   2.460   5.236   9.353  1.5014 -1.2523  2.2024
   22CHL1  H12B 1587   2.437   5.403   9.416  0.9627  0.2293  0.5969
   22CHL1   C11 1588   2.366   5.245   9.535 -0.6140 -0.0889  0.0833
   22CHL1  H11A 1589   2.313   5.147   9.530  1.3866 -1.1763 -1.2348
   22CHL1  H11B 1590   2.464   5.227   9.583  0.3237 -0.0259 -1.7321
   22CHL1    C9 1591   2.282   5.335   9.637  0.9239 -0.3281  0.1169
   22CHL1    H9 1592   2.335   5.433   9.642  0.6443 -0.2194  1.1677
   22CHL1   C10 1593   2.273   5.281   9.782 -0.2482 -0.4011 -0.4550
   22CHL1   C19 1594   2.224   5.138   9.782 -0.6548  0.6853  0.0494
   22CHL1  H19A 1595   2.307   5.077   9.741 -0.2874  0.6804  0.7740
   22CHL1  H19B 1596   2.204   5.096   9.883 -1.2720  1.1239  0.1154
   22CHL1  H19C 1597   2.136   5.129   9.715 -2.0176  1.9869  1.5607
   22CHL1    C1 1598   2.408   5.293   9.858  0.0928 -0.3568  0.1802
   22CHL1   H1A 1599   2.481   5.221   9.817 -1.3569 -2.8622  1.7313
   22CHL1   H1B 1600   2.448   5.396   9.846  1.2352 -0.9610 -1.5773
   22CHL1    C2 1601   2.396   5.267  10.012 -0.2231 -0.4244  0.0395
   22CHL1   H2A 1602   2.498   5.278  10.055  0.4052 -2.9129 -0.6203
   22CHL1   H2B 1603   2.373   5.158  10.020  0.9789 -0.6686  0.3018
   22CHL1   C20 1604   2.280   5.352   9.064  0.0897 -0.1830  0.2473
   22CHL1   H20 1605   2.202   5.278   9.037 -1.2172  0.9074  0.9240
   22CHL1   C21 1606   2.416   5.283   9.074 -0.3687  0.3466  0.0665
   22CHL1  H21A 1607   2.473   5.357   9.133 -2.3662  1.8352  0.2433
   22CHL1  H21B 1608   2.462   5.270   8.973 -1.6182  1.8399 -0.7460
   22CHL1  H21C 1609   2.398   5.188   9.129  0.3259 -0.5421 -1.1905
   22CHL1   C22 1610   2.269   5.441   8.930 -0.1215  0.0785 -1.1602
   22CHL1  H22A 1611   2.189   5.517   8.946  0.1300 -0.0417  1.0667
   22CHL1  H22B 1612   2.361   5.501   8.916 -1.4868  2.2924 -1.1667
   22CHL1   C23 1613   2.259   5.351   8.803 -0.2701 -0.7297  0.0311
   22CHL1  H23A 1614   2.347   5.283   8.795  0.1598 -0.2382  0.5301
   22CHL1  H23B 1615   2.172   5.282   8.811  0.3202 -1.3286  2.0952
   22CHL1   C24 1616   2.258   5.431   8.674 -0.1243  0.1193 -0.0402
   22CHL1  H24A 1617   2.202   5.527   8.681 -0.9716 -0.4575  1.9633
   22CHL1  H24B 1618   2.358   5.475   8.659  0.3201  0.0277  2.2406
   22CHL1   C25 1619   2.199   5.359   8.546  0.3372  0.0876 -0.4384
   22CHL1   H25 1620   2.093   5.329   8.562  0.4327  0.6789  1.6597
   22CHL1   C26 1621   2.191   5.464   8.432  0.3344  0.4603  0.1533
   22CHL1  H26A 1622   2.294   5.496   8.403  1.3126 -0.6579  2.2173
   22CHL1  H26B 1623   2.141   5.426   8.340 -0.4860  2.7263 -0.4069
   22CHL1  H26C 1624   2.137   5.554   8.469 -0.0687  0.0769  0.4961
   22CHL1   C27 1625   2.302   5.247   8.511 -0.2983  0.5658 -0.0856
   22CHL1  H27A 1626   2.408   5.281   8.510  0.0943 -0.5007  1.6070
   22CHL1  H27B 1627   2.294   5.164   8.585  0.4135  0.8019  0.2667
   22CHL1  H27C 1628   2.280   5.199   8.413 -0.9997 -0.4931  0.5645
   23CHL1    C3 1629   0.318   1.777   9.965 -0.2760  0.9894  0.9096
   23CHL1    H3 1630   0.245   1.854   9.933 -2.7318 -1.8024 -0.6740
   23CHL1    O3 1631   0.341   1.781  10.105 -0.8517 -0.2528 -0.0936
   23CHL1   H3' 1632   0.252   1.779  10.141 -0.9359  2.9231  0.0924
   23CHL1    C4 1633   0.254   1.639   9.934 -0.3058  0.2617 -0.2291
   23CHL1   H4A 1634   0.319   1.558   9.974  0.5586  1.7888  1.6610
   23CHL1   H4B 1635   0.162   1.629   9.995 -0.3920  1.6156 -0.1029
   23CHL1    C5 1636   0.240   1.612   9.785  0.0942  0.4242 -0.2076
   23CHL1    C6 1637   0.126   1.572   9.731 -0.0774  0.3900 -0.1825
   23CHL1    H6 1638   0.035   1.557   9.792 -0.9526  0.8595 -1.3160
   23CHL1    C7 1639   0.109   1.545   9.583 -0.4906  0.5356  0.8910
   23CHL1   H7A 1640   0.046   1.454   9.576 -0.1172  0.1561  2.1411
   23CHL1   H7B 1641   0.055   1.630   9.534 -1.9002 -1.1156 -0.5577
   23CHL1    C8 1642   0.246   1.528   9.510 -0.4610 -0.5423  0.3775
   23CHL1    H8 1643   0.290   1.429   9.538  0.8704  0.1466  0.8318
   23CHL1   C14 1644   0.233   1.523   9.359  0.3825  0.4888  0.9255
   23CHL1   H14 1645   0.187   1.620   9.331 -0.0876 -0.0601 -0.2899
   23CHL1   C15 1646   0.137   1.414   9.301 -0.4355 -0.2444  1.0150
   23CHL1  H15A 1647   0.139   1.319   9.358 -1.7819 -0.3392  0.9459
   23CHL1  H15B 1648   0.030   1.443   9.314 -0.0012  0.7663  2.7021
   23CHL1   C16 1649   0.186   1.392   9.154 -0.2493 -0.0833 -0.2919
   23CHL1  H16A 1650   0.216   1.287   9.136 -1.0787 -0.2131 -0.9973
   23CHL1  H16B 1651   0.111   1.417   9.076  0.5015  2.6150 -0.2425
   23CHL1   C17 1652   0.316   1.494   9.131 -0.5858  0.9261  0.0397
   23CHL1   H17 1653   0.262   1.589   9.110  1.2077  2.3188  1.3993
   23CHL1   C13 1654   0.366   1.505   9.276 -0.2785  0.3060  0.0762
   23CHL1   C18 1655   0.428   1.364   9.309 -0.3376 -0.2957  0.7579
   23CHL1  H18A 1656   0.347   1.289   9.296 -2.5977  2.1251 -0.0188
   23CHL1  H18B 1657   0.523   1.345   9.255 -0.4607  0.0362  0.4178
   23CHL1  H18C 1658   0.451   1.356   9.417  0.1709  0.8420  0.7517
   23CHL1   C12 1659   0.456   1.623   9.309  0.3750 -1.0190 -0.0591
   23CHL1  H12A 1660   0.555   1.628   9.259  1.0504 -0.8617  1.2512
   23CHL1  H12B 1661   0.420   1.716   9.261  2.8179  0.5817  1.0132
   23CHL1   C11 1662   0.477   1.644   9.460 -0.2151 -0.0222 -1.0071
   23CHL1  H11A 1663   0.555   1.571   9.493  0.4393  1.0672 -0.0247
   23CHL1  H11B 1664   0.529   1.740   9.483 -1.2557  0.1674  0.6981
   23CHL1    C9 1665   0.348   1.642   9.547 -0.1846  0.1418 -0.2504
   23CHL1    H9 1666   0.303   1.740   9.524  0.4744  0.4694 -0.1755
   23CHL1   C10 1667   0.366   1.640   9.707  0.3365  0.4358  0.6486
   23CHL1   C19 1668   0.465   1.525   9.734 -0.2979 -0.2910  0.6086
   23CHL1  H19A 1669   0.560   1.545   9.681 -1.0187  2.1866  0.0922
   23CHL1  H19B 1670   0.485   1.519   9.843  2.0389 -0.2638  0.2330
   23CHL1  H19C 1671   0.418   1.435   9.688 -0.9436 -0.4628  1.5672
   23CHL1    C1 1672   0.429   1.783   9.744  0.0359  0.1781  0.2041
   23CHL1   H1A 1673   0.527   1.801   9.696 -0.4104  1.6318 -0.2205
   23CHL1   H1B 1674   0.347   1.849   9.710  0.4404  0.1530 -0.8363
   23CHL1    C2 1675   0.458   1.804   9.900  1.2996  0.3582  0.7134
   23CHL1   H2A 1676   0.493   1.910   9.907  0.7897  0.6486 -0.7442
   23CHL1   H2B 1677   0.531   1.723   9.920 -1.0126 -1.9917  0.1378
   23CHL1   C20 1678   0.416   1.455   9.016  0.1375  0.6928 -0.2751
   23CHL1   H20 1679   0.462   1.360   9.051 -0.9008  0.0331 -0.6887
   23CHL1   C21 1680   0.526   1.559   9.001 -0.1754 -0.0434  0.2728
   23CHL1  H21A 1681   0.567   1.557   8.898  0.3763  1.2249  0.4477
   23CHL1  H21B 1682   0.605   1.532   9.075  1.2735  1.9474 -0.4408
   23CHL1  H21C 1683   0.498   1.664   9.023 -1.5197  0.1075 -1.8795
   23CHL1   C22 1684   0.341   1.423   8.886  0.0546 -0.3510  0.1638
   23CHL1  H22A 1685   0.264   1.346   8.908 -0.4670 -0.0831 -0.6371
   23CHL1  H22B 1686   0.282   1.514   8.859  0.8615  0.0657 -0.2449
   23CHL1   C23 1687   0.423   1.369   8.768  0.0655  0.2958  0.8030
   23CHL1  H23A 1688   0.496   1.443   8.731 -0.3828  0.1630 -0.3808
   23CHL1  H23B 1689   0.476   1.277   8.801  0.5568 -0.1255 -1.0594
   23CHL1   C24 1690   0.333   1.322   8.651  0.3553 -0.2980  0.2462
   23CHL1  H24A 1691   0.262   1.242   8.680 -0.2838  1.0104  2.5239
   23CHL1  H24B 1692   0.270   1.411   8.631  1.5722  0.7615  0.9238
   23CHL1   C25 1693   0.416   1.272   8.528  0.4766 -0.1593  0.2002
   23CHL1   H25 1694   0.522   1.300   8.542  0.2198  0.8333  0.1946
   23CHL1   C26 1695   0.412   1.118   8.523 -0.5547  0.8158  0.3889
   23CHL1  H26A 1696   0.474   1.082   8.438 -1.9705 -0.2374 -0.2310
   23CHL1  H26B 1697   0.458   1.080   8.617 -0.7146  1.7470  0.8483
   23CHL1  H26C 1698   0.306   1.087   8.510 -0.4284 -0.1881  1.5965
   23CHL1   C27 1699   0.366   1.336   8.397 -0.3154 -0.1967  0.2752
   23CHL1  H27A 1700   0.429   1.300   8.313  0.9045 -1.8337  1.7974
   23CHL1  H27B 1701   0.266   1.296   8.372  0.8045 -1.5208 -2.5456
   23CHL1  H27C 1702   0.353   1.447   8.403  0.7204 -0.0102 -0.5999
   24CHL1    C3 1703   1.857   1.009  10.037 -0.1909  0.0196 -0.3811
   24CHL1    H3 1704   1.772   0.938  10.026 -0.7412  0.9018 -2.0479
   24CHL1    O3 1705   1.849   1.060  10.177 -0.1519  0.4634  0.0329
   24CHL1   H3' 1706   1.917   1.127  10.182  0.4161 -0.1200  0.3939
   24CHL1    C4 1707   1.992   0.957  10.010  0.0348  0.1706 -0.1766
   24CHL1   H4A 1708   2.065   1.041  10.008 -1.5390  1.5885  0.0771
   24CHL1   H4B 1709   2.024   0.890  10.093  2.3034 -0.1116 -1.1988
   24CHL1    C5 1710   1.991   0.901   9.872  0.0326 -0.1072 -0.3884
   24CHL1    C6 1711   2.004   0.771   9.850  0.8443 -0.7038  0.1017
   24CHL1    H6 1712   2.017   0.697   9.930  0.5449 -0.0955  0.7271
   24CHL1    C7 1713   2.021   0.710   9.715 -0.4376 -0.3743  0.0418
   24CHL1   H7A 1714   2.098   0.632   9.731  1.3658  0.9494 -1.6849
   24CHL1   H7B 1715   1.929   0.649   9.700 -0.7266  0.1627 -0.4308
   24CHL1    C8 1716   2.048   0.811   9.611  0.6334 -0.3335  0.8986
   24CHL1    H8 1717   2.148   0.861   9.616 -0.5338  2.6426 -2.0041
   24CHL1   C14 1718   2.047   0.750   9.473 -0.6118 -0.7042  0.5848
   24CHL1   H14 1719   1.941   0.724   9.455 -1.3970  0.4076  3.1262
   24CHL1   C15 1720   2.131   0.627   9.441  0.0043 -0.4120  0.5308
   24CHL1  H15A 1721   2.238   0.640   9.466  0.3705  0.3512 -1.2324
   24CHL1  H15B 1722   2.083   0.544   9.496  0.4340  0.1574  1.7923
   24CHL1   C16 1723   2.134   0.617   9.286 -0.0371 -0.6760  0.2463
   24CHL1  H16A 1724   2.244   0.615   9.266  0.0874  1.5744  0.4590
   24CHL1  H16B 1725   2.075   0.534   9.241 -0.6272  0.6709 -1.6203
   24CHL1   C17 1726   2.074   0.759   9.234  0.7786  0.4107  0.4459
   24CHL1   H17 1727   1.966   0.738   9.220  0.9537 -0.3320  0.1280
   24CHL1   C13 1728   2.075   0.852   9.359  0.4658  0.8478  0.2744
   24CHL1   C18 1729   2.211   0.912   9.379 -0.4042 -0.4399  0.0483
   24CHL1  H18A 1730   2.292   0.837   9.376  0.3936  0.3441  1.4136
   24CHL1  H18B 1731   2.225   0.982   9.294  0.1020  0.1927  0.6435
   24CHL1  H18C 1732   2.225   0.974   9.469  2.5982  0.2373 -0.7786
   24CHL1   C12 1733   1.959   0.961   9.360 -0.6297  0.6514  1.4114
   24CHL1  H12A 1734   1.986   1.027   9.275  0.2972 -1.7732 -0.3049
   24CHL1  H12B 1735   1.866   0.907   9.331  0.9297 -1.3852 -0.1121
   24CHL1   C11 1736   1.959   1.028   9.499  0.3118  0.1214  0.6159
   24CHL1  H11A 1737   2.042   1.101   9.496  0.3491  0.0910  0.8650
   24CHL1  H11B 1738   1.871   1.095   9.498  1.6185  1.8902  0.3875
   24CHL1    C9 1739   1.952   0.930   9.618  0.2383  0.3608  0.0139
   24CHL1    H9 1740   1.849   0.889   9.615  0.8974 -1.3739 -2.4376
   24CHL1   C10 1741   1.965   1.004   9.757 -0.0738 -0.8115  0.2656
   24CHL1   C19 1742   2.081   1.109   9.745  0.0043 -0.0122  0.5857
   24CHL1  H19A 1743   2.046   1.195   9.684  2.3199 -0.6932 -1.9077
   24CHL1  H19B 1744   2.106   1.151   9.844 -0.3595  2.2184 -0.2168
   24CHL1  H19C 1745   2.173   1.062   9.704 -1.4417 -1.9551 -0.6354
   24CHL1    C1 1746   1.836   1.081   9.793  0.1493  0.0665 -0.0750
   24CHL1   H1A 1747   1.816   1.166   9.724  0.5803 -0.7882 -1.2808
   24CHL1   H1B 1748   1.748   1.014   9.783  0.4123 -0.2190 -0.4632
   24CHL1    C2 1749   1.828   1.127   9.941  0.0741 -0.1733  0.1454
   24CHL1   H2A 1750   1.723   1.153   9.965  0.4005  0.3364  1.0621
   24CHL1   H2B 1751   1.897   1.214   9.952  1.1489 -0.6952 -1.9392
   24CHL1   C20 1752   2.133   0.792   9.095 -0.4201  0.1647 -0.2711
   24CHL1   H20 1753   2.242   0.808   9.114 -0.4467  2.5355 -1.7725
   24CHL1   C21 1754   2.073   0.928   9.049 -0.9365  0.3206 -0.0597
   24CHL1  H21A 1755   2.092   0.963   8.945  0.0378  5.0725  1.4939
   24CHL1  H21B 1756   2.127   1.002   9.111  0.7151 -0.0437 -0.9870
   24CHL1  H21C 1757   1.965   0.945   9.068 -1.1178  1.6251 -1.9245
   24CHL1   C22 1758   2.107   0.672   8.996  0.2331 -0.2996 -0.2425
   24CHL1  H22A 1759   2.187   0.598   9.018  1.2108  1.4709  2.7803
   24CHL1  H22B 1760   2.005   0.629   9.014 -0.4141  1.2261 -0.1513
   24CHL1   C23 1761   2.108   0.708   8.847 -0.1549 -0.1788 -0.7051
   24CHL1  H23A 1762   2.024   0.780   8.830 -1.3535 -1.4679 -0.3992
   24CHL1  H23B 1763   2.197   0.772   8.828 -0.8299  0.4700 -1.8742
   24CHL1   C24 1764   2.090   0.583   8.756  0.6923 -0.2563 -0.2082
   24CHL1  H24A 1765   2.190   0.536   8.763  0.0683 -2.1117 -2.4620
   24CHL1  H24B 1766   2.009   0.515   8.792 -3.2946  3.5119 -1.1677
   24CHL1   C25 1767   2.055   0.609   8.606  0.2150 -0.4396 -0.0827
   24CHL1   H25 1768   2.063   0.507   8.564 -0.1728 -0.9186  0.9904
   24CHL1   C26 1769   1.907   0.657   8.580  0.0758  0.6975 -0.4197
   24CHL1  H26A 1770   1.881   0.760   8.614 -1.5045  0.6060 -1.2797
   24CHL1  H26B 1771   1.883   0.655   8.471  0.9684 -1.7890 -0.6428
   24CHL1  H26C 1772   1.836   0.590   8.633  3.0124 -1.6924  0.7677
   24CHL1   C27 1773   2.152   0.702   8.537 -0.3764  0.6004  0.0029
   24CHL1  H27A 1774   2.257   0.671   8.551 -1.1854 -1.5808  1.7024
   24CHL1  H27B 1775   2.127   0.688   8.429 -2.0362 -0.0552  0.4394
   24CHL1  H27C 1776   2.127   0.808   8.560  1.9858  1.2947 -0.3805
   25CHL1    C3 1777   3.626   3.020  10.343 -0.0171  0.0626 -0.2507
   25CHL1    H3 1778   3.617   3.121  10.297  1.2775  0.6416  0.7174
   25CHL1    O3 1779   3.580   3.033  10.474  0.2205  0.0584  0.5356
   25CHL1   H3' 1780   3.605   2.947  10.510  0.3740 -0.4892 -0.8315
   25CHL1    C4 1781   3.546   2.911  10.269  0.7684 -0.1438 -0.0671
   25CHL1   H4A 1782   3.561   2.819  10.329 -1.1911  1.8252  3.7771
   25CHL1   H4B 1783   3.442   2.948  10.277  1.4125  1.8214 -0.1285
   25CHL1    C5 1784   3.589   2.896  10.123 -0.5106  0.0546 -0.8652
   25CHL1    C6 1785   3.497   2.915  10.024 -0.2314  0.3113  0.6818
   25CHL1    H6 1786   3.391   2.918  10.051 -0.0466 -0.5221  1.5780
   25CHL1    C7 1787   3.524   2.894   9.878 -0.1212 -0.7090 -0.2517
   25CHL1   H7A 1788   3.443   2.837   9.828 -1.3527  0.7781 -0.0146
   25CHL1   H7B 1789   3.528   2.988   9.819 -3.0496 -0.3101  0.0370
   25CHL1    C8 1790   3.663   2.817   9.854  0.1249 -1.0648  0.0154
   25CHL1    H8 1791   3.651   2.707   9.863  1.9028 -1.3621 -0.7284
   25CHL1   C14 1792   3.699   2.844   9.708  0.4283  0.8080  0.5541
   25CHL1   H14 1793   3.716   2.952   9.692  0.7711  0.3964 -2.6346
   25CHL1   C15 1794   3.597   2.787   9.607  0.8038  0.3035 -0.1589
   25CHL1  H15A 1795   3.581   2.680   9.631  1.6117 -0.0056 -0.9454
   25CHL1  H15B 1796   3.494   2.829   9.610  0.6163 -0.1950  0.5621
   25CHL1   C16 1797   3.675   2.801   9.480  0.4798 -0.2169  0.3447
   25CHL1  H16A 1798   3.672   2.714   9.410 -1.3759  0.0959 -0.0379
   25CHL1  H16B 1799   3.635   2.886   9.421  3.7618  0.5255 -0.9961
   25CHL1   C17 1800   3.822   2.831   9.513  0.8305  0.2268 -0.3826
   25CHL1   H17 1801   3.847   2.939   9.513  2.8892 -0.1917 -1.1962
   25CHL1   C13 1802   3.835   2.792   9.663 -0.1886 -0.1594  0.5567
   25CHL1   C18 1803   3.846   2.637   9.670 -0.4215  0.0147 -0.6666
   25CHL1  H18A 1804   3.821   2.610   9.774  0.5198  2.4060  0.2512
   25CHL1  H18B 1805   3.767   2.585   9.611  0.8778 -2.8436 -0.0717
   25CHL1  H18C 1806   3.937   2.592   9.626 -0.1887 -0.4594  0.2844
   25CHL1   C12 1807   3.938   2.856   9.750 -0.9987  0.3829 -0.2157
   25CHL1  H12A 1808   4.040   2.819   9.730 -0.9381  1.0659 -1.2150
   25CHL1  H12B 1809   3.941   2.966   9.734 -0.0543  0.5674  1.0464
   25CHL1   C11 1810   3.910   2.833   9.902  0.3433 -0.6035  0.1105
   25CHL1  H11A 1811   3.924   2.725   9.921 -0.6981 -0.8036 -0.1761
   25CHL1  H11B 1812   3.982   2.892   9.962 -1.7776  1.6052  0.6492
   25CHL1    C9 1813   3.771   2.874   9.945  0.1541  0.3130  0.1406
   25CHL1    H9 1814   3.767   2.985   9.932  2.5621  0.5497  1.0235
   25CHL1   C10 1815   3.736   2.867  10.099  0.8029  0.0292 -0.0844
   25CHL1   C19 1816   3.761   2.716  10.136 -0.2424 -0.3501  0.0876
   25CHL1  H19A 1817   3.870   2.697  10.130 -0.4765 -2.4943  1.7040
   25CHL1  H19B 1818   3.743   2.705  10.245  0.1473  0.8766  0.2952
   25CHL1  H19C 1819   3.705   2.645  10.072  0.1661  2.0801 -3.2610
   25CHL1    C1 1820   3.816   2.965  10.193 -0.6261  0.1341 -0.4917
   25CHL1   H1A 1821   3.922   2.933  10.206 -0.0865  1.4470 -1.3846
   25CHL1   H1B 1822   3.807   3.069  10.154  0.8148 -0.4370 -2.5335
   25CHL1    C2 1823   3.779   2.988  10.346  0.0929 -0.0163 -0.2010
   25CHL1   H2A 1824   3.837   3.066  10.399  1.2775 -1.9844  1.5461
   25CHL1   H2B 1825   3.795   2.893  10.402  0.8307  0.4252  0.3472
   25CHL1   C20 1826   3.920   2.775   9.409  0.3293 -0.0875  0.5888
   25CHL1   H20 1827   3.899   2.666   9.400  1.3566 -0.2251 -0.3874
   25CHL1   C21 1828   4.064   2.794   9.455 -0.0383  0.1749 -0.0427
   25CHL1  H21A 1829   4.083   2.742   9.552 -0.5407 -1.7469 -0.9301
   25CHL1  H21B 1830   4.089   2.900   9.478  0.1175 -0.1815  1.5527
   25CHL1  H21C 1831   4.134   2.737   9.390 -0.8350 -0.2235 -0.5651
   25CHL1   C22 1832   3.906   2.838   9.264 -0.3412 -0.1516 -0.7395
   25CHL1  H22A 1833   3.799   2.848   9.238 -0.0006  1.4204 -1.6716
   25CHL1  H22B 1834   3.937   2.945   9.271  0.0974 -0.3094 -0.1895
   25CHL1   C23 1835   3.973   2.766   9.150 -0.3963  0.3255  0.8325
   25CHL1  H23A 1836   4.082   2.784   9.157 -0.2964 -0.2901  0.9043
   25CHL1  H23B 1837   3.962   2.657   9.171 -1.4718  0.3707  0.5377
   25CHL1   C24 1838   3.927   2.807   9.010  0.4591 -0.1553 -0.2466
   25CHL1  H24A 1839   3.817   2.802   9.002  0.3732  1.0644  0.1128
   25CHL1  H24B 1840   3.980   2.902   8.985  3.3390 -1.3985  0.6388
   25CHL1   C25 1841   3.970   2.717   8.892  0.8157  0.4107 -0.3474
   25CHL1   H25 1842   4.081   2.715   8.887  0.8874  2.1557 -0.1803
   25CHL1   C26 1843   3.911   2.579   8.911  0.0487  0.1956 -0.0600
   25CHL1  H26A 1844   3.800   2.569   8.904  0.2738 -2.1337 -1.3231
   25CHL1  H26B 1845   3.965   2.499   8.856 -0.7934 -3.1116  3.5420
   25CHL1  H26C 1846   3.930   2.545   9.015  1.0326  0.6494 -0.0787
   25CHL1   C27 1847   3.930   2.765   8.745 -0.3759  0.0778  0.1095
   25CHL1  H27A 1848   3.957   2.692   8.666 -1.4646  0.9572 -1.1129
   25CHL1  H27B 1849   3.822   2.783   8.725  0.0860  0.2432 -2.7012
   25CHL1  H27C 1850   3.987   2.859   8.729  2.1670 -1.2282  0.9287
   26CHL1    C3 1851   3.738   5.479  10.214  0.2431  0.2954  0.0920
   26CHL1    H3 1852   3.651   5.522  10.160  1.0764 -0.2922 -1.7978
   26CHL1    O3 1853   3.709   5.473  10.354 -0.0076 -0.2116  0.4482
   26CHL1   H3' 1854   3.789   5.432  10.387  0.8660 -0.2694 -1.6253
   26CHL1    C4 1855   3.769   5.342  10.165 -0.0823  0.0046  0.1297
   26CHL1   H4A 1856   3.855   5.305  10.224 -0.4893 -1.7899 -0.3588
   26CHL1   H4B 1857   3.681   5.288  10.204 -2.1649  2.6097 -0.6294
   26CHL1    C5 1858   3.795   5.325  10.019  0.1327 -0.8752  0.0260
   26CHL1    C6 1859   3.732   5.241   9.940 -0.5338  0.0596 -0.0225
   26CHL1    H6 1860   3.657   5.187  10.001  0.3432  0.0170  1.0555
   26CHL1    C7 1861   3.745   5.230   9.794 -0.3983  0.2009  0.8240
   26CHL1   H7A 1862   3.768   5.125   9.769  1.1748  0.7123 -0.0749
   26CHL1   H7B 1863   3.651   5.255   9.741 -0.3766 -1.2646  0.0618
   26CHL1    C8 1864   3.867   5.308   9.743 -1.0216 -0.2811 -1.0211
   26CHL1    H8 1865   3.962   5.252   9.752  0.4227  1.7917 -2.3951
   26CHL1   C14 1866   3.857   5.336   9.594 -0.3990 -0.6401  0.4059
   26CHL1   H14 1867   3.765   5.398   9.598 -1.0935 -1.6809  1.3767
   26CHL1   C15 1868   3.819   5.218   9.505 -0.5387 -0.2520 -0.2737
   26CHL1  H15A 1869   3.883   5.134   9.539  4.2020  3.9261  2.3260
   26CHL1  H15B 1870   3.711   5.192   9.490 -0.8156  0.7925 -0.1661
   26CHL1   C16 1871   3.867   5.273   9.368 -0.3800  0.5466 -0.2246
   26CHL1  H16A 1872   3.945   5.206   9.325 -1.5107  0.3437 -2.0670
   26CHL1  H16B 1873   3.795   5.265   9.284  0.5088 -2.0180 -0.8447
   26CHL1   C17 1874   3.924   5.417   9.388 -0.4382 -0.6214  0.2201
   26CHL1   H17 1875   3.841   5.490   9.379 -1.2325 -1.5471 -0.1875
   26CHL1   C13 1876   3.964   5.422   9.531  0.0571  0.0341  0.5619
   26CHL1   C18 1877   4.112   5.357   9.548  0.1913  0.1471  0.4997
   26CHL1  H18A 1878   4.120   5.256   9.504  2.1939 -0.3095  1.8178
   26CHL1  H18B 1879   4.186   5.433   9.514 -1.0538  2.0506  1.8079
   26CHL1  H18C 1880   4.121   5.336   9.656 -0.3938  2.2132  0.9961
   26CHL1   C12 1881   3.963   5.560   9.604 -0.1335 -0.5124  0.5201
   26CHL1  H12A 1882   4.051   5.620   9.576  1.1422 -1.3278  2.5528
   26CHL1  H12B 1883   3.864   5.608   9.586 -0.0945 -0.7474 -0.3339
   26CHL1   C11 1884   3.977   5.542   9.754 -0.0397 -0.2437  0.1497
   26CHL1  H11A 1885   4.085   5.521   9.770  0.1294  1.7288  1.9752
   26CHL1  H11B 1886   3.960   5.644   9.794  1.5110 -0.0764  0.4486
   26CHL1    C9 1887   3.877   5.441   9.817  0.1907 -0.5492 -0.7456
   26CHL1    H9 1888   3.779   5.490   9.801 -1.1362 -2.8135 -0.0893
   26CHL1   C10 1889   3.901   5.432   9.969  0.2709 -0.6324  0.4066
   26CHL1   C19 1890   4.040   5.379   9.999 -0.6842 -0.7536  1.2579
   26CHL1  H19A 1891   4.037   5.277   9.955 -1.3786 -0.1841 -0.0634
   26CHL1  H19B 1892   4.124   5.437   9.957 -1.0744 -1.3077 -0.3319
   26CHL1  H19C 1893   4.050   5.367  10.110 -0.3729 -0.5891  1.2471
   26CHL1    C1 1894   3.879   5.574  10.037 -0.0550 -0.5371  0.5104
   26CHL1   H1A 1895   3.955   5.651  10.011  1.5554 -0.8926  3.6736
   26CHL1   H1B 1896   3.785   5.611   9.992  0.1705  2.0064  1.9457
   26CHL1    C2 1897   3.851   5.579  10.187 -0.5634  0.3718  0.3303
   26CHL1   H2A 1898   3.811   5.679  10.217 -1.0533 -0.3264  2.1533
   26CHL1   H2B 1899   3.946   5.562  10.242 -0.8947 -0.4104  0.6696
   26CHL1   C20 1900   4.031   5.461   9.277  0.2030 -0.3369  0.1461
   26CHL1   H20 1901   4.124   5.405   9.299  0.6424  1.0246  2.0463
   26CHL1   C21 1902   4.060   5.609   9.283  0.4873 -0.3039 -0.2145
   26CHL1  H21A 1903   3.970   5.662   9.322  0.4802  0.2220 -0.9199
   26CHL1  H21B 1904   4.090   5.653   9.185 -0.3833  0.2078 -0.2625
   26CHL1  H21C 1905   4.149   5.617   9.349 -0.5052  0.7964  1.0513
   26CHL1   C22 1906   4.003   5.418   9.129 -0.2874 -0.1084  0.8108
   26CHL1  H22A 1907   3.957   5.317   9.134 -1.1708  0.2209 -0.2858
   26CHL1  H22B 1908   3.920   5.476   9.083 -0.9772 -0.4069  1.6597
   26CHL1   C23 1909   4.125   5.419   9.035 -0.7620 -0.5504  0.3888
   26CHL1  H23A 1910   4.184   5.512   9.040  0.0144 -1.0766  1.1766
   26CHL1  H23B 1911   4.191   5.334   9.060 -1.0312 -1.0090 -0.3960
   26CHL1   C24 1912   4.091   5.416   8.885  0.2848 -0.3351  0.0216
   26CHL1  H24A 1913   4.019   5.331   8.874  0.4982 -0.6206  0.7676
   26CHL1  H24B 1914   4.022   5.501   8.867 -0.2818 -0.9112 -0.6062
   26CHL1   C25 1915   4.205   5.401   8.784 -0.0579  0.0161 -0.2662
   26CHL1   H25 1916   4.270   5.490   8.797  2.0357 -1.4069 -0.3871
   26CHL1   C26 1917   4.282   5.274   8.814  0.0062 -0.5305  0.4921
   26CHL1  H26A 1918   4.356   5.241   8.738  1.5511 -1.5596  2.3747
   26CHL1  H26B 1919   4.334   5.276   8.912  0.8908 -3.5928  0.1898
   26CHL1  H26C 1920   4.209   5.191   8.827 -0.3004 -0.4201 -0.4093
   26CHL1   C27 1921   4.151   5.391   8.635  0.1494  0.6385 -0.4200
   26CHL1  H27A 1922   4.231   5.355   8.567  0.3050  1.8244 -0.8812
   26CHL1  H27B 1923   4.065   5.321   8.627  0.3603  0.2732  0.3383
   26CHL1  H27C 1924   4.130   5.494   8.601  0.4770  0.6602 -0.5653
   27CHL1    C3 1925   3.068   2.982  10.426 -0.1864 -0.5341  0.3794
   27CHL1    H3 1926   3.124   3.072  10.394 -1.1126 -1.2051 -3.8117
   27CHL1    O3 1927   3.058   2.980  10.562 -0.6818 -0.5246 -0.0433
   27CHL1   H3' 1928   3.080   2.891  10.590 -2.3573 -0.1304  2.9668
   27CHL1    C4 1929   2.923   3.010  10.364 -0.0309 -0.1634 -0.1187
   27CHL1   H4A 1930   2.854   2.928  10.389 -0.2104 -0.2873 -0.9947
   27CHL1   H4B 1931   2.881   3.106  10.401 -0.1293  0.4975 -1.8331
   27CHL1    C5 1932   2.920   3.011  10.212 -0.4873  0.1311  0.1476
   27CHL1    C6 1933   2.885   3.125  10.144  0.8695 -0.0071 -0.8159
   27CHL1    H6 1934   2.851   3.213  10.200  0.7469 -0.2595 -0.4882
   27CHL1    C7 1935   2.882   3.138   9.996 -0.1013  0.1389 -0.7792
   27CHL1   H7A 1936   2.786   3.187   9.966 -0.7628 -0.1683  0.7661
   27CHL1   H7B 1937   2.960   3.208   9.961  1.9029 -1.2021  0.7890
   27CHL1    C8 1938   2.914   3.001   9.922  0.7588  0.0423 -0.0832
   27CHL1    H8 1939   2.822   2.940   9.931  0.0480  0.8942 -1.2642
   27CHL1   C14 1940   2.950   3.013   9.780 -0.9685  0.2559  0.7476
   27CHL1   H14 1941   3.049   3.063   9.778 -0.1609 -1.3101 -0.1655
   27CHL1   C15 1942   2.856   3.101   9.687 -0.2622  0.1685 -0.6167
   27CHL1  H15A 1943   2.750   3.085   9.717  0.3768 -1.7602  0.8391
   27CHL1  H15B 1944   2.886   3.207   9.704 -0.1168  0.2595 -1.4125
   27CHL1   C16 1945   2.881   3.051   9.546 -0.4316 -0.0475  0.3930
   27CHL1  H16A 1946   2.782   3.026   9.501 -0.2660  0.7172 -0.4184
   27CHL1  H16B 1947   2.910   3.132   9.476 -1.1270 -0.4208 -0.3468
   27CHL1   C17 1948   2.984   2.928   9.556 -0.2642  0.0132  0.8189
   27CHL1   H17 1949   3.085   2.974   9.548  1.5690 -3.8512 -0.4626
   27CHL1   C13 1950   2.973   2.882   9.703 -0.0182  0.1955  0.3964
   27CHL1   C18 1951   2.854   2.787   9.717 -0.0494  0.2398 -0.2337
   27CHL1  H18A 1952   2.774   2.842   9.663  1.7762  2.6042 -0.7265
   27CHL1  H18B 1953   2.884   2.692   9.669 -0.8039 -0.7392  1.1727
   27CHL1  H18C 1954   2.824   2.759   9.820 -0.2382 -0.9941 -0.6047
   27CHL1   C12 1955   3.099   2.814   9.763 -0.4258 -0.0466  0.5757
   27CHL1  H12A 1956   3.125   2.712   9.728  1.7439  0.4595  0.5696
   27CHL1  H12B 1957   3.186   2.881   9.747 -0.4790  0.0532  0.7011
   27CHL1   C11 1958   3.076   2.793   9.912 -0.5877 -0.1317 -0.0809
   27CHL1  H11A 1959   3.010   2.707   9.936 -0.2761 -0.0756  1.0459
   27CHL1  H11B 1960   3.173   2.777   9.965 -0.2517  2.9754  0.4147
   27CHL1    C9 1961   3.022   2.918   9.993  0.2340  0.2428 -0.4618
   27CHL1    H9 1962   3.101   2.997   9.991 -1.0828  1.7073  1.2847
   27CHL1   C10 1963   2.996   2.893  10.148  0.2092 -0.1708  0.0819
   27CHL1   C19 1964   2.901   2.771  10.158  0.0411  0.6294  0.2249
   27CHL1  H19A 1965   2.950   2.674  10.138 -3.1907 -0.7678 -1.7409
   27CHL1  H19B 1966   2.866   2.755  10.262 -0.4292  2.3688  0.3626
   27CHL1  H19C 1967   2.809   2.781  10.096  0.4008 -1.2383 -0.6950
   27CHL1    C1 1968   3.132   2.864  10.212  0.1015  0.3260  0.1435
   27CHL1   H1A 1969   3.182   2.774  10.169  1.8587  1.7139 -0.8173
   27CHL1   H1B 1970   3.212   2.935  10.182  0.5780  0.5773  1.8963
   27CHL1    C2 1971   3.131   2.852  10.374 -0.0010  0.4738  0.6686
   27CHL1   H2A 1972   3.229   2.829  10.422 -0.4145 -0.7964  0.9440
   27CHL1   H2B 1973   3.073   2.761  10.401  1.3713 -0.8427 -0.5971
   27CHL1   C20 1974   2.984   2.835   9.439  0.4102  0.0402 -0.8645
   27CHL1   H20 1975   2.883   2.790   9.439  0.3417  0.0182  2.2820
   27CHL1   C21 1976   3.098   2.732   9.459  0.1082 -0.0635 -0.2917
   27CHL1  H21A 1977   3.072   2.661   9.541 -0.1915  1.3291  0.8616
   27CHL1  H21B 1978   3.196   2.772   9.493  0.0272  0.0234 -0.1574
   27CHL1  H21C 1979   3.126   2.682   9.364  1.3895  1.9565 -1.0164
   27CHL1   C22 1980   3.003   2.906   9.301 -0.5114 -0.2610 -0.5113
   27CHL1  H22A 1981   2.927   2.987   9.290  1.0828  1.3749  0.0072
   27CHL1  H22B 1982   3.098   2.958   9.276 -0.2069 -2.0001 -3.3941
   27CHL1   C23 1983   2.989   2.819   9.175  0.1485  0.1973  0.3075
   27CHL1  H23A 1984   3.088   2.776   9.152  0.6195  0.7024  1.3583
   27CHL1  H23B 1985   2.917   2.737   9.192  1.8629 -0.9101  2.6335
   27CHL1   C24 1986   2.940   2.898   9.043 -0.2172  0.3062  0.5270
   27CHL1  H24A 1987   2.832   2.925   9.049 -0.2932  0.0607  0.2579
   27CHL1  H24B 1988   3.006   2.987   9.031  1.3412 -0.6659  1.5150
   27CHL1   C25 1989   2.950   2.826   8.909  0.9418  0.6002 -1.0085
   27CHL1   H25 1990   2.881   2.741   8.922 -2.9296  3.0223 -3.4365
   27CHL1   C26 1991   2.887   2.901   8.794  0.1824  0.2006 -0.8447
   27CHL1  H26A 1992   2.908   2.857   8.695 -0.1299  0.9505 -1.2580
   27CHL1  H26B 1993   2.777   2.908   8.809  0.2179  0.2018 -0.5814
   27CHL1  H26C 1994   2.931   3.001   8.773 -0.3305 -0.0392 -3.3217
   27CHL1   C27 1995   3.096   2.795   8.880  0.2520 -0.0449 -0.5848
   27CHL1  H27A 1996   3.096   2.776   8.771 -2.7826 -1.4675 -0.4513
   27CHL1  H27B 1997   3.164   2.875   8.915 -0.0535 -0.4113  0.9115
   27CHL1  H27C 1998   3.126   2.702   8.933  2.9493  1.1068  0.0782
   28CHL1    C3 1999   2.091   1.583   9.975 -0.1225  0.5611 -0.2298
   28CHL1    H3 2000   2.188   1.636   9.959 -1.3196  3.3721  1.1124
   28CHL1    O3 2001   2.087   1.530  10.107 -0.2968 -0.0643 -0.3025
   28CHL1   H3' 2002   2.061   1.605  10.161 -0.2806 -0.0100 -0.3692
   28CHL1    C4 2003   1.969   1.675   9.956 -1.4711  0.0191  0.6384
   28CHL1   H4A 2004   1.878   1.621   9.990 -1.5666 -0.1505  0.1159
   28CHL1   H4B 2005   1.989   1.757  10.028  4.8348 -3.6493  4.0231
   28CHL1    C5 2006   1.952   1.714   9.806 -0.0811  0.7721 -0.9130
   28CHL1    C6 2007   1.936   1.842   9.775 -0.4230 -0.0883 -0.1540
   28CHL1    H6 2008   1.925   1.914   9.858  0.9733 -0.9557  0.8182
   28CHL1    C7 2009   1.904   1.886   9.639  0.6283  0.2409  0.3668
   28CHL1   H7A 2010   1.827   1.966   9.638 -0.0966 -0.4382 -1.4010
   28CHL1   H7B 2011   1.995   1.924   9.588 -0.1563 -0.2764 -1.5073
   28CHL1    C8 2012   1.869   1.770   9.539 -0.1420 -0.6586 -0.1949
   28CHL1    H8 2013   1.763   1.745   9.557  0.1112 -1.2909  0.4848
   28CHL1   C14 2014   1.877   1.815   9.396 -0.3597  0.0701 -0.1217
   28CHL1   H14 2015   1.984   1.844   9.384  0.0175 -0.6191  1.2593
   28CHL1   C15 2016   1.800   1.942   9.362  0.6103  1.0235 -0.1978
   28CHL1  H15A 2017   1.699   1.941   9.409  0.2324  1.4261 -0.9652
   28CHL1  H15B 2018   1.855   2.034   9.388  0.2703  1.0387  0.4675
   28CHL1   C16 2019   1.794   1.938   9.214  0.7557 -0.6317 -0.1039
   28CHL1  H16A 2020   1.688   1.940   9.179  1.0309  0.9703 -0.9338
   28CHL1  H16B 2021   1.845   2.024   9.166  0.7165 -1.7195 -2.2187
   28CHL1   C17 2022   1.873   1.807   9.161  0.9485  0.1370  0.2446
   28CHL1   H17 2023   1.975   1.847   9.143 -0.1303  3.3324  0.4615
   28CHL1   C13 2024   1.862   1.709   9.286  0.4680  0.5592  0.0788
   28CHL1   C18 2025   1.726   1.645   9.287 -0.2216  0.5136 -0.3560
   28CHL1  H18A 2026   1.714   1.567   9.209 -2.8530  0.9758 -0.5216
   28CHL1  H18B 2027   1.693   1.609   9.387  0.5198  0.9827  0.0658
   28CHL1  H18C 2028   1.647   1.717   9.256 -0.1499 -0.0117 -1.8567
   28CHL1   C12 2029   1.969   1.599   9.304 -0.3399  0.0708 -0.1043
   28CHL1  H12A 2030   1.946   1.519   9.231 -0.9491  0.0596  0.0967
   28CHL1  H12B 2031   2.071   1.639   9.282 -0.7809  1.0285 -0.4610
   28CHL1   C11 2032   1.967   1.544   9.442  0.1757 -0.0614  0.0786
   28CHL1  H11A 2033   1.887   1.469   9.458  1.5913 -1.3756  1.3120
   28CHL1  H11B 2034   2.062   1.487   9.452  1.9605  2.7356  0.2290
   28CHL1    C9 2035   1.966   1.653   9.555 -0.4787 -0.1150 -0.3735
   28CHL1    H9 2036   2.070   1.690   9.540 -0.7306  0.4572 -0.7331
   28CHL1   C10 2037   1.972   1.598   9.702 -0.2926 -0.1408  0.3059
   28CHL1   C19 2038   1.841   1.516   9.714 -0.3289  0.3799  0.2391
   28CHL1  H19A 2039   1.813   1.488   9.818 -1.6838  3.4395  0.8007
   28CHL1  H19B 2040   1.750   1.563   9.671  0.4123  0.2775 -1.5068
   28CHL1  H19C 2041   1.855   1.426   9.651 -0.8905  0.9074 -0.6510
   28CHL1    C1 2042   2.079   1.501   9.735 -0.1397  0.4097  0.5960
   28CHL1   H1A 2043   2.081   1.412   9.669 -2.5121 -1.6366  3.0275
   28CHL1   H1B 2044   2.178   1.551   9.721 -0.5007  1.3586  1.2997
   28CHL1    C2 2045   2.083   1.462   9.885  0.2669  0.5180 -0.2218
   28CHL1   H2A 2046   2.170   1.394   9.895 -1.5708 -2.1322 -1.0679
   28CHL1   H2B 2047   1.995   1.401   9.914 -0.1935  0.7447 -1.0978
   28CHL1   C20 2048   1.807   1.764   9.029  0.3552 -0.8104  0.2880
   28CHL1   H20 2049   1.710   1.718   9.057  0.5354 -0.7616  1.0079
   28CHL1   C21 2050   1.881   1.660   8.949  0.9334  0.8722  0.5008
   28CHL1  H21A 2051   1.987   1.691   8.935  0.8375  0.5606 -0.9718
   28CHL1  H21B 2052   1.829   1.645   8.852  1.5818 -0.6365  0.3554
   28CHL1  H21C 2053   1.871   1.561   8.999 -2.4130 -0.1801 -1.8811
   28CHL1   C22 2054   1.777   1.884   8.935 -0.0793  0.2263 -0.0182
   28CHL1  H22A 2055   1.724   1.845   8.846 -0.6902  1.2263 -0.0984
   28CHL1  H22B 2056   1.715   1.964   8.980 -1.2669 -0.1471 -0.9371
   28CHL1   C23 2057   1.908   1.955   8.892 -0.7620 -0.1772  0.7054
   28CHL1  H23A 2058   1.953   2.001   8.983  2.2773 -0.7704 -0.4100
   28CHL1  H23B 2059   1.986   1.886   8.855 -0.5560  0.5577 -0.2547
   28CHL1   C24 2060   1.891   2.062   8.782  0.3968 -0.2103 -0.4320
   28CHL1  H24A 2061   1.823   2.022   8.704 -1.0708  2.7240 -0.8166
   28CHL1  H24B 2062   1.851   2.162   8.809 -1.5803 -1.1106  0.1564
   28CHL1   C25 2063   2.025   2.088   8.702 -0.2429 -0.0665 -0.3581
   28CHL1   H25 2064   2.082   1.993   8.697  2.0466  0.9434  3.2825
   28CHL1   C26 2065   2.000   2.130   8.559  0.2768 -0.4274  0.0360
   28CHL1  H26A 2066   1.935   2.054   8.510 -1.7170 -0.5132  2.5948
   28CHL1  H26B 2067   1.953   2.230   8.552 -0.7608 -0.7527  1.7873
   28CHL1  H26C 2068   2.093   2.137   8.498  0.7850 -1.8718  0.6039
   28CHL1   C27 2069   2.124   2.186   8.771 -0.1745  0.5412 -0.1683
   28CHL1  H27A 2070   2.139   2.152   8.875  0.1554  0.2202 -0.3210
   28CHL1  H27B 2071   2.227   2.194   8.732  0.2755  1.8982  1.2059
   28CHL1  H27C 2072   2.081   2.289   8.769 -0.8330  0.3389  1.8192
   29CHL1    C3 2073   3.277   0.257   6.700  0.4000  0.5843 -0.2805
   29CHL1    H3 2074   3.177   0.299   6.722 -0.0664 -1.5630  2.2011
   29CHL1    O3 2075   3.277   0.231   6.561  0.6620  0.3694 -0.5752
   29CHL1   H3' 2076   3.188   0.200   6.543 -1.3869  3.0317  3.3854
   29CHL1    C4 2077   3.375   0.356   6.755  0.4474 -0.5902  0.2653
   29CHL1   H4A 2078   3.478   0.322   6.732  0.9714 -0.3382  2.0265
   29CHL1   H4B 2079   3.374   0.450   6.697 -2.5176 -1.0404 -0.5806
   29CHL1    C5 2080   3.353   0.374   6.901  0.1205 -0.2517 -0.0278
   29CHL1    C6 2081   3.339   0.496   6.948 -0.4472  0.1940 -0.5977
   29CHL1    H6 2082   3.356   0.582   6.882 -0.8936 -0.2420 -1.2985
   29CHL1    C7 2083   3.330   0.538   7.092  0.5541 -0.2445  0.4858
   29CHL1   H7A 2084   3.389   0.631   7.107  0.4376 -0.0956  0.0410
   29CHL1   H7B 2085   3.223   0.555   7.118  0.4867 -3.8605  3.4227
   29CHL1    C8 2086   3.375   0.421   7.181 -0.2956  1.1898  0.1791
   29CHL1    H8 2087   3.485   0.405   7.180 -0.4002 -0.0995  2.4100
   29CHL1   C14 2088   3.315   0.454   7.315 -0.5562  0.7249 -0.5436
   29CHL1   H14 2089   3.204   0.453   7.313 -0.6940 -2.6551  1.5638
   29CHL1   C15 2090   3.357   0.595   7.382  0.7857  0.4490  0.3990
   29CHL1  H15A 2091   3.465   0.600   7.359  1.0613  0.9521  1.6742
   29CHL1  H15B 2092   3.294   0.679   7.346 -0.8978 -1.4584 -1.4025
   29CHL1   C16 2093   3.340   0.566   7.532  0.7721  0.5318 -0.9104
   29CHL1  H16A 2094   3.435   0.584   7.586  0.4924  1.8085 -0.8030
   29CHL1  H16B 2095   3.258   0.637   7.559  0.6007  0.3327 -0.9031
   29CHL1   C17 2096   3.295   0.418   7.551 -0.1719  0.4136 -0.1988
   29CHL1   H17 2097   3.186   0.419   7.533  0.0372  1.0182 -1.6005
   29CHL1   C13 2098   3.349   0.349   7.428 -0.1433  0.9462  0.3283
   29CHL1   C18 2099   3.506   0.332   7.441 -0.2436 -0.2015  0.0043
   29CHL1  H18A 2100   3.528   0.251   7.513 -0.4552  1.6585  2.2852
   29CHL1  H18B 2101   3.560   0.310   7.346 -1.2341 -1.8035 -0.2206
   29CHL1  H18C 2102   3.542   0.432   7.474  0.9236  0.1863 -2.2325
   29CHL1   C12 2103   3.290   0.213   7.386  0.4383  0.2704  0.5591
   29CHL1  H12A 2104   3.305   0.126   7.452  1.3795  1.0807  1.4563
   29CHL1  H12B 2105   3.182   0.223   7.363  0.9021  0.5163 -1.7214
   29CHL1   C11 2106   3.336   0.182   7.236  0.7368  0.4413 -0.0414
   29CHL1  H11A 2107   3.441   0.146   7.239 -0.1330 -2.3518  0.0674
   29CHL1  H11B 2108   3.271   0.099   7.199 -0.4650  1.1787  0.3379
   29CHL1    C9 2109   3.316   0.288   7.132  0.2966 -0.0143 -0.5401
   29CHL1    H9 2110   3.206   0.305   7.133  0.1916 -0.4861 -2.0417
   29CHL1   C10 2111   3.351   0.249   6.985  0.2293 -0.2279 -0.1491
   29CHL1   C19 2112   3.499   0.190   6.982  0.2749  0.7050  0.4177
   29CHL1  H19A 2113   3.499   0.085   7.017 -2.6697  0.4503 -0.0983
   29CHL1  H19B 2114   3.535   0.183   6.877 -0.8679  1.3162 -0.0301
   29CHL1  H19C 2115   3.569   0.258   7.035  2.6181 -0.2984 -1.1793
   29CHL1    C1 2116   3.257   0.144   6.922 -0.3714 -0.7488 -0.5980
   29CHL1   H1A 2117   3.266   0.044   6.969 -3.0132 -0.7328  0.0950
   29CHL1   H1B 2118   3.152   0.170   6.949 -0.3575 -1.8163  0.5871
   29CHL1    C2 2119   3.276   0.124   6.769  0.2538  0.7230 -0.6798
   29CHL1   H2A 2120   3.202   0.054   6.725 -1.5293  1.9360  0.3115
   29CHL1   H2B 2121   3.373   0.073   6.749 -0.0692  0.0360 -0.5312
   29CHL1   C20 2122   3.317   0.348   7.687 -0.7569  0.2528  0.4482
   29CHL1   H20 2123   3.325   0.237   7.680 -1.6741  0.2121 -0.0936
   29CHL1   C21 2124   3.183   0.368   7.757 -0.4611 -0.3220  0.2548
   29CHL1  H21A 2125   3.171   0.309   7.851 -0.4089 -2.4986 -1.0460
   29CHL1  H21B 2126   3.088   0.339   7.707  0.2875 -0.0246 -1.3840
   29CHL1  H21C 2127   3.173   0.474   7.789  0.7315 -0.2293  0.3601
   29CHL1   C22 2128   3.437   0.405   7.765  0.8392 -0.1662  0.5472
   29CHL1  H22A 2129   3.537   0.387   7.720  0.3136  0.8000 -1.0905
   29CHL1  H22B 2130   3.421   0.513   7.788  0.3058 -0.2152  0.3978
   29CHL1   C23 2131   3.467   0.345   7.903  0.5394  0.6044 -0.2609
   29CHL1  H23A 2132   3.376   0.351   7.966  0.0105 -0.7317 -0.8722
   29CHL1  H23B 2133   3.492   0.236   7.898  1.6334  0.7639  1.0516
   29CHL1   C24 2134   3.580   0.423   7.969 -0.3001 -0.4848 -0.1967
   29CHL1  H24A 2135   3.668   0.391   7.910 -1.6981 -0.1282 -2.6203
   29CHL1  H24B 2136   3.560   0.532   7.956  1.2551 -0.0347  0.8559
   29CHL1   C25 2137   3.596   0.394   8.124  0.5695 -0.7027  0.8536
   29CHL1   H25 2138   3.497   0.422   8.164  0.6793  1.5059 -0.2523
   29CHL1   C26 2139   3.632   0.251   8.159 -0.2611  0.1445 -0.1882
   29CHL1  H26A 2140   3.714   0.222   8.090 -0.9933 -1.1632 -0.5458
   29CHL1  H26B 2141   3.654   0.247   8.268  0.4792 -0.3320 -0.3449
   29CHL1  H26C 2142   3.548   0.182   8.135 -0.4965 -0.3305  1.8477
   29CHL1   C27 2143   3.707   0.487   8.180  0.3368 -0.4612  0.3565
   29CHL1  H27A 2144   3.682   0.588   8.143  0.7689 -0.7386 -0.7327
   29CHL1  H27B 2145   3.719   0.499   8.290  1.6896  1.7232  0.0206
   29CHL1  H27C 2146   3.806   0.462   8.136  1.3224  0.5089  1.9141
   30CHL1    C3 2147   1.143   4.895   7.232  0.6094 -0.0755  0.3514
   30CHL1    H3 2148   1.065   4.975   7.229  0.2428 -0.4262  0.4365
   30CHL1    O3 2149   1.181   4.862   7.100 -0.3796  0.7582  0.5613
   30CHL1   H3' 2150   1.106   4.842   7.044  1.1272 -0.9540 -0.9834
   30CHL1    C4 2151   1.267   4.939   7.315 -0.9099  0.0903  0.4361
   30CHL1   H4A 2152   1.352   4.872   7.291 -0.9750  0.2291 -0.2026
   30CHL1   H4B 2153   1.302   5.033   7.268  1.5113 -0.2752  1.3934
   30CHL1    C5 2154   1.235   4.959   7.464  0.4688 -0.0447  0.3335
   30CHL1    C6 2155   1.245   5.081   7.519  0.1453  0.2981 -0.0965
   30CHL1    H6 2156   1.296   5.151   7.451  3.4819 -0.9988  0.8337
   30CHL1    C7 2157   1.237   5.102   7.669  0.4091 -0.3982 -0.2474
   30CHL1   H7A 2158   1.321   5.160   7.712 -1.6658  2.5536  0.1632
   30CHL1   H7B 2159   1.144   5.160   7.690 -0.1957 -0.1446 -3.1536
   30CHL1    C8 2160   1.229   4.971   7.738  0.3149  0.4812 -0.7401
   30CHL1    H8 2161   1.331   4.928   7.742  1.2737  2.5771 -1.4078
   30CHL1   C14 2162   1.187   5.003   7.880 -0.3678 -0.1865 -0.5430
   30CHL1   H14 2163   1.084   5.043   7.884 -0.6636 -1.0435  2.0772
   30CHL1   C15 2164   1.281   5.104   7.950  0.1811 -0.6361 -0.5130
   30CHL1  H15A 2165   1.386   5.073   7.933  0.3361 -0.1551 -0.4374
   30CHL1  H15B 2166   1.273   5.207   7.909 -0.2578 -0.3510  0.2666
   30CHL1   C16 2167   1.247   5.085   8.099 -0.7066 -0.1810  0.3816
   30CHL1  H16A 2168   1.339   5.090   8.161 -1.3272  1.0853  1.2383
   30CHL1  H16B 2169   1.183   5.169   8.134 -1.3389  1.2790 -3.7245
   30CHL1   C17 2170   1.171   4.949   8.108 -0.4940  0.3100  0.5597
   30CHL1   H17 2171   1.065   4.983   8.118 -0.1377  1.0988  1.9142
   30CHL1   C13 2172   1.181   4.882   7.965  0.3373 -0.0562  0.0710
   30CHL1   C18 2173   1.327   4.808   7.968  0.2581 -0.2685  0.1747
   30CHL1  H18A 2174   1.399   4.878   8.016 -0.4864  1.4047 -1.0611
   30CHL1  H18B 2175   1.322   4.714   8.027  0.3965 -1.0363 -1.0001
   30CHL1  H18C 2176   1.372   4.779   7.871  1.0731 -0.5080  0.6113
   30CHL1   C12 2177   1.067   4.787   7.915 -0.5989 -1.2763  0.1223
   30CHL1  H12A 2178   1.046   4.697   7.975  1.0601  0.1667  3.0969
   30CHL1  H12B 2179   0.974   4.847   7.920  0.2566  0.0319  1.1158
   30CHL1   C11 2180   1.099   4.751   7.766 -0.5051 -0.3083  0.5882
   30CHL1  H11A 2181   1.186   4.684   7.778  0.8341  1.3525  0.6200
   30CHL1  H11B 2182   1.021   4.688   7.719 -0.0871 -1.5226  1.4788
   30CHL1    C9 2183   1.127   4.871   7.675 -0.1540  0.6382 -0.0706
   30CHL1    H9 2184   1.027   4.919   7.671  0.5050  2.0411 -0.3325
   30CHL1   C10 2185   1.172   4.836   7.530  0.4464 -0.8338  0.3915
   30CHL1   C19 2186   1.275   4.720   7.540 -0.2822  0.2515  0.1271
   30CHL1  H19A 2187   1.228   4.621   7.560  2.5602 -0.9766  1.2690
   30CHL1  H19B 2188   1.334   4.699   7.448 -2.3006 -0.5597 -1.0603
   30CHL1  H19C 2189   1.352   4.748   7.615 -0.9887  1.6739  0.3575
   30CHL1    C1 2190   1.052   4.792   7.446  0.5877  0.4895 -0.5950
   30CHL1   H1A 2191   1.009   4.696   7.483 -2.9418  2.3344  0.5330
   30CHL1   H1B 2192   0.971   4.868   7.448 -0.2466 -0.2597 -2.7534
   30CHL1    C2 2193   1.075   4.774   7.296 -0.4519 -0.4141  0.3818
   30CHL1   H2A 2194   0.982   4.754   7.239 -1.0723  1.7827  0.5411
   30CHL1   H2B 2195   1.155   4.699   7.279 -0.1118 -0.1581  0.8256
   30CHL1   C20 2196   1.193   4.865   8.229 -0.3510 -0.3432 -0.4377
   30CHL1   H20 2197   1.302   4.842   8.237 -0.5524 -1.0020  0.8859
   30CHL1   C21 2198   1.125   4.726   8.223  0.0010  0.0856  0.4772
   30CHL1  H21A 2199   1.016   4.733   8.206  0.5282  1.9487 -3.3152
   30CHL1  H21B 2200   1.144   4.677   8.320  2.3131 -2.5531 -1.1456
   30CHL1  H21C 2201   1.162   4.654   8.147 -1.3338 -1.7868  1.5323
   30CHL1   C22 2202   1.154   4.932   8.357  0.0944 -0.5810  0.4802
   30CHL1  H22A 2203   1.187   5.038   8.354 -0.4403 -0.3058  2.4646
   30CHL1  H22B 2204   1.043   4.923   8.356 -0.0013 -0.1601 -2.6311
   30CHL1   C23 2205   1.223   4.874   8.483  0.0377  0.2726 -0.3683
   30CHL1  H23A 2206   1.192   4.769   8.500 -2.4435  1.4512  3.6914
   30CHL1  H23B 2207   1.334   4.881   8.482  0.1614 -1.2397 -1.1712
   30CHL1   C24 2208   1.164   4.944   8.603 -0.6612 -0.3667 -0.1717
   30CHL1  H24A 2209   1.056   4.962   8.589 -1.2843 -1.2734  2.8199
   30CHL1  H24B 2210   1.188   4.887   8.695 -1.4957  1.8134  1.4997
   30CHL1   C25 2211   1.230   5.088   8.623  0.9648  0.1588 -0.4209
   30CHL1   H25 2212   1.269   5.131   8.529  0.3527  1.4490 -0.1097
   30CHL1   C26 2213   1.139   5.175   8.697  0.1779  0.2957 -0.0515
   30CHL1  H26A 2214   1.183   5.277   8.700 -0.2875  0.4868  0.4835
   30CHL1  H26B 2215   1.035   5.182   8.660  0.5713  0.7254 -1.1307
   30CHL1  H26C 2216   1.132   5.137   8.801  0.9023 -1.7545 -0.6933
   30CHL1   C27 2217   1.354   5.075   8.715  0.1369  0.2184  0.1066
   30CHL1  H27A 2218   1.434   5.024   8.657  2.1996  2.3277  0.9455
   30CHL1  H27B 2219   1.380   5.171   8.763 -0.2678 -0.0611  0.9044
   30CHL1  H27C 2220   1.333   5.004   8.798 -0.7756 -0.5607 -0.7650
   31CHL1    C3 2221   0.284   0.918   6.566 -0.4055  0.2476 -0.1954
   31CHL1    H3 2222   0.229   1.011   6.592 -1.8986 -0.7439  0.3511
   31CHL1    O3 2223   0.338   0.941   6.437 -0.0791  0.0527 -0.1564
   31CHL1   H3' 2224   0.406   0.874   6.433 -0.0258 -0.0477  1.6643
   31CHL1    C4 2225   0.407   0.880   6.649 -0.4691 -0.0191 -0.5682
   31CHL1   H4A 2226   0.445   0.783   6.611  0.1753  0.2707 -0.6758
   31CHL1   H4B 2227   0.488   0.955   6.636  1.0082 -1.7142 -1.6234
   31CHL1    C5 2228   0.371   0.862   6.799  0.6762 -0.3781 -0.3864
   31CHL1    C6 2229   0.434   0.936   6.895  0.6452 -0.0130  0.4725
   31CHL1    H6 2230   0.519   1.003   6.872 -0.5237  1.4077  0.1565
   31CHL1    C7 2231   0.397   0.928   7.038 -0.1356  0.5176  0.0071
   31CHL1   H7A 2232   0.487   0.904   7.098 -1.4932 -2.3057  1.1370
   31CHL1   H7B 2233   0.355   1.020   7.083 -1.2803 -0.0055  0.0405
   31CHL1    C8 2234   0.305   0.805   7.068  0.0377  0.3178  0.1990
   31CHL1    H8 2235   0.366   0.713   7.063 -1.9344 -1.0320 -0.1500
   31CHL1   C14 2236   0.252   0.825   7.208  0.1409 -0.8035  0.2802
   31CHL1   H14 2237   0.184   0.912   7.196  0.5808 -0.6357 -1.2756
   31CHL1   C15 2238   0.346   0.867   7.322  0.7535  0.2807  0.6694
   31CHL1  H15A 2239   0.443   0.814   7.319  0.7402  0.2827 -1.8006
   31CHL1  H15B 2240   0.364   0.977   7.318  1.6229  0.1916  1.8189
   31CHL1   C16 2241   0.262   0.828   7.449 -0.0463  0.6561  0.0968
   31CHL1  H16A 2242   0.329   0.766   7.513 -0.6009  0.5255  0.5569
   31CHL1  H16B 2243   0.236   0.921   7.505 -0.4091 -1.4615  3.7766
   31CHL1   C17 2244   0.133   0.769   7.398  0.6145  0.1423  0.0873
   31CHL1   H17 2245   0.063   0.853   7.380 -0.8447 -1.0958 -0.2522
   31CHL1   C13 2246   0.165   0.710   7.262  0.0841 -0.3575  0.2008
   31CHL1   C18 2247   0.261   0.579   7.266  0.0300 -0.2419 -0.1529
   31CHL1  H18A 2248   0.314   0.556   7.171  0.7173 -1.5281  0.5141
   31CHL1  H18B 2249   0.336   0.587   7.347  0.6784  0.4526 -0.8109
   31CHL1  H18C 2250   0.189   0.503   7.303  0.7004 -0.1384  1.4561
   31CHL1   C12 2251   0.056   0.688   7.161 -0.5851 -0.8095  0.1362
   31CHL1  H12A 2252  -0.019   0.611   7.190 -0.7175 -0.4625  0.7288
   31CHL1  H12B 2253   0.001   0.784   7.155  1.6738  0.5285 -0.2595
   31CHL1   C11 2254   0.109   0.668   7.012 -0.2588  0.1285 -0.6314
   31CHL1  H11A 2255   0.162   0.571   7.010 -0.4478  0.0135 -0.1472
   31CHL1  H11B 2256   0.024   0.645   6.945  0.5412  3.2777 -2.9833
   31CHL1    C9 2257   0.193   0.785   6.965 -0.0041  0.3590  0.4465
   31CHL1    H9 2258   0.138   0.882   6.970 -0.1944  0.2044  1.9314
   31CHL1   C10 2259   0.251   0.768   6.826 -0.7259 -0.4256  1.1461
   31CHL1   C19 2260   0.303   0.627   6.799 -0.1202 -0.1474  0.3321
   31CHL1  H19A 2261   0.216   0.558   6.805  0.0405 -0.2480  1.9000
   31CHL1  H19B 2262   0.350   0.613   6.700 -4.2159 -0.1043 -1.8533
   31CHL1  H19C 2263   0.365   0.586   6.882  0.8785 -1.6842 -1.1229
   31CHL1    C1 2264   0.138   0.792   6.720  0.1867  0.4917 -0.1639
   31CHL1   H1A 2265   0.049   0.726   6.722  2.2885 -2.5948 -0.8839
   31CHL1   H1B 2266   0.089   0.888   6.746 -2.0229 -1.6365  4.6632
   31CHL1    C2 2267   0.190   0.803   6.574 -0.7048  0.5044  0.0391
   31CHL1   H2A 2268   0.117   0.818   6.492  2.4422  3.8843 -2.4571
   31CHL1   H2B 2269   0.248   0.712   6.546 -1.2282 -0.8107  2.8859
   31CHL1   C20 2270   0.070   0.679   7.509  1.0141  0.9989 -0.3871
   31CHL1   H20 2271   0.145   0.599   7.532  0.6176  0.6682 -0.2348
   31CHL1   C21 2272  -0.058   0.612   7.440  0.0687 -0.5432  0.7100
   31CHL1  H21A 2273  -0.111   0.695   7.390  2.1997  1.9034  2.2491
   31CHL1  H21B 2274  -0.130   0.578   7.518  1.6452  0.2361  2.5894
   31CHL1  H21C 2275  -0.028   0.530   7.371  1.6033  1.8424 -1.6569
   31CHL1   C22 2276   0.033   0.766   7.637 -0.5273 -0.5518  0.5219
   31CHL1  H22A 2277   0.129   0.806   7.676  0.3867 -2.0033 -0.1705
   31CHL1  H22B 2278  -0.041   0.839   7.599 -0.9261 -0.7056  0.9877
   31CHL1   C23 2279  -0.023   0.685   7.760  0.6071 -0.3967 -0.7906
   31CHL1  H23A 2280  -0.050   0.763   7.835 -1.1782  1.0096 -2.7505
   31CHL1  H23B 2281  -0.115   0.625   7.747  0.2185  0.2031 -0.8646
   31CHL1   C24 2282   0.092   0.598   7.817  0.5422  0.1961  0.3973
   31CHL1  H24A 2283   0.143   0.533   7.744 -0.1414 -0.4158  0.4475
   31CHL1  H24B 2284   0.167   0.674   7.849  2.7191 -0.9339 -1.7339
   31CHL1   C25 2285   0.054   0.499   7.933 -0.0761  0.0199  0.7041
   31CHL1   H25 2286  -0.023   0.429   7.893 -0.8981  1.0259  0.4969
   31CHL1   C26 2287   0.173   0.423   7.979  0.4145 -0.4679 -0.0066
   31CHL1  H26A 2288   0.156   0.348   8.058 -0.5821 -0.5398 -0.2830
   31CHL1  H26B 2289   0.208   0.371   7.888 -0.4916 -0.6019 -0.2887
   31CHL1  H26C 2290   0.249   0.496   8.014  0.4833  0.6091 -2.2222
   31CHL1   C27 2291  -0.025   0.564   8.046 -0.2008 -0.5610 -0.0640
   31CHL1  H27A 2292  -0.048   0.502   8.136  1.4108 -1.2277 -0.0720
   31CHL1  H27B 2293  -0.123   0.606   8.014  1.1293 -0.5650 -4.9752
   31CHL1  H27C 2294   0.041   0.640   8.093 -2.3827  0.8581  0.8443
   32CHL1    C3 2295   1.714   4.918   6.848  0.5104 -1.1899 -0.6828
   32CHL1    H3 2296   1.607   4.892   6.857  0.6493 -1.9544 -1.0990
   32CHL1    O3 2297   1.751   4.896   6.711  0.2618 -0.4671  0.4288
   32CHL1   H3' 2298   1.847   4.901   6.711  0.3262  0.7665 -2.9120
   32CHL1    C4 2299   1.720   5.068   6.896 -0.3874  0.8514 -0.2144
   32CHL1   H4A 2300   1.824   5.094   6.868  0.1269 -1.5914 -0.8128
   32CHL1   H4B 2301   1.660   5.130   6.825 -1.5353 -0.5858 -0.5640
   32CHL1    C5 2302   1.686   5.089   7.039  0.1184  0.0297 -1.0823
   32CHL1    C6 2303   1.594   5.179   7.084  0.1906  0.7090  0.4610
   32CHL1    H6 2304   1.524   5.228   7.014 -1.9750 -0.5732  1.5945
   32CHL1    C7 2305   1.576   5.210   7.230  1.0628 -0.3043 -0.9247
   32CHL1   H7A 2306   1.561   5.320   7.234  2.7016  0.0462 -2.8150
   32CHL1   H7B 2307   1.485   5.159   7.269 -0.7188  2.0808 -1.7604
   32CHL1    C8 2308   1.697   5.162   7.330  0.5550 -0.4324 -0.8848
   32CHL1    H8 2309   1.779   5.237   7.334 -0.4914  0.7070  2.3864
   32CHL1   C14 2310   1.650   5.156   7.474 -0.0152 -0.8798  0.5306
   32CHL1   H14 2311   1.580   5.070   7.482 -0.0762 -0.7047  2.4155
   32CHL1   C15 2312   1.584   5.281   7.533 -0.7310  0.5218  0.1933
   32CHL1  H15A 2313   1.619   5.366   7.471  1.5960  0.7000  1.6300
   32CHL1  H15B 2314   1.479   5.251   7.512 -1.3432  0.9340  2.3796
   32CHL1   C16 2315   1.622   5.272   7.682 -0.5787  0.1540 -0.0160
   32CHL1  H16A 2316   1.671   5.359   7.731 -1.6873 -0.5041  2.4121
   32CHL1  H16B 2317   1.525   5.272   7.736 -0.5303 -1.1072  0.0990
   32CHL1   C17 2318   1.696   5.138   7.707  0.5914 -1.2628  0.2787
   32CHL1   H17 2319   1.614   5.066   7.727 -0.6750  0.4036  1.4094
   32CHL1   C13 2320   1.766   5.120   7.574  0.5164  0.6425  0.6470
   32CHL1   C18 2321   1.890   5.211   7.563  0.0251 -0.1054 -0.3741
   32CHL1  H18A 2322   1.862   5.319   7.568 -0.0888 -0.0935 -1.1354
   32CHL1  H18B 2323   1.952   5.180   7.650  0.5975 -0.1409 -0.7845
   32CHL1  H18C 2324   1.935   5.191   7.464 -0.5565  1.4820 -0.9954
   32CHL1   C12 2325   1.816   4.975   7.533 -0.2901  0.2645 -0.6679
   32CHL1  H12A 2326   1.889   4.944   7.611 -0.5663  0.8733 -0.1522
   32CHL1  H12B 2327   1.739   4.898   7.552  1.1821 -1.5805 -1.8880
   32CHL1   C11 2328   1.852   4.958   7.387  1.1201  0.2138  0.1477
   32CHL1  H11A 2329   1.958   4.984   7.366  1.1685 -1.1112 -1.4636
   32CHL1  H11B 2330   1.861   4.847   7.379  1.7240  0.2537  0.2346
   32CHL1    C9 2331   1.745   5.019   7.287  0.2018 -1.1836 -0.0970
   32CHL1    H9 2332   1.652   4.961   7.302 -0.0727 -0.1875  2.6607
   32CHL1   C10 2333   1.778   5.006   7.133  0.3939 -0.3234  0.6735
   32CHL1   C19 2334   1.923   5.077   7.116  0.9418  0.1219 -0.0293
   32CHL1  H19A 2335   2.000   5.025   7.176  0.8956 -0.4491 -0.4489
   32CHL1  H19B 2336   1.957   5.080   7.010  0.1126  2.4424 -0.2831
   32CHL1  H19C 2337   1.908   5.181   7.152 -0.3242  0.2228 -0.7828
   32CHL1    C1 2338   1.764   4.858   7.092 -0.3947 -0.3400 -0.6586
   32CHL1   H1A 2339   1.841   4.802   7.149  0.9595  1.3937 -0.7214
   32CHL1   H1B 2340   1.658   4.832   7.113 -0.7244  1.6680  0.4078
   32CHL1    C2 2341   1.801   4.835   6.941  0.1795 -0.3571  0.7009
   32CHL1   H2A 2342   1.792   4.730   6.907 -1.1287 -0.0915  0.1752
   32CHL1   H2B 2343   1.908   4.862   6.930  0.2997 -0.2671  1.8956
   32CHL1   C20 2344   1.772   5.136   7.842  0.0988 -0.4502 -0.2183
   32CHL1   H20 2345   1.846   5.219   7.836 -1.1404  0.6514 -1.0538
   32CHL1   C21 2346   1.846   4.998   7.863  0.1222 -0.0685 -0.1219
   32CHL1  H21A 2347   1.940   5.004   7.803  0.7647 -0.4375  0.8279
   32CHL1  H21B 2348   1.771   4.920   7.839 -0.5911 -0.1986  2.2870
   32CHL1  H21C 2349   1.872   4.979   7.969 -1.0766  1.1079  0.4130
   32CHL1   C22 2350   1.686   5.176   7.960  0.7592 -0.3179  0.6172
   32CHL1  H22A 2351   1.624   5.263   7.932  0.3454 -1.8491 -3.9445
   32CHL1  H22B 2352   1.622   5.088   7.980 -0.8367  0.8292  0.6982
   32CHL1   C23 2353   1.768   5.211   8.086  0.4383 -0.7378 -0.6384
   32CHL1  H23A 2354   1.831   5.126   8.120 -0.7060 -1.1354  0.5860
   32CHL1  H23B 2355   1.829   5.302   8.062  1.2737 -1.0886  0.0824
   32CHL1   C24 2356   1.666   5.233   8.204 -0.1853  0.3717 -0.0251
   32CHL1  H24A 2357   1.608   5.325   8.180 -0.0285  0.0847 -1.6431
   32CHL1  H24B 2358   1.598   5.145   8.201 -0.3293  0.4969 -0.7471
   32CHL1   C25 2359   1.734   5.254   8.339  0.3900  0.0776 -0.5413
   32CHL1   H25 2360   1.647   5.293   8.396  0.3658 -0.6363 -0.0743
   32CHL1   C26 2361   1.784   5.128   8.411  0.5536  0.3632  0.1502
   32CHL1  H26A 2362   1.869   5.078   8.361  0.9172 -2.9283  3.5719
   32CHL1  H26B 2363   1.814   5.138   8.518  0.9325  1.2371 -0.0314
   32CHL1  H26C 2364   1.703   5.052   8.415  1.1175 -0.2177  1.0569
   32CHL1   C27 2365   1.850   5.357   8.337  0.2568 -0.4798  0.0710
   32CHL1  H27A 2366   1.955   5.324   8.321  0.4977  0.3891 -0.2531
   32CHL1  H27B 2367   1.825   5.442   8.269  2.3478  0.1614  0.0314
   32CHL1  H27C 2368   1.853   5.409   8.435 -1.0231 -0.4122  0.0965
   33CHL1    C3 2369   2.418   6.011   6.803 -0.0964  0.1623  0.0431
   33CHL1    H3 2370   2.477   5.935   6.860 -1.4990  0.9561  2.7193
   33CHL1    O3 2371   2.437   6.000   6.669 -0.2751  0.3094  0.4507
   33CHL1   H3' 2372   2.421   6.084   6.627 -1.1753 -0.8035 -1.6178
   33CHL1    C4 2373   2.274   6.002   6.840  0.0600  0.0655  0.2769
   33CHL1   H4A 2374   2.227   6.091   6.793 -0.1842 -0.3078 -0.1921
   33CHL1   H4B 2375   2.223   5.911   6.800 -0.7882  0.2100  0.9741
   33CHL1    C5 2376   2.266   5.997   6.992 -0.1179  0.1722 -0.0596
   33CHL1    C6 2377   2.219   5.889   7.053  0.0771 -0.3164  0.1991
   33CHL1    H6 2378   2.186   5.798   7.001  0.2821 -1.2246  1.6183
   33CHL1    C7 2379   2.199   5.885   7.198  0.3857  0.7850 -0.5149
   33CHL1   H7A 2380   2.110   5.826   7.227 -0.2819  2.6881  1.5977
   33CHL1   H7B 2381   2.285   5.827   7.238  0.4284  0.7374 -0.6741
   33CHL1    C8 2382   2.198   6.018   7.272 -0.3680 -0.1106  1.0059
   33CHL1    H8 2383   2.103   6.069   7.248 -1.2040 -1.3741  1.5538
   33CHL1   C14 2384   2.207   6.002   7.423  0.3249 -0.1812 -0.6984
   33CHL1   H14 2385   2.304   5.953   7.448  1.7983  1.0675 -3.5511
   33CHL1   C15 2386   2.099   5.920   7.484  0.1161  1.4403  0.2293
   33CHL1  H15A 2387   2.000   5.958   7.451 -0.2121 -0.2019 -0.7993
   33CHL1  H15B 2388   2.098   5.812   7.457  0.6720  1.0755  1.6028
   33CHL1   C16 2389   2.108   5.951   7.638  0.2363 -0.2781  0.1759
   33CHL1  H16A 2390   2.007   5.983   7.671  1.0340 -0.3114  2.8216
   33CHL1  H16B 2391   2.135   5.861   7.697 -0.9195  0.4246  1.8527
   33CHL1   C17 2392   2.211   6.069   7.650 -0.6738 -0.2313  0.6066
   33CHL1   H17 2393   2.312   6.025   7.667 -0.2475  1.0910  1.7314
   33CHL1   C13 2394   2.208   6.132   7.504 -0.6566 -0.1887  0.3886
   33CHL1   C18 2395   2.077   6.207   7.481  0.5918  0.2803 -0.0251
   33CHL1  H18A 2396   2.056   6.224   7.373 -2.3850 -0.3471  0.3703
   33CHL1  H18B 2397   1.989   6.167   7.534  1.3952 -1.6927 -0.0847
   33CHL1  H18C 2398   2.077   6.315   7.507  0.0482  0.2813 -0.0171
   33CHL1   C12 2399   2.338   6.202   7.455  0.8129 -0.0601 -0.5276
   33CHL1  H12A 2400   2.332   6.290   7.523 -1.0438 -0.2015 -0.4306
   33CHL1  H12B 2401   2.431   6.145   7.472 -0.1472 -1.3847  0.5561
   33CHL1   C11 2402   2.325   6.236   7.305  0.5047 -0.1454  0.5808
   33CHL1  H11A 2403   2.248   6.314   7.287  1.5131  0.5307 -0.9921
   33CHL1  H11B 2404   2.413   6.294   7.269 -1.0772  1.9509 -0.1485
   33CHL1    C9 2405   2.318   6.106   7.219  0.4825 -0.0533  0.0304
   33CHL1    H9 2406   2.406   6.041   7.237  0.3327 -0.3414 -0.2720
   33CHL1   C10 2407   2.315   6.125   7.066  0.3421  0.0838 -0.5355
   33CHL1   C19 2408   2.224   6.241   7.038 -1.1982  0.0416 -0.8549
   33CHL1  H19A 2409   2.259   6.341   7.071 -3.3724  0.6030 -0.0876
   33CHL1  H19B 2410   2.213   6.263   6.929  1.1146  0.6973 -1.0030
   33CHL1  H19C 2411   2.125   6.222   7.086 -0.2436  1.3944  1.8407
   33CHL1    C1 2412   2.460   6.157   7.007 -0.1445  0.8408 -0.4944
   33CHL1   H1A 2413   2.493   6.256   7.045 -0.0464  0.4544  0.4524
   33CHL1   H1B 2414   2.539   6.090   7.048  0.4609  1.4977 -0.5582
   33CHL1    C2 2415   2.467   6.140   6.854  0.2538 -0.0636 -0.9526
   33CHL1   H2A 2416   2.575   6.149   6.828 -0.2428  2.5056 -2.5115
   33CHL1   H2B 2417   2.405   6.223   6.813 -2.8006 -1.9923 -0.5242
   33CHL1   C20 2418   2.177   6.163   7.766 -0.1110  0.1060  0.0626
   33CHL1   H20 2419   2.091   6.226   7.735 -0.4611  0.7882  2.2788
   33CHL1   C21 2420   2.297   6.263   7.781  0.1595  0.3324  0.1997
   33CHL1  H21A 2421   2.307   6.339   7.701  1.5546  0.4453  0.4603
   33CHL1  H21B 2422   2.395   6.211   7.792 -0.8233 -1.3881  1.4278
   33CHL1  H21C 2423   2.284   6.325   7.872 -0.0052  0.4343  0.1084
   33CHL1   C22 2424   2.152   6.092   7.905  0.2568  0.2000 -0.9096
   33CHL1  H22A 2425   2.137   6.175   7.978 -1.0907  1.9724 -3.0434
   33CHL1  H22B 2426   2.052   6.044   7.889  0.5083 -0.5781 -0.2081
   33CHL1   C23 2427   2.264   5.995   7.954  0.6399 -0.6066 -0.2170
   33CHL1  H23A 2428   2.288   5.909   7.888 -0.9391 -0.2200 -1.3647
   33CHL1  H23B 2429   2.359   6.050   7.971 -0.1281  0.5466  0.4874
   33CHL1   C24 2430   2.211   5.929   8.092  0.2232 -0.5486  1.1193
   33CHL1  H24A 2431   2.204   6.006   8.172  1.2009  1.2852 -0.4644
   33CHL1  H24B 2432   2.112   5.886   8.065 -0.0266  0.8822 -0.3972
   33CHL1   C25 2433   2.314   5.819   8.131  0.4291 -0.6990 -0.4295
   33CHL1   H25 2434   2.350   5.759   8.044  1.1656 -1.4635  0.3800
   33CHL1   C26 2435   2.420   5.879   8.229  0.8854 -0.7126 -0.3391
   33CHL1  H26A 2436   2.385   5.910   8.330 -1.5792  1.2140 -1.6925
   33CHL1  H26B 2437   2.498   5.799   8.225  1.0371 -0.6386  0.7222
   33CHL1  H26C 2438   2.476   5.967   8.191 -0.4185  0.0619 -0.5339
   33CHL1   C27 2439   2.233   5.714   8.199  0.0484  0.0583  0.4231
   33CHL1  H27A 2440   2.164   5.659   8.132 -0.4075  2.6920 -1.4122
   33CHL1  H27B 2441   2.306   5.640   8.240  1.4014  2.0168  1.7070
   33CHL1  H27C 2442   2.165   5.763   8.272 -0.3362 -2.5826  1.9555
   34CHL1    C3 2443   3.751   4.097   7.104  0.0191  0.0298  0.9793
   34CHL1    H3 2444   3.802   4.191   7.136  1.6309  0.2528 -1.8245
   34CHL1    O3 2445   3.773   4.087   6.964 -0.5235 -0.0156 -0.4238
   34CHL1   H3' 2446   3.693   4.126   6.931 -1.8166 -0.6574  1.7323
   34CHL1    C4 2447   3.804   3.967   7.174 -0.1800  0.0293  0.1998
   34CHL1   H4A 2448   3.755   3.879   7.128 -0.1678 -1.3691  2.6948
   34CHL1   H4B 2449   3.913   3.954   7.157  0.2155  1.0571  1.7615
   34CHL1    C5 2450   3.773   3.973   7.322  0.1280  0.0328  0.4582
   34CHL1    C6 2451   3.867   3.975   7.415 -0.1020 -1.0975  0.3264
   34CHL1    H6 2452   3.973   3.961   7.390 -0.7200 -2.9816 -1.4594
   34CHL1    C7 2453   3.847   3.970   7.565 -1.0379 -0.4433  0.5105
   34CHL1   H7A 2454   3.913   3.893   7.611 -0.7340 -0.5932 -0.1655
   34CHL1   H7B 2455   3.890   4.062   7.610 -1.0561 -0.7876  1.2500
   34CHL1    C8 2456   3.704   3.955   7.595  0.1588 -0.2885  0.1033
   34CHL1    H8 2457   3.671   3.850   7.583  0.8176 -0.2841 -2.1469
   34CHL1   C14 2458   3.687   3.990   7.745 -0.2697 -0.4550  0.0971
   34CHL1   H14 2459   3.713   4.096   7.760 -2.2250 -0.2745  2.8814
   34CHL1   C15 2460   3.775   3.913   7.846  0.2470  0.3853 -0.4085
   34CHL1  H15A 2461   3.769   3.804   7.827 -0.0978  0.2480  0.4514
   34CHL1  H15B 2462   3.881   3.945   7.835  0.1722  0.2267 -1.8043
   34CHL1   C16 2463   3.706   3.954   7.985 -0.1327  0.9823 -0.6052
   34CHL1  H16A 2464   3.710   3.852   8.029  1.7683  1.4326  0.3817
   34CHL1  H16B 2465   3.783   4.018   8.033 -1.5237  1.5067  1.0229
   34CHL1   C17 2466   3.573   4.016   7.947  0.2234 -1.1773  0.0115
   34CHL1   H17 2467   3.585   4.126   7.947 -0.4899 -1.0923  0.3482
   34CHL1   C13 2468   3.546   3.982   7.794  0.4849  0.8140 -0.0743
   34CHL1   C18 2469   3.489   3.836   7.777 -0.1246 -0.0468  0.2179
   34CHL1  H18A 2470   3.554   3.757   7.820  3.1954  1.3538 -1.8433
   34CHL1  H18B 2471   3.389   3.820   7.822  0.4136 -3.3632  0.4837
   34CHL1  H18C 2472   3.498   3.811   7.669  0.2704  0.7269  0.0654
   34CHL1   C12 2473   3.459   4.082   7.717 -0.3242  0.0857 -0.6735
   34CHL1  H12A 2474   3.352   4.079   7.744 -0.7542  1.3364 -2.0972
   34CHL1  H12B 2475   3.508   4.177   7.745 -0.4432 -0.0211 -0.0966
   34CHL1   C11 2476   3.463   4.054   7.566 -0.1156 -0.1117  0.4103
   34CHL1  H11A 2477   3.394   3.967   7.558 -1.8411  1.3518 -1.8923
   34CHL1  H11B 2478   3.414   4.136   7.509 -0.8692 -0.6351  0.2789
   34CHL1    C9 2479   3.607   4.040   7.511  0.9800 -0.1868  0.2489
   34CHL1    H9 2480   3.635   4.147   7.518 -2.1209  0.7028  0.4205
   34CHL1   C10 2481   3.622   4.003   7.358 -0.4181  0.5858 -0.5538
   34CHL1   C19 2482   3.536   3.870   7.332 -0.8218  0.1618 -0.4958
   34CHL1  H19A 2483   3.580   3.782   7.383 -2.0278 -1.5445 -2.2492
   34CHL1  H19B 2484   3.430   3.873   7.366 -0.3642 -2.7342  1.5484
   34CHL1  H19C 2485   3.536   3.852   7.223  1.5987  0.7281 -0.6393
   34CHL1    C1 2486   3.561   4.116   7.271 -0.3560  0.3209 -0.7998
   34CHL1   H1A 2487   3.452   4.102   7.291 -0.7248  2.8567 -0.7076
   34CHL1   H1B 2488   3.588   4.216   7.311  0.5199 -0.6846  1.2708
   34CHL1    C2 2489   3.604   4.101   7.124 -0.2658 -0.2517 -0.2694
   34CHL1   H2A 2490   3.575   4.184   7.056 -0.6495  0.9358  1.2906
   34CHL1   H2B 2491   3.561   4.010   7.077 -0.9293 -0.2033  0.2218
   34CHL1   C20 2492   3.465   3.978   8.049 -0.0418  0.6414 -0.4177
   34CHL1   H20 2493   3.426   3.874   8.036 -1.3223  0.4810  3.5680
   34CHL1   C21 2494   3.333   4.058   8.017  0.0445 -0.0393 -0.3128
   34CHL1  H21A 2495   3.353   4.163   7.987  0.0237  0.0557 -0.0040
   34CHL1  H21B 2496   3.276   4.055   8.113  0.5432  0.3217 -0.0000
   34CHL1  H21C 2497   3.289   3.998   7.935  2.1160 -1.5630 -0.3815
   34CHL1   C22 2498   3.519   4.002   8.192  0.0050 -0.1599 -0.0715
   34CHL1  H22A 2499   3.611   3.944   8.213 -0.6650 -1.3791 -0.4107
   34CHL1  H22B 2500   3.541   4.110   8.206 -2.9981  0.4480  0.5980
   34CHL1   C23 2501   3.423   3.975   8.312  0.0952 -0.3128 -0.9207
   34CHL1  H23A 2502   3.341   4.050   8.318 -0.7297 -1.3151  1.3619
   34CHL1  H23B 2503   3.380   3.877   8.284  0.0401  0.0118 -2.0248
   34CHL1   C24 2504   3.487   3.980   8.453  0.0427 -0.0292 -0.1159
   34CHL1  H24A 2505   3.542   3.884   8.460 -0.6188 -0.3616  0.6716
   34CHL1  H24B 2506   3.553   4.070   8.457 -1.4071  1.0618  0.4283
   34CHL1   C25 2507   3.383   3.981   8.566 -0.1202 -0.5615  0.1048
   34CHL1   H25 2508   3.327   4.076   8.555 -1.5472 -1.4973 -1.0600
   34CHL1   C26 2509   3.278   3.872   8.537 -0.1157  0.2819 -0.5971
   34CHL1  H26A 2510   3.323   3.772   8.517 -0.5896  0.0537 -0.5274
   34CHL1  H26B 2511   3.212   3.861   8.626  1.3695  1.9253  0.7835
   34CHL1  H26C 2512   3.201   3.893   8.461 -0.4771  0.2531 -0.2456
   34CHL1   C27 2513   3.441   3.961   8.707 -0.0004  0.0551  0.4503
   34CHL1  H27A 2514   3.362   3.968   8.785 -0.3897  0.8544  0.0006
   34CHL1  H27B 2515   3.490   3.862   8.711 -0.2747 -0.1082 -0.1861
   34CHL1  H27C 2516   3.526   4.029   8.730  1.4533 -1.2437 -0.8735
   35CHL1    C3 2517   0.645   3.535   7.080  0.0615  0.2573  0.3276
   35CHL1    H3 2518   0.718   3.450   7.075  2.1515  1.8536  1.8455
   35CHL1    O3 2519   0.588   3.566   6.957 -0.4635 -0.4356 -0.3730
   35CHL1   H3' 2520   0.548   3.653   6.953  2.1084  0.8293 -1.0369
   35CHL1    C4 2521   0.527   3.497   7.174  0.9069 -0.1038 -0.2883
   35CHL1   H4A 2522   0.456   3.582   7.185 -0.4857 -1.2198 -0.4242
   35CHL1   H4B 2523   0.478   3.411   7.124 -0.2123 -0.8383  1.9388
   35CHL1    C5 2524   0.581   3.450   7.307 -0.6682  0.4101 -0.3644
   35CHL1    C6 2525   0.558   3.324   7.356 -0.8467 -0.8204  0.0643
   35CHL1    H6 2526   0.488   3.260   7.299  0.1910 -0.9198 -1.1689
   35CHL1    C7 2527   0.601   3.276   7.487 -0.0491  1.2906  0.0928
   35CHL1   H7A 2528   0.523   3.222   7.545  0.3825 -0.2794 -0.7290
   35CHL1   H7B 2529   0.675   3.193   7.481 -1.5152 -0.4984  3.5063
   35CHL1    C8 2530   0.668   3.383   7.567 -0.2885 -1.6588 -0.4487
   35CHL1    H8 2531   0.582   3.436   7.612  0.3844 -3.2005  3.0642
   35CHL1   C14 2532   0.755   3.319   7.674 -0.0900 -0.9011 -0.9112
   35CHL1   H14 2533   0.846   3.274   7.628  1.4064  2.4007 -1.3982
   35CHL1   C15 2534   0.688   3.211   7.762 -0.2094  0.4094  0.0767
   35CHL1  H15A 2535   0.585   3.248   7.781 -0.7261 -1.7957  2.1933
   35CHL1  H15B 2536   0.676   3.113   7.711  1.4195  0.9037 -1.3499
   35CHL1   C16 2537   0.768   3.195   7.891  0.0656  0.4701  0.1890
   35CHL1  H16A 2538   0.701   3.220   7.976  0.7091  1.5686  0.3984
   35CHL1  H16B 2539   0.813   3.094   7.900  0.0738  0.3577 -0.9420
   35CHL1   C17 2540   0.870   3.309   7.877  0.4274  0.1509 -0.0863
   35CHL1   H17 2541   0.948   3.256   7.818 -0.9967 -1.2391 -0.7601
   35CHL1   C13 2542   0.808   3.414   7.775 -0.0761  0.1311 -0.1454
   35CHL1   C18 2543   0.698   3.489   7.844 -0.6589 -0.7980  0.5198
   35CHL1  H18A 2544   0.751   3.560   7.912 -2.9402  1.1129  0.4372
   35CHL1  H18B 2545   0.639   3.553   7.775  1.1504  2.6172  1.9006
   35CHL1  H18C 2546   0.639   3.418   7.905 -0.5088 -0.9717  0.4639
   35CHL1   C12 2547   0.908   3.502   7.706  0.1462 -0.0193  1.4738
   35CHL1  H12A 2548   0.958   3.583   7.762  2.0341  1.0828 -1.5611
   35CHL1  H12B 2549   0.991   3.438   7.669  0.2571  0.3869  1.0070
   35CHL1   C11 2550   0.842   3.572   7.578  0.8339  0.8312 -0.3339
   35CHL1  H11A 2551   0.776   3.643   7.632 -0.5871  1.5222 -2.8212
   35CHL1  H11B 2552   0.919   3.622   7.516  2.6864  1.3403  2.2043
   35CHL1    C9 2553   0.757   3.473   7.486  0.2025 -0.4886  0.8271
   35CHL1    H9 2554   0.831   3.407   7.436 -0.0151  0.7626 -1.2618
   35CHL1   C10 2555   0.677   3.550   7.379  0.3117  0.2620  0.6356
   35CHL1   C19 2556   0.581   3.653   7.443  0.0225  0.6005  1.1512
   35CHL1  H19A 2557   0.515   3.613   7.523 -2.6135  2.3318 -0.0331
   35CHL1  H19B 2558   0.640   3.739   7.481  2.0057  0.7548 -1.9086
   35CHL1  H19C 2559   0.508   3.691   7.369  1.9197 -0.9892 -1.7435
   35CHL1    C1 2560   0.777   3.620   7.276  0.5998 -0.1579  0.0465
   35CHL1   H1A 2561   0.816   3.709   7.330 -0.7660  0.5987 -0.1586
   35CHL1   H1B 2562   0.864   3.554   7.253  1.0755  0.1345  0.9682
   35CHL1    C2 2563   0.715   3.655   7.141 -0.1609 -1.0279  0.4355
   35CHL1   H2A 2564   0.798   3.685   7.073 -0.9457 -0.3156 -0.2392
   35CHL1   H2B 2565   0.641   3.733   7.167  0.4265 -0.9090  1.8475
   35CHL1   C20 2566   0.933   3.366   8.005  0.0838 -0.6907  0.4428
   35CHL1   H20 2567   0.949   3.474   7.984 -0.6873 -0.1319  2.5614
   35CHL1   C21 2568   1.068   3.295   8.029 -0.6281  0.3759 -0.6967
   35CHL1  H21A 2569   1.136   3.351   8.097 -1.2032  1.0410 -0.6661
   35CHL1  H21B 2570   1.138   3.302   7.943  0.1186 -0.3547 -0.1718
   35CHL1  H21C 2571   1.060   3.186   8.049  3.5410 -0.1509 -0.9792
   35CHL1   C22 2572   0.849   3.363   8.135 -0.7585 -0.2204  0.0435
   35CHL1  H22A 2573   0.753   3.413   8.110 -0.1074  0.9557 -0.1965
   35CHL1  H22B 2574   0.819   3.263   8.174 -0.4911 -0.3545 -0.0907
   35CHL1   C23 2575   0.894   3.449   8.253  0.0523  0.1798  0.3318
   35CHL1  H23A 2576   0.996   3.435   8.295 -0.4503 -0.9488  1.2509
   35CHL1  H23B 2577   0.889   3.555   8.220 -3.7483 -0.5351 -2.0018
   35CHL1   C24 2578   0.795   3.426   8.373 -0.4872 -0.1513  0.3420
   35CHL1  H24A 2579   0.693   3.450   8.335 -1.3713 -1.9008  1.4723
   35CHL1  H24B 2580   0.785   3.321   8.410 -0.1701  0.1707  1.3587
   35CHL1   C25 2581   0.816   3.518   8.495  0.9275 -0.7376 -0.5252
   35CHL1   H25 2582   0.797   3.621   8.459  0.0853 -1.3378 -1.9023
   35CHL1   C26 2583   0.712   3.480   8.604 -0.0609  0.0029 -0.3511
   35CHL1  H26A 2584   0.615   3.460   8.554  0.8542 -0.4861 -1.9829
   35CHL1  H26B 2585   0.736   3.381   8.647  0.9081  0.5443  0.3801
   35CHL1  H26C 2586   0.705   3.534   8.701  1.8573 -0.1494 -0.0940
   35CHL1   C27 2587   0.959   3.507   8.546 -0.2711  0.2261 -0.2770
   35CHL1  H27A 2588   1.042   3.529   8.475  0.2283 -1.4819 -0.2596
   35CHL1  H27B 2589   0.977   3.409   8.595  2.1808 -0.2408 -1.9159
   35CHL1  H27C 2590   0.966   3.579   8.631 -1.8618  1.7923 -1.4129
   36CHL1    C3 2591   6.787   4.611   6.915  0.2021  0.1371 -0.1949
   36CHL1    H3 2592   6.751   4.697   6.855  2.2720  0.5457 -0.9218
   36CHL1    O3 2593   6.836   4.514   6.822  0.3155 -0.1862 -0.3480
   36CHL1   H3' 2594   6.884   4.454   6.880 -2.0977 -0.4416  1.5077
   36CHL1    C4 2595   6.902   4.657   7.006  0.7029  0.3223 -1.1150
   36CHL1   H4A 2596   6.960   4.571   7.045  0.2033  0.8523  0.9076
   36CHL1   H4B 2597   6.981   4.699   6.940  2.2233 -2.4375 -1.1941
   36CHL1    C5 2598   6.853   4.745   7.119 -1.1716 -0.3491  0.1518
   36CHL1    C6 2599   6.904   4.867   7.145  0.7746  0.4674  0.2427
   36CHL1    H6 2600   6.984   4.901   7.078  0.4290  1.7683  0.4665
   36CHL1    C7 2601   6.859   4.948   7.263  0.1650 -0.9800 -0.3062
   36CHL1   H7A 2602   6.940   5.008   7.311 -0.5481 -0.4003  0.1785
   36CHL1   H7B 2603   6.788   5.016   7.212  0.9212 -1.0572 -1.5167
   36CHL1    C8 2604   6.782   4.868   7.370 -0.1654  0.7807  0.3673
   36CHL1    H8 2605   6.869   4.821   7.420 -0.2396 -0.9366 -1.0509
   36CHL1   C14 2606   6.714   4.952   7.473 -0.4991 -0.5145 -0.5235
   36CHL1   H14 2607   6.625   5.003   7.430 -1.2665 -2.9111 -1.9997
   36CHL1   C15 2608   6.803   5.061   7.542  0.2231  0.5621 -0.5879
   36CHL1  H15A 2609   6.908   5.028   7.550  0.5441  1.6179 -0.3547
   36CHL1  H15B 2610   6.816   5.152   7.480  0.0923  0.1801 -1.1898
   36CHL1   C16 2611   6.730   5.093   7.678  0.1067  0.0681  0.3047
   36CHL1  H16A 2612   6.787   5.052   7.763 -0.1021  1.5588  1.2049
   36CHL1  H16B 2613   6.707   5.202   7.688  0.4498  0.0674  1.2028
   36CHL1   C17 2614   6.600   5.005   7.672 -0.6169  0.9591  1.0259
   36CHL1   H17 2615   6.516   5.059   7.624  0.6159  1.8483 -0.1979
   36CHL1   C13 2616   6.646   4.883   7.584  0.9927  0.3934  0.1634
   36CHL1   C18 2617   6.746   4.787   7.658  0.6703  0.0363  0.0184
   36CHL1  H18A 2618   6.692   4.736   7.740 -1.0616 -0.7097 -1.5296
   36CHL1  H18B 2619   6.785   4.705   7.594  1.3836  0.6043 -0.2849
   36CHL1  H18C 2620   6.833   4.836   7.708  0.1513 -0.3703  1.3701
   36CHL1   C12 2621   6.531   4.800   7.527  0.2109  0.0425  1.1735
   36CHL1  H12A 2622   6.473   4.743   7.603 -0.8977 -3.1357 -1.8066
   36CHL1  H12B 2623   6.455   4.869   7.483 -0.4346 -0.9494  0.6834
   36CHL1   C11 2624   6.586   4.711   7.411 -0.3714 -0.2286 -0.1685
   36CHL1  H11A 2625   6.647   4.627   7.453  0.0305 -1.1783 -2.5052
   36CHL1  H11B 2626   6.502   4.668   7.353 -0.5542 -0.6875  0.4203
   36CHL1    C9 2627   6.682   4.778   7.307 -0.1973 -0.0335  0.2847
   36CHL1    H9 2628   6.612   4.838   7.245 -0.4660 -1.4556 -0.8337
   36CHL1   C10 2629   6.747   4.678   7.206  0.3478  0.2744  0.4405
   36CHL1   C19 2630   6.808   4.554   7.274  0.3715 -0.4704  0.0530
   36CHL1  H19A 2631   6.733   4.483   7.314  0.2547 -1.0438 -1.1461
   36CHL1  H19B 2632   6.856   4.490   7.198 -0.7666 -0.6864 -0.4972
   36CHL1  H19C 2633   6.888   4.577   7.348 -0.4985  0.1614  0.8321
   36CHL1    C1 2634   6.635   4.631   7.113 -0.1411 -0.0989 -0.0680
   36CHL1   H1A 2635   6.555   4.577   7.167 -1.1426  0.1180 -1.2890
   36CHL1   H1B 2636   6.583   4.708   7.052 -0.8893 -0.8495 -0.3825
   36CHL1    C2 2637   6.684   4.537   7.000 -0.8003 -0.7088  0.5608
   36CHL1   H2A 2638   6.597   4.506   6.938 -0.4699 -1.5248  0.4880
   36CHL1   H2B 2639   6.731   4.442   7.035  0.9074 -1.5456 -3.3640
   36CHL1   C20 2640   6.546   4.966   7.814  1.0239  0.6423 -0.2120
   36CHL1   H20 2641   6.619   4.892   7.853 -1.1166 -1.3271  0.2436
   36CHL1   C21 2642   6.406   4.899   7.817  0.3287  0.8543  0.0810
   36CHL1  H21A 2643   6.366   4.879   7.919 -2.2253  0.8305 -0.8645
   36CHL1  H21B 2644   6.398   4.799   7.770 -0.9735  1.6456 -1.4667
   36CHL1  H21C 2645   6.336   4.965   7.762  0.4198 -0.4399 -1.6784
   36CHL1   C22 2646   6.542   5.090   7.902 -0.7769 -0.5501 -0.1640
   36CHL1  H22A 2647   6.628   5.159   7.888 -0.1716 -1.4281 -0.9893
   36CHL1  H22B 2648   6.453   5.150   7.873  0.5980  1.2832 -0.7859
   36CHL1   C23 2649   6.540   5.071   8.054  0.2739 -0.1109 -0.1139
   36CHL1  H23A 2650   6.442   5.025   8.077  1.2439 -2.9851 -1.2925
   36CHL1  H23B 2651   6.615   4.991   8.075 -0.3240 -1.0203 -1.3954
   36CHL1   C24 2652   6.563   5.204   8.136  0.3033  0.7667  0.4037
   36CHL1  H24A 2653   6.661   5.235   8.094  0.6945 -2.0714 -1.0377
   36CHL1  H24B 2654   6.480   5.265   8.094 -1.7244 -1.5457  0.8322
   36CHL1   C25 2655   6.539   5.205   8.293 -0.1012  0.0190  0.8855
   36CHL1   H25 2656   6.437   5.162   8.301  0.0763 -0.4219  0.7853
   36CHL1   C26 2657   6.647   5.131   8.362 -0.2993  0.4193  0.0183
   36CHL1  H26A 2658   6.610   5.120   8.466 -2.1988  0.1526 -0.6594
   36CHL1  H26B 2659   6.665   5.028   8.323  3.2724  0.3216  1.5229
   36CHL1  H26C 2660   6.740   5.190   8.349 -1.5410  1.8066 -3.6726
   36CHL1   C27 2661   6.530   5.348   8.359  0.9261  0.1070  0.0294
   36CHL1  H27A 2662   6.630   5.397   8.358  1.0312  0.0051 -3.1316
   36CHL1  H27B 2663   6.458   5.408   8.299  1.0136 -0.4399 -0.6332
   36CHL1  H27C 2664   6.495   5.345   8.464 -0.1681  0.8393 -0.2988
   37CHL1    C3 2665   4.176   5.456   6.881 -0.3376 -0.5724 -0.1120
   37CHL1    H3 2666   4.125   5.554   6.892 -0.5293 -0.8811  2.2800
   37CHL1    O3 2667   4.205   5.439   6.742 -0.0563  0.0471 -0.2429
   37CHL1   H3' 2668   4.239   5.351   6.726 -1.6151 -0.1881 -2.7111
   37CHL1    C4 2669   4.307   5.462   6.973  0.4996 -0.1092  0.4739
   37CHL1   H4A 2670   4.377   5.380   6.945  1.4029  0.9661 -0.5373
   37CHL1   H4B 2671   4.366   5.551   6.941  0.1646  0.0970  0.4345
   37CHL1    C5 2672   4.283   5.467   7.121  0.2228 -0.4379  0.0254
   37CHL1    C6 2673   4.345   5.558   7.203  0.4295 -0.2777  0.8808
   37CHL1    H6 2674   4.422   5.616   7.150 -0.4055  1.1106  1.1395
   37CHL1    C7 2675   4.314   5.582   7.348 -0.2783  0.8082  0.3174
   37CHL1   H7A 2676   4.400   5.605   7.413  1.4340  1.2279 -1.9647
   37CHL1   H7B 2677   4.251   5.674   7.353  0.0295  0.9933  0.8688
   37CHL1    C8 2678   4.236   5.453   7.409  0.2170 -0.1618 -0.2978
   37CHL1    H8 2679   4.314   5.376   7.426  1.9088  1.6596  0.6896
   37CHL1   C14 2680   4.162   5.494   7.532 -0.0321 -0.8658  1.4486
   37CHL1   H14 2681   4.078   5.560   7.504 -0.8871 -2.8335 -0.9980
   37CHL1   C15 2682   4.253   5.571   7.630  0.5256 -0.0378 -0.2309
   37CHL1  H15A 2683   4.352   5.522   7.640  0.5071  0.3266  2.7115
   37CHL1  H15B 2684   4.265   5.680   7.610  1.6059 -0.4501 -1.9834
   37CHL1   C16 2685   4.172   5.541   7.765  0.4263  0.2146 -0.4343
   37CHL1  H16A 2686   4.237   5.480   7.832  1.0846 -0.9421 -2.0708
   37CHL1  H16B 2687   4.134   5.630   7.820  1.9167  0.1109  0.8431
   37CHL1   C17 2688   4.055   5.440   7.732  0.0093  0.4024  0.3925
   37CHL1   H17 2689   3.968   5.504   7.706 -0.0691 -0.7705 -2.6543
   37CHL1   C13 2690   4.095   5.369   7.606  0.5274  0.4444  0.2451
   37CHL1   C18 2691   4.206   5.268   7.637 -0.2973  0.4469 -0.1688
   37CHL1  H18A 2692   4.292   5.317   7.689 -1.3631  2.2210  0.0149
   37CHL1  H18B 2693   4.158   5.192   7.701 -1.0820  1.0574 -0.0150
   37CHL1  H18C 2694   4.228   5.216   7.542 -1.2611  0.1612 -0.2408
   37CHL1   C12 2695   3.986   5.327   7.513  0.3051  0.5740  0.0783
   37CHL1  H12A 2696   3.947   5.235   7.561  1.5591  1.0106  2.0662
   37CHL1  H12B 2697   3.899   5.395   7.498 -1.3157 -1.6574 -1.1989
   37CHL1   C11 2698   4.040   5.283   7.375 -0.1652 -0.7380  1.3818
   37CHL1  H11A 2699   4.086   5.183   7.384 -2.7319 -1.9757  1.8040
   37CHL1  H11B 2700   3.951   5.272   7.309 -0.8303  1.7263  1.7732
   37CHL1    C9 2701   4.126   5.401   7.315  0.2336 -0.1553  0.2418
   37CHL1    H9 2702   4.061   5.490   7.301 -1.1715 -0.9312  1.5008
   37CHL1   C10 2703   4.174   5.367   7.165 -0.2218  0.1124  0.4930
   37CHL1   C19 2704   4.243   5.226   7.161 -0.3597 -0.3323 -0.7705
   37CHL1  H19A 2705   4.156   5.159   7.145  0.9345 -1.8495 -1.8002
   37CHL1  H19B 2706   4.323   5.223   7.084 -0.8753 -0.9831 -1.2996
   37CHL1  H19C 2707   4.284   5.213   7.263  1.0770  2.3023 -0.9449
   37CHL1    C1 2708   4.050   5.374   7.077 -0.5990 -0.3841  0.5174
   37CHL1   H1A 2709   3.975   5.297   7.106 -2.4433  1.0157 -0.2886
   37CHL1   H1B 2710   3.994   5.469   7.095  0.7590  0.6331 -0.4234
   37CHL1    C2 2711   4.081   5.356   6.927 -0.4781  0.3881 -0.2619
   37CHL1   H2A 2712   3.983   5.370   6.877 -0.0921  0.1411 -1.1026
   37CHL1   H2B 2713   4.119   5.256   6.897  0.0447  0.2470  0.8409
   37CHL1   C20 2714   4.011   5.349   7.847 -0.7024  0.0325 -0.4585
   37CHL1   H20 2715   4.107   5.304   7.882 -1.8657 -2.0547  0.2159
   37CHL1   C21 2716   3.910   5.240   7.820 -0.1721 -0.3254  0.2630
   37CHL1  H21A 2717   3.964   5.177   7.746  0.4340  2.3485 -1.7159
   37CHL1  H21B 2718   3.819   5.289   7.779  0.4629  1.9800  1.4732
   37CHL1  H21C 2719   3.890   5.172   7.906  1.2235 -2.4959 -1.0194
   37CHL1   C22 2720   3.951   5.429   7.966  0.2989 -0.6256 -0.1423
   37CHL1  H22A 2721   4.003   5.528   7.969 -0.7620 -0.0757  1.3371
   37CHL1  H22B 2722   3.846   5.460   7.945  0.6488  1.5139  0.9965
   37CHL1   C23 2723   3.970   5.374   8.100 -0.3961  0.5080  0.3181
   37CHL1  H23A 2724   3.946   5.265   8.096  0.8042  0.2487 -0.3150
   37CHL1  H23B 2725   4.074   5.378   8.139 -0.8896  1.4836  1.6251
   37CHL1   C24 2726   3.878   5.436   8.208 -0.1053 -0.3352  0.2705
   37CHL1  H24A 2727   3.917   5.540   8.216 -1.2141  0.2431 -1.3833
   37CHL1  H24B 2728   3.773   5.448   8.177  0.5103 -0.5881 -2.0666
   37CHL1   C25 2729   3.886   5.386   8.347  0.1754 -0.0826 -0.2017
   37CHL1   H25 2730   3.990   5.358   8.374 -0.2560 -0.7443  0.8336
   37CHL1   C26 2731   3.828   5.489   8.451 -0.4025 -0.2815  0.1213
   37CHL1  H26A 2732   3.831   5.427   8.544  0.1393 -0.4376  0.0016
   37CHL1  H26B 2733   3.898   5.573   8.468 -0.7355 -0.1900  1.1264
   37CHL1  H26C 2734   3.727   5.520   8.417  0.9040  2.2412 -1.7603
   37CHL1   C27 2735   3.810   5.256   8.357 -0.3355  0.2550  0.8491
   37CHL1  H27A 2736   3.802   5.228   8.465 -0.9264 -0.4705  0.6227
   37CHL1  H27B 2737   3.704   5.267   8.329 -0.9638  0.7979  3.2266
   37CHL1  H27C 2738   3.860   5.172   8.305 -1.5293 -0.1768  0.3758
   38CHL1    C3 2739   0.801   1.695   6.494  0.0031  0.1499 -0.3917
   38CHL1    H3 2740   0.715   1.748   6.540  1.5577  0.5787  2.2640
   38CHL1    O3 2741   0.810   1.718   6.354  0.7641  0.0656 -0.2578
   38CHL1   H3' 2742   0.742   1.658   6.323  0.2853 -1.0844  2.7043
   38CHL1    C4 2743   0.922   1.757   6.557 -0.3611 -1.1113  0.1490
   38CHL1   H4A 2744   1.014   1.717   6.509 -0.6004 -0.5408 -0.7922
   38CHL1   H4B 2745   0.912   1.864   6.530 -2.4745 -1.2698  0.1074
   38CHL1    C5 2746   0.924   1.739   6.710  0.2816 -0.1764  0.0878
   38CHL1    C6 2747   0.930   1.847   6.791  0.2459  0.0089  0.6764
   38CHL1    H6 2748   0.944   1.946   6.746  2.2988 -0.5831 -0.0849
   38CHL1    C7 2749   0.923   1.845   6.936 -0.5650  0.1938 -0.4908
   38CHL1   H7A 2750   0.993   1.922   6.976 -0.1299 -0.3106 -0.2613
   38CHL1   H7B 2751   0.824   1.866   6.980 -0.8115 -0.0486 -0.9208
   38CHL1    C8 2752   0.972   1.701   6.986 -0.0202 -0.5989 -0.0945
   38CHL1    H8 2753   1.079   1.698   6.956  0.8879 -1.2367  2.8667
   38CHL1   C14 2754   0.964   1.698   7.135 -0.5747  0.4902  0.1819
   38CHL1   H14 2755   0.856   1.722   7.147 -0.7336  0.0028 -0.2764
   38CHL1   C15 2756   1.042   1.807   7.208 -0.5345  0.1149  0.5199
   38CHL1  H15A 2757   1.153   1.800   7.201 -0.6961 -3.8251 -0.9717
   38CHL1  H15B 2758   1.002   1.910   7.198 -1.0652 -0.0406  1.0072
   38CHL1   C16 2759   1.016   1.763   7.357 -0.4679  0.4601  0.0611
   38CHL1  H16A 2760   1.109   1.756   7.417 -0.4552 -1.8766 -0.1186
   38CHL1  H16B 2761   0.951   1.833   7.413 -0.1379  0.1862  0.8049
   38CHL1   C17 2762   0.959   1.615   7.356  0.5893 -0.3542  0.2185
   38CHL1   H17 2763   0.850   1.629   7.371  0.4507  0.9138 -1.5324
   38CHL1   C13 2764   0.990   1.567   7.211 -0.3528  0.6201 -0.1451
   38CHL1   C18 2765   1.141   1.531   7.195 -0.2185  0.3647  0.5250
   38CHL1  H18A 2766   1.166   1.545   7.088 -2.0315  0.8982  0.1493
   38CHL1  H18B 2767   1.214   1.598   7.245  2.1488 -1.5906 -0.1347
   38CHL1  H18C 2768   1.168   1.425   7.212 -0.8807 -0.4073 -2.6302
   38CHL1   C12 2769   0.892   1.459   7.141 -0.6861  0.1244 -0.2631
   38CHL1  H12A 2770   0.914   1.355   7.173  1.6424 -0.1848 -2.5342
   38CHL1  H12B 2771   0.786   1.482   7.166 -0.5415  0.2814  0.2195
   38CHL1   C11 2772   0.897   1.456   6.988  0.1038 -0.3867 -0.0740
   38CHL1  H11A 2773   0.994   1.403   6.970 -0.4156 -1.2115 -0.5197
   38CHL1  H11B 2774   0.817   1.389   6.950 -3.0648  2.2980  1.4054
   38CHL1    C9 2775   0.883   1.595   6.919  0.1908  0.5565  0.9168
   38CHL1    H9 2776   0.779   1.628   6.940 -0.6211 -0.4241 -1.2838
   38CHL1   C10 2777   0.900   1.597   6.758  0.2850 -0.1414 -0.1918
   38CHL1   C19 2778   1.032   1.523   6.731  0.1697 -0.5201 -0.5125
   38CHL1  H19A 2779   1.116   1.570   6.785 -0.1650 -0.8685  0.3367
   38CHL1  H19B 2780   1.025   1.417   6.764  1.4261 -0.3880  0.2156
   38CHL1  H19C 2781   1.054   1.538   6.623  1.5975  3.3092  0.1445
   38CHL1    C1 2782   0.774   1.534   6.691 -0.3121 -0.2090  0.0269
   38CHL1   H1A 2783   0.776   1.430   6.731  1.1343 -0.6064 -1.0167
   38CHL1   H1B 2784   0.679   1.579   6.728 -0.7557 -1.3807  0.3573
   38CHL1    C2 2785   0.782   1.544   6.534  0.4352 -0.0728  0.2800
   38CHL1   H2A 2786   0.686   1.508   6.493  1.5623 -1.3696 -1.3261
   38CHL1   H2B 2787   0.860   1.474   6.497 -1.1479 -2.9033  1.9408
   38CHL1   C20 2788   1.003   1.527   7.469 -0.3711 -0.4734 -0.0439
   38CHL1   H20 2789   1.101   1.479   7.451 -1.9129 -3.1620 -2.0036
   38CHL1   C21 2790   0.899   1.406   7.472 -0.4145  0.5671  0.1205
   38CHL1  H21A 2791   0.796   1.442   7.451  0.3813  1.7745 -2.1343
   38CHL1  H21B 2792   0.909   1.348   7.566 -0.7912  1.2548  0.5876
   38CHL1  H21C 2793   0.911   1.330   7.391 -0.2534 -0.4151  1.0404
   38CHL1   C22 2794   0.998   1.595   7.609  0.1598  0.0397  0.2043
   38CHL1  H22A 2795   1.065   1.683   7.599  0.8676 -0.2267  2.3216
   38CHL1  H22B 2796   0.895   1.629   7.631 -0.3908 -0.7068 -1.0847
   38CHL1   C23 2797   1.051   1.491   7.714 -0.1254  0.4040  0.9418
   38CHL1  H23A 2798   0.962   1.427   7.730  1.6905 -2.9306 -1.1159
   38CHL1  H23B 2799   1.131   1.437   7.658  1.6722  2.4767  1.3617
   38CHL1   C24 2800   1.100   1.552   7.837  0.3730 -0.3726 -0.6542
   38CHL1  H24A 2801   1.152   1.467   7.886 -1.2007 -0.3917  1.1047
   38CHL1  H24B 2802   1.182   1.626   7.820  1.1526 -1.3222 -1.0873
   38CHL1   C25 2803   0.992   1.603   7.938 -0.2443  0.0164  0.4969
   38CHL1   H25 2804   0.927   1.667   7.875  1.3300  0.0767 -1.1390
   38CHL1   C26 2805   0.918   1.483   7.997 -0.5870  0.5664 -0.5197
   38CHL1  H26A 2806   0.898   1.407   7.918 -1.5828  0.8943 -0.6056
   38CHL1  H26B 2807   0.981   1.421   8.064  2.6192  1.8731 -2.1158
   38CHL1  H26C 2808   0.825   1.513   8.050 -0.5368  2.1002 -1.2520
   38CHL1   C27 2809   1.055   1.686   8.053  0.3823  0.0759  0.2795
   38CHL1  H27A 2810   1.133   1.627   8.107  1.6501  1.0391 -0.4481
   38CHL1  H27B 2811   1.090   1.787   8.023 -1.1570  0.8366  0.9018
   38CHL1  H27C 2812   0.972   1.708   8.124  0.0059 -0.7949  0.1196
   39CHL1    C3 2813   1.203   0.170   6.818  0.5646  0.3481  0.1317
   39CHL1    H3 2814   1.302   0.218   6.800  1.0123 -1.2371 -2.1507
   39CHL1    O3 2815   1.194   0.116   6.693 -0.9753 -0.5711 -0.0112
   39CHL1   H3' 2816   1.105   0.081   6.696 -1.2032  0.0063  0.1433
   39CHL1    C4 2817   1.214   0.061   6.926 -0.1570  0.4416 -0.5534
   39CHL1   H4A 2818   1.134  -0.014   6.913 -1.2991  1.3242  1.0270
   39CHL1   H4B 2819   1.306   0.000   6.910 -1.1497 -1.1808 -0.3044
   39CHL1    C5 2820   1.225   0.132   7.068  0.3009 -0.6184  0.3339
   39CHL1    C6 2821   1.329   0.096   7.149 -0.1456 -0.5799 -0.1205
   39CHL1    H6 2822   1.401   0.019   7.118 -0.7423 -1.0175 -0.4542
   39CHL1    C7 2823   1.347   0.143   7.291  0.4378  0.2519  0.1489
   39CHL1   H7A 2824   1.395   0.069   7.359  0.9189  1.2709  0.9511
   39CHL1   H7B 2825   1.429   0.218   7.301  0.4372  0.0252  2.5298
   39CHL1    C8 2826   1.218   0.214   7.343 -0.1128 -0.2121 -0.5101
   39CHL1    H8 2827   1.148   0.128   7.354  1.5970 -1.4890  1.1146
   39CHL1   C14 2828   1.244   0.278   7.475 -0.0306 -0.4602 -0.1513
   39CHL1   H14 2829   1.328   0.349   7.460  0.2436 -0.7636 -0.0468
   39CHL1   C15 2830   1.289   0.190   7.595 -0.1603 -0.2222  0.7223
   39CHL1  H15A 2831   1.237   0.093   7.584 -2.8534  1.2045  0.1788
   39CHL1  H15B 2832   1.399   0.175   7.586 -0.0355  0.1737  1.4807
   39CHL1   C16 2833   1.256   0.274   7.713 -0.6281 -0.4488  0.0086
   39CHL1  H16A 2834   1.177   0.228   7.776 -1.9357  2.3311  0.5333
   39CHL1  H16B 2835   1.344   0.282   7.780 -0.6771 -3.5915  0.5921
   39CHL1   C17 2836   1.200   0.413   7.667 -0.1144  0.2935  1.2034
   39CHL1   H17 2837   1.289   0.476   7.647  1.6215 -2.2907  0.1376
   39CHL1   C13 2838   1.137   0.375   7.527 -0.6909 -0.0420  0.1282
   39CHL1   C18 2839   1.008   0.286   7.552  1.0943  0.3667  0.1003
   39CHL1  H18A 2840   0.925   0.352   7.585  1.3954  0.3035  1.0193
   39CHL1  H18B 2841   0.967   0.231   7.464  1.8886 -1.9032  1.0606
   39CHL1  H18C 2842   1.029   0.206   7.627 -2.2244 -0.9437 -0.2083
   39CHL1   C12 2843   1.114   0.490   7.423  0.0077 -1.0045  0.1741
   39CHL1  H12A 2844   1.039   0.561   7.464  1.5980  0.8049  0.0369
   39CHL1  H12B 2845   1.214   0.535   7.409  0.8995 -3.1712 -0.9131
   39CHL1   C11 2846   1.075   0.429   7.286  0.4077  0.5513 -0.0927
   39CHL1  H11A 2847   0.970   0.390   7.284  1.1968 -1.7267  0.0473
   39CHL1  H11B 2848   1.084   0.521   7.225  0.0798  2.1528  2.1520
   39CHL1    C9 2849   1.172   0.323   7.240 -0.5880  0.0576  0.3328
   39CHL1    H9 2850   1.260   0.388   7.221 -1.5615  1.4472  0.3990
   39CHL1   C10 2851   1.133   0.249   7.102  0.2974  0.1479 -0.9475
   39CHL1   C19 2852   1.000   0.178   7.125  0.0512  0.0280 -0.1056
   39CHL1  H19A 2853   0.962   0.116   7.041  0.2855  1.3851 -1.2531
   39CHL1  H19B 2854   0.997   0.121   7.221 -1.4194 -0.2190 -0.2686
   39CHL1  H19C 2855   0.920   0.255   7.128  0.9438  0.9701  2.6480
   39CHL1    C1 2856   1.126   0.349   6.987  0.0073 -0.2435  0.1275
   39CHL1   H1A 2857   1.053   0.430   7.010  0.0176 -0.8102  2.3978
   39CHL1   H1B 2858   1.225   0.399   6.986  1.2053 -2.4190 -2.3022
   39CHL1    C2 2859   1.102   0.286   6.845 -0.2212 -0.6296 -0.4908
   39CHL1   H2A 2860   1.111   0.372   6.776  1.0153 -0.1234  0.2516
   39CHL1   H2B 2861   1.002   0.238   6.844  0.2388 -1.8902  2.4402
   39CHL1   C20 2862   1.105   0.469   7.773  0.2629 -0.0291  0.8989
   39CHL1   H20 2863   1.024   0.394   7.787  0.7546 -0.7696 -0.0610
   39CHL1   C21 2864   1.039   0.598   7.731 -0.1315 -0.2925  0.1131
   39CHL1  H21A 2865   0.980   0.648   7.810  0.9530  3.4961 -1.2631
   39CHL1  H21B 2866   0.972   0.583   7.644 -1.9884  0.6273  1.3256
   39CHL1  H21C 2867   1.119   0.670   7.704 -0.2107  1.0548  3.0920
   39CHL1   C22 2868   1.166   0.490   7.911  0.5039 -0.6555  0.0760
   39CHL1  H22A 2869   1.099   0.557   7.969  0.6810 -0.2935 -0.1318
   39CHL1  H22B 2870   1.165   0.388   7.954  0.1530 -0.7255 -0.0947
   39CHL1   C23 2871   1.303   0.550   7.928  0.4041  0.0376  0.5357
   39CHL1  H23A 2872   1.374   0.486   7.871 -1.4609  0.2399 -2.2330
   39CHL1  H23B 2873   1.307   0.647   7.874 -2.9860  0.4262  0.8162
   39CHL1   C24 2874   1.341   0.561   8.072 -1.2428 -0.6668 -0.4011
   39CHL1  H24A 2875   1.292   0.654   8.108 -0.6889  0.0872 -1.5266
   39CHL1  H24B 2876   1.315   0.471   8.132  1.8262 -0.2832  1.7582
   39CHL1   C25 2877   1.497   0.571   8.098 -1.0933  0.3190 -0.0868
   39CHL1   H25 2878   1.534   0.472   8.063 -2.9407 -0.2850 -0.4303
   39CHL1   C26 2879   1.553   0.688   8.020  0.3256  0.1403  0.0127
   39CHL1  H26A 2880   1.662   0.666   8.020  0.3544  0.1993 -0.9675
   39CHL1  H26B 2881   1.522   0.689   7.913  0.2905 -0.2031  0.0190
   39CHL1  H26C 2882   1.526   0.783   8.071  2.2676  0.7805 -0.0334
   39CHL1   C27 2883   1.539   0.583   8.247 -0.9289 -0.1042 -0.1074
   39CHL1  H27A 2884   1.544   0.688   8.285  1.9030  0.0548 -0.7044
   39CHL1  H27B 2885   1.492   0.515   8.321  0.5168 -0.2107  0.7535
   39CHL1  H27C 2886   1.648   0.565   8.261 -0.7591  1.7694  1.4049
   40CHL1    C3 2887   4.610   6.006   6.847  0.0305 -0.4712  0.3116
   40CHL1    H3 2888   4.686   6.085   6.863 -1.7111  1.7158 -1.4864
   40CHL1    O3 2889   4.636   5.940   6.722 -0.3305  0.3091 -0.1596
   40CHL1   H3' 2890   4.590   5.856   6.729  1.0054 -0.3234  2.2823
   40CHL1    C4 2891   4.603   5.903   6.952 -0.3392  0.0755  0.2705
   40CHL1   H4A 2892   4.538   5.816   6.928 -2.0493  1.7272 -1.5455
   40CHL1   H4B 2893   4.709   5.872   6.963 -0.1359  0.4424 -0.5631
   40CHL1    C5 2894   4.563   5.949   7.086 -0.2717  0.5383 -0.5044
   40CHL1    C6 2895   4.634   5.934   7.194 -0.0174  0.6208 -0.5968
   40CHL1    H6 2896   4.736   5.895   7.184  0.2006  0.8368  0.6584
   40CHL1    C7 2897   4.584   5.960   7.333 -0.2081 -0.0081  0.3581
   40CHL1   H7A 2898   4.605   5.873   7.398  2.2934  1.2594  1.4031
   40CHL1   H7B 2899   4.636   6.052   7.368 -0.5026  0.4073 -0.2845
   40CHL1    C8 2900   4.427   5.974   7.339 -0.1403 -0.3254 -0.5663
   40CHL1    H8 2901   4.366   5.882   7.332 -0.6166 -0.0379 -0.2482
   40CHL1   C14 2902   4.389   6.039   7.476  0.0930 -0.5337 -0.1787
   40CHL1   H14 2903   4.447   6.134   7.479  1.2261 -1.1000 -2.2126
   40CHL1   C15 2904   4.412   5.960   7.600  0.5869  0.6930  0.4267
   40CHL1  H15A 2905   4.386   5.854   7.583 -1.0750  0.8291  1.7950
   40CHL1  H15B 2906   4.513   5.965   7.644  0.4150  0.9661  0.8035
   40CHL1   C16 2907   4.308   6.011   7.700 -0.0417 -0.1579  0.6352
   40CHL1  H16A 2908   4.247   5.923   7.727 -0.1431 -0.1175  0.5356
   40CHL1  H16B 2909   4.361   6.052   7.789 -0.9389 -1.0237  1.5824
   40CHL1   C17 2910   4.224   6.122   7.630  0.4717 -0.1805  0.1794
   40CHL1   H17 2911   4.283   6.213   7.651 -1.1910  0.6205  1.6996
   40CHL1   C13 2912   4.237   6.082   7.481  0.5090 -0.0161 -0.0284
   40CHL1   C18 2913   4.144   5.954   7.460 -0.1342  0.1663  0.2182
   40CHL1  H18A 2914   4.155   5.876   7.538  1.4752 -0.6112 -0.7370
   40CHL1  H18B 2915   4.035   5.977   7.462 -0.0889  0.3894  0.1251
   40CHL1  H18C 2916   4.168   5.901   7.365 -2.3433 -1.5843  0.5654
   40CHL1   C12 2917   4.213   6.189   7.369  0.6082 -0.0105  0.4464
   40CHL1  H12A 2918   4.104   6.210   7.372 -0.2836 -4.1298  1.8749
   40CHL1  H12B 2919   4.271   6.279   7.398 -0.7584  1.0758 -0.0647
   40CHL1   C11 2920   4.259   6.148   7.228  0.3946 -0.0751  0.3893
   40CHL1  H11A 2921   4.177   6.090   7.182  3.0071 -0.4184 -4.4152
   40CHL1  H11B 2922   4.264   6.243   7.171 -0.8050  1.1680  2.2330
   40CHL1    C9 2923   4.394   6.067   7.222  0.3096 -0.1647 -0.3510
   40CHL1    H9 2924   4.474   6.144   7.235  1.1960 -0.9590 -1.0564
   40CHL1   C10 2925   4.424   6.008   7.084  1.0154  0.1990  0.5743
   40CHL1   C19 2926   4.322   5.900   7.047  0.0743 -0.1153  0.1181
   40CHL1  H19A 2927   4.349   5.847   6.953  0.8805 -0.5281  0.5656
   40CHL1  H19B 2928   4.313   5.825   7.129  1.6361 -0.5569 -0.0714
   40CHL1  H19C 2929   4.220   5.940   7.037  0.0642 -0.1642  0.0220
   40CHL1    C1 2930   4.417   6.126   6.980  0.6100 -0.6006 -0.2244
   40CHL1   H1A 2931   4.309   6.153   6.977  0.3464 -1.0324  2.4067
   40CHL1   H1B 2932   4.486   6.205   7.015 -0.0193  0.5254 -1.4591
   40CHL1    C2 2933   4.471   6.078   6.844 -0.1726  1.0406  0.2707
   40CHL1   H2A 2934   4.482   6.166   6.776 -0.1273  1.4402  0.7839
   40CHL1   H2B 2935   4.402   6.004   6.800  0.5127 -0.3779  1.4990
   40CHL1   C20 2936   4.081   6.143   7.693  0.1752  0.0652 -0.0209
   40CHL1   H20 2937   4.027   6.049   7.668  0.2904 -0.1414  0.4865
   40CHL1   C21 2938   4.008   6.266   7.638  0.6560  0.2968  0.0405
   40CHL1  H21A 2939   4.072   6.356   7.637  2.7196 -1.1128 -0.5084
   40CHL1  H21B 2940   3.914   6.301   7.687  0.6482  1.6245 -0.8807
   40CHL1  H21C 2941   3.980   6.247   7.532 -0.7348 -1.1391  0.6169
   40CHL1   C22 2942   4.080   6.142   7.844  0.0365  0.2383  0.2390
   40CHL1  H22A 2943   3.976   6.133   7.881  0.1181  0.9822  0.6702
   40CHL1  H22B 2944   4.125   6.049   7.885 -1.4884 -1.1411 -1.0441
   40CHL1   C23 2945   4.129   6.272   7.917 -0.0880 -0.3162  0.7631
   40CHL1  H23A 2946   4.211   6.310   7.853 -0.3795 -0.5647  0.2380
   40CHL1  H23B 2947   4.057   6.357   7.912  2.8049  2.3326  1.0972
   40CHL1   C24 2948   4.183   6.265   8.064 -0.1575 -0.1849 -0.1665
   40CHL1  H24A 2949   4.269   6.195   8.072  1.3763  1.5573 -0.6321
   40CHL1  H24B 2950   4.233   6.363   8.080  2.2005 -1.2528 -0.5926
   40CHL1   C25 2951   4.072   6.246   8.184 -0.3600  0.8266  0.7003
   40CHL1   H25 2952   4.021   6.153   8.153  1.1779  0.5274 -1.1073
   40CHL1   C26 2953   4.149   6.246   8.321 -0.3594  0.2230  0.3665
   40CHL1  H26A 2954   4.224   6.164   8.321 -0.1848  0.3652 -0.9043
   40CHL1  H26B 2955   4.187   6.349   8.334 -0.0584  0.0875  0.5681
   40CHL1  H26C 2956   4.079   6.215   8.402  0.5630  1.4005  1.6445
   40CHL1   C27 2957   3.971   6.357   8.178  0.1792  0.0642 -0.4942
   40CHL1  H27A 2958   3.902   6.347   8.091 -1.9478  1.7071  0.8975
   40CHL1  H27B 2959   3.913   6.364   8.273  1.2429  2.1585  0.0622
   40CHL1  H27C 2960   4.025   6.453   8.163  0.5084  0.0045  0.2588
   41CHL1    C3 2961   4.289   4.758   7.041 -0.3090  0.2174  0.3156
   41CHL1    H3 2962   4.196   4.698   7.037  1.4145 -2.5675 -1.5554
   41CHL1    O3 2963   4.319   4.781   6.903 -0.3649  1.0396 -0.3431
   41CHL1   H3' 2964   4.328   4.691   6.870  0.7282  1.2569 -0.6916
   41CHL1    C4 2965   4.274   4.894   7.119  0.4486 -0.0587 -0.1249
   41CHL1   H4A 2966   4.362   4.961   7.116  1.4649 -1.2828  1.1398
   41CHL1   H4B 2967   4.192   4.948   7.066 -0.6403 -1.0194  0.5373
   41CHL1    C5 2968   4.246   4.860   7.259 -0.3134 -0.5055  0.9530
   41CHL1    C6 2969   4.136   4.912   7.318  0.1924 -0.4649  0.0773
   41CHL1    H6 2970   4.070   4.973   7.255  0.2354  0.0065  0.4848
   41CHL1    C7 2971   4.089   4.877   7.456  0.0913  0.0597  0.4015
   41CHL1   H7A 2972   4.048   4.967   7.507 -2.1415 -0.0515 -1.0709
   41CHL1   H7B 2973   4.007   4.803   7.464  0.9231 -0.6828  3.6156
   41CHL1    C8 2974   4.208   4.826   7.537 -0.5604  0.7292  0.2742
   41CHL1    H8 2975   4.272   4.915   7.551 -0.1309  0.5708 -0.6610
   41CHL1   C14 2976   4.160   4.769   7.675  0.5727  0.0240 -1.3124
   41CHL1   H14 2977   4.099   4.678   7.656  0.7245  0.2445 -2.9958
   41CHL1   C15 2978   4.072   4.863   7.756 -0.7230 -1.4866  0.1017
   41CHL1  H15A 2979   4.108   4.967   7.742  1.3962 -1.6769  3.0623
   41CHL1  H15B 2980   3.973   4.856   7.708 -0.3502  1.2071 -1.2506
   41CHL1   C16 2981   4.098   4.814   7.899 -0.4056 -0.1450 -0.3416
   41CHL1  H16A 2982   4.154   4.883   7.965  0.5901 -1.8009  0.6242
   41CHL1  H16B 2983   4.003   4.792   7.952 -0.7766  2.3764  0.1882
   41CHL1   C17 2984   4.189   4.679   7.892  0.3043  0.0133  0.1725
   41CHL1   H17 2985   4.112   4.603   7.867 -0.2139 -0.2120  2.3064
   41CHL1   C13 2986   4.271   4.704   7.765  0.0981 -0.0989 -1.2657
   41CHL1   C18 2987   4.383   4.805   7.808  0.2881  0.0615 -0.1929
   41CHL1  H18A 2988   4.356   4.888   7.877  1.7878  0.1704  0.3066
   41CHL1  H18B 2989   4.469   4.755   7.858  0.8415  1.5424  0.3835
   41CHL1  H18C 2990   4.423   4.849   7.714 -1.6501  1.8344 -0.2585
   41CHL1   C12 2991   4.335   4.581   7.684 -0.0409 -0.1621 -1.1073
   41CHL1  H12A 2992   4.409   4.522   7.743  0.9564  1.0513 -1.0987
   41CHL1  H12B 2993   4.247   4.518   7.660 -0.9971  0.2370  1.0388
   41CHL1   C11 2994   4.393   4.627   7.553 -0.6848 -0.3944 -0.1195
   41CHL1  H11A 2995   4.488   4.680   7.578 -0.3464 -1.3573  0.7145
   41CHL1  H11B 2996   4.411   4.540   7.485  0.0488 -1.2746  1.1454
   41CHL1    C9 2997   4.296   4.719   7.464 -0.9879 -0.3504  0.8665
   41CHL1    H9 2998   4.218   4.646   7.434 -1.7933  1.1929 -1.0591
   41CHL1   C10 2999   4.347   4.765   7.324 -0.4089  0.5604  0.4728
   41CHL1   C19 3000   4.468   4.849   7.349  0.7730 -0.6926  0.4169
   41CHL1  H19A 3001   4.545   4.802   7.415  2.3918 -1.8312 -2.1141
   41CHL1  H19B 3002   4.524   4.870   7.256  0.1019 -1.5053 -0.1858
   41CHL1  H19C 3003   4.436   4.942   7.401  0.4398  0.2679 -1.4224
   41CHL1    C1 3004   4.376   4.641   7.236 -0.1277  0.3228  0.3691
   41CHL1   H1A 3005   4.464   4.585   7.275  0.4609  0.6828 -0.4176
   41CHL1   H1B 3006   4.287   4.575   7.247  0.1462 -0.2620 -0.7613
   41CHL1    C2 3007   4.407   4.670   7.090 -0.2233 -0.9612  0.3946
   41CHL1   H2A 3008   4.422   4.578   7.029  1.3827  0.3093 -1.2099
   41CHL1   H2B 3009   4.496   4.735   7.083 -0.1172 -0.9550  1.5174
   41CHL1   C20 3010   4.252   4.644   8.024  0.3300 -0.1696 -0.0007
   41CHL1   H20 3011   4.337   4.710   8.050  2.6685 -2.8625 -0.3141
   41CHL1   C21 3012   4.312   4.501   8.017  0.3074 -0.7374 -0.0788
   41CHL1  H21A 3013   4.391   4.486   7.940  0.3804 -1.6852  0.1653
   41CHL1  H21B 3014   4.225   4.432   8.005  0.2538 -0.8710  0.9729
   41CHL1  H21C 3015   4.364   4.479   8.113 -1.6311  1.6215  1.6298
   41CHL1   C22 3016   4.158   4.645   8.152 -0.6803  0.1457  0.3356
   41CHL1  H22A 3017   4.110   4.745   8.154  2.5978  1.8609  2.3550
   41CHL1  H22B 3018   4.081   4.564   8.150 -1.5797  0.9810 -1.2664
   41CHL1   C23 3019   4.233   4.656   8.286 -0.1292 -0.6641  0.1858
   41CHL1  H23A 3020   4.293   4.568   8.318 -1.5185 -0.4883  3.6782
   41CHL1  H23B 3021   4.299   4.746   8.278 -0.8208 -0.1612  0.0367
   41CHL1   C24 3022   4.136   4.690   8.399 -0.7434 -0.5937  0.1405
   41CHL1  H24A 3023   4.083   4.784   8.370  0.6838  0.1640 -0.0973
   41CHL1  H24B 3024   4.060   4.609   8.405 -1.0512 -0.4153 -1.0921
   41CHL1   C25 3025   4.188   4.713   8.547 -0.2728 -0.0077 -0.4281
   41CHL1   H25 3026   4.252   4.628   8.577  0.2825  0.5998  0.1545
   41CHL1   C26 3027   4.275   4.837   8.542 -0.6241 -0.4799  0.1476
   41CHL1  H26A 3028   4.218   4.909   8.480  0.7214 -1.6560 -2.6398
   41CHL1  H26B 3029   4.307   4.881   8.639 -0.9920  1.7587 -0.6890
   41CHL1  H26C 3030   4.367   4.803   8.489 -1.4161 -2.4492 -0.0326
   41CHL1   C27 3031   4.068   4.714   8.651  0.2081 -0.6482  0.0872
   41CHL1  H27A 3032   4.104   4.748   8.751  0.1305  1.9249 -0.6913
   41CHL1  H27B 3033   3.992   4.783   8.611 -0.6502 -0.2517  2.2591
   41CHL1  H27C 3034   4.023   4.612   8.647 -0.7539 -0.1992 -1.3114
   42CHL1    C3 3035   4.971   1.713   7.070  0.5098 -0.4128 -0.2686
   42CHL1    H3 3036   4.978   1.818   7.106 -0.0103 -1.3180  2.7543
   42CHL1    O3 3037   4.942   1.709   6.930  0.2169 -0.3337 -0.2947
   42CHL1   H3' 3038   4.897   1.625   6.931 -0.4452  0.0152  0.2868
   42CHL1    C4 3039   5.095   1.630   7.097 -0.8275 -0.2872 -0.0594
   42CHL1   H4A 3040   5.088   1.525   7.064 -2.2569 -0.3616  0.4060
   42CHL1   H4B 3041   5.184   1.660   7.037 -2.5078  1.0942 -1.9972
   42CHL1    C5 3042   5.129   1.629   7.246  0.0722  0.7491 -0.3416
   42CHL1    C6 3043   5.251   1.663   7.294  0.0077 -0.0558 -0.3942
   42CHL1    H6 3044   5.330   1.680   7.219  1.0941 -3.1572 -0.0902
   42CHL1    C7 3045   5.290   1.660   7.442 -0.3653  0.1944 -0.7036
   42CHL1   H7A 3046   5.374   1.588   7.452 -0.3658  0.2209 -0.5085
   42CHL1   H7B 3047   5.342   1.753   7.474  0.8702  0.2389 -2.7199
   42CHL1    C8 3048   5.175   1.618   7.538 -0.3278 -0.4680 -0.6793
   42CHL1    H8 3049   5.183   1.507   7.535  3.6864 -0.3534 -0.1639
   42CHL1   C14 3050   5.206   1.674   7.678  0.5353  0.0307  0.3206
   42CHL1   H14 3051   5.215   1.785   7.672  0.1455  0.2321  2.6804
   42CHL1   C15 3052   5.346   1.648   7.742  0.0739  0.7304 -1.0571
   42CHL1  H15A 3053   5.363   1.539   7.737 -1.0136  0.3328  1.8713
   42CHL1  H15B 3054   5.422   1.706   7.686  1.1382  0.1499 -0.2501
   42CHL1   C16 3055   5.322   1.691   7.886  0.0915 -0.4976 -0.6818
   42CHL1  H16A 3056   5.361   1.628   7.969 -2.9503 -0.2564  1.0812
   42CHL1  H16B 3057   5.369   1.791   7.894 -1.6949  0.2930  0.8178
   42CHL1   C17 3058   5.162   1.702   7.907 -0.2902  0.4692 -0.0069
   42CHL1   H17 3059   5.139   1.810   7.895 -1.2736  0.2514 -0.1714
   42CHL1   C13 3060   5.105   1.638   7.779  0.1129 -0.8069  0.3249
   42CHL1   C18 3061   5.093   1.481   7.798 -0.5077  0.3802  0.1002
   42CHL1  H18A 3062   5.170   1.435   7.864 -0.1253  0.7306 -0.0926
   42CHL1  H18B 3063   5.006   1.453   7.861 -0.5906 -0.1065 -0.2218
   42CHL1  H18C 3064   5.087   1.433   7.698  0.0862  1.4588 -0.4640
   42CHL1   C12 3065   4.975   1.709   7.733  0.7089  0.2029 -0.1426
   42CHL1  H12A 3066   4.891   1.705   7.805  0.7700  3.2720  0.2320
   42CHL1  H12B 3067   4.992   1.817   7.715 -1.1887  0.6330  0.3646
   42CHL1   C11 3068   4.924   1.646   7.602 -0.2456 -0.6562 -0.0219
   42CHL1  H11A 3069   4.887   1.542   7.614 -0.6076 -0.4341  0.8544
   42CHL1  H11B 3070   4.839   1.707   7.564 -0.2700 -1.6727 -1.7025
   42CHL1    C9 3071   5.036   1.662   7.492 -0.3045 -0.4702 -0.0035
   42CHL1    H9 3072   5.046   1.772   7.484  1.0858 -0.5969 -0.2799
   42CHL1   C10 3073   5.007   1.610   7.347 -0.6147 -0.0065  0.1598
   42CHL1   C19 3074   4.976   1.460   7.337  0.6625 -0.0068  0.2679
   42CHL1  H19A 3075   4.946   1.426   7.235 -1.8277 -0.2535  1.0311
   42CHL1  H19B 3076   5.068   1.405   7.368  0.6334 -1.1994 -1.6138
   42CHL1  H19C 3077   4.892   1.430   7.403  0.9713  1.6743  1.4928
   42CHL1    C1 3078   4.879   1.681   7.296  0.1511 -0.3831 -0.2055
   42CHL1   H1A 3079   4.784   1.642   7.339 -1.3056 -0.4874 -3.2541
   42CHL1   H1B 3080   4.894   1.790   7.314  0.0934 -0.5941  1.2047
   42CHL1    C2 3081   4.851   1.669   7.147  1.0216 -0.0396 -0.1467
   42CHL1   H2A 3082   4.763   1.728   7.117  0.1825 -1.6213 -0.9405
   42CHL1   H2B 3083   4.835   1.560   7.129 -2.6891  0.3991 -0.2036
   42CHL1   C20 3084   5.126   1.647   8.040 -0.4210  0.1246 -0.3970
   42CHL1   H20 3085   5.132   1.537   8.050  0.8027  0.2839  0.8774
   42CHL1   C21 3086   4.978   1.666   8.058  0.2844  0.8617 -1.5060
   42CHL1  H21A 3087   4.922   1.601   7.988 -0.7340 -1.3058  1.1368
   42CHL1  H21B 3088   4.937   1.767   8.080 -0.0304 -0.1460  4.0570
   42CHL1  H21C 3089   4.950   1.613   8.152  1.5396 -0.0671 -1.6218
   42CHL1   C22 3090   5.195   1.723   8.160  0.0276  0.4764  0.1919
   42CHL1  H22A 3091   5.135   1.698   8.250  1.5434  3.5120  2.1972
   42CHL1  H22B 3092   5.296   1.680   8.175 -0.1746  1.0473  4.8419
   42CHL1   C23 3093   5.198   1.883   8.157  0.6298  0.6433  0.2670
   42CHL1  H23A 3094   5.278   1.912   8.085  0.0107  1.1725 -0.2247
   42CHL1  H23B 3095   5.104   1.933   8.127 -0.9131 -1.4152  1.4249
   42CHL1   C24 3096   5.232   1.938   8.298  0.3885  0.2728  0.2960
   42CHL1  H24A 3097   5.153   1.920   8.374  1.9989 -1.4103  1.6535
   42CHL1  H24B 3098   5.315   1.880   8.343  0.0076  0.1383  0.8346
   42CHL1   C25 3099   5.261   2.089   8.307  0.3943  0.7039 -0.5054
   42CHL1   H25 3100   5.197   2.149   8.239  2.0476  2.8630 -0.2912
   42CHL1   C26 3101   5.252   2.136   8.455  0.6788  0.0781  0.2795
   42CHL1  H26A 3102   5.150   2.138   8.498  0.7520 -1.5250  0.5684
   42CHL1  H26B 3103   5.315   2.079   8.526 -2.3231 -0.9290  2.3249
   42CHL1  H26C 3104   5.281   2.244   8.460 -0.8551  0.4994  0.6021
   42CHL1   C27 3105   5.402   2.119   8.258 -0.5516  0.5972  0.0635
   42CHL1  H27A 3106   5.477   2.068   8.322 -0.7817 -2.4263 -1.8575
   42CHL1  H27B 3107   5.416   2.228   8.238  1.0472  0.5482  0.7860
   42CHL1  H27C 3108   5.423   2.064   8.163 -0.1751  0.4053  0.2536
   43CHL1    C3 3109   4.847   6.490   6.835  0.3988 -0.6022 -0.3364
   43CHL1    H3 3110   4.876   6.595   6.818  0.4831 -0.7025 -0.8489
   43CHL1    O3 3111   4.851   6.432   6.707  0.6063  0.8986  0.6803
   43CHL1   H3' 3112   4.939   6.395   6.698  0.0664  0.0605 -1.7105
   43CHL1    C4 3113   4.948   6.412   6.929  0.1710 -0.3583 -0.7339
   43CHL1   H4A 3114   4.940   6.302   6.912 -0.5515 -0.0924 -2.2210
   43CHL1   H4B 3115   5.050   6.438   6.895  0.2754 -3.2488 -2.9967
   43CHL1    C5 3116   4.928   6.431   7.080 -0.1735  0.5318 -0.1409
   43CHL1    C6 3117   5.031   6.465   7.158 -0.3167  0.0012  0.3837
   43CHL1    H6 3118   5.136   6.468   7.126  0.1670  1.7253  2.0052
   43CHL1    C7 3119   5.010   6.482   7.306  0.3490 -0.2836 -0.1898
   43CHL1   H7A 3120   5.096   6.456   7.371 -0.8266  0.9884  2.0252
   43CHL1   H7B 3121   4.997   6.592   7.314  0.9159 -0.1114 -1.4533
   43CHL1    C8 3122   4.879   6.422   7.368  0.5672  0.4127 -0.0738
   43CHL1    H8 3123   4.901   6.314   7.381  0.8153  0.2272 -1.8741
   43CHL1   C14 3124   4.855   6.479   7.507 -0.1976 -0.0490 -0.2957
   43CHL1   H14 3125   4.842   6.588   7.489  1.1920  0.2976  0.6579
   43CHL1   C15 3126   4.968   6.465   7.615 -0.2811 -0.5406  0.2997
   43CHL1  H15A 3127   5.033   6.375   7.614 -0.4169 -0.6687  1.4992
   43CHL1  H15B 3128   5.038   6.551   7.606 -1.2968  0.2184 -0.6565
   43CHL1   C16 3129   4.895   6.475   7.748 -0.2284  0.0685  0.0625
   43CHL1  H16A 3130   4.909   6.376   7.796 -2.0844 -0.6223 -0.7347
   43CHL1  H16B 3131   4.929   6.557   7.815 -1.1093  1.3117 -0.9798
   43CHL1   C17 3132   4.741   6.496   7.709  0.6397  0.8065 -0.6500
   43CHL1   H17 3133   4.731   6.607   7.707  2.3116  0.9727 -3.1584
   43CHL1   C13 3134   4.725   6.430   7.577  0.1562  0.5306 -0.0284
   43CHL1   C18 3135   4.726   6.276   7.602  1.1747 -0.1433  0.3265
   43CHL1  H18A 3136   4.751   6.226   7.506 -3.7961 -1.6295 -0.4754
   43CHL1  H18B 3137   4.789   6.236   7.684  0.8079  1.3527  1.3743
   43CHL1  H18C 3138   4.621   6.243   7.614  0.5285  0.5651 -2.5055
   43CHL1   C12 3139   4.615   6.471   7.483  0.2841 -0.0307  0.0726
   43CHL1  H12A 3140   4.515   6.445   7.523  0.0136  2.5717  1.2452
   43CHL1  H12B 3141   4.628   6.581   7.479 -0.7444  0.1043  0.3145
   43CHL1   C11 3142   4.627   6.406   7.340 -0.0325  0.2574 -0.7002
   43CHL1  H11A 3143   4.616   6.296   7.343  1.8001  0.0381 -1.1278
   43CHL1  H11B 3144   4.547   6.457   7.282 -1.2774 -1.5862 -0.6718
   43CHL1    C9 3145   4.759   6.445   7.280 -0.4092 -0.0966  0.5062
   43CHL1    H9 3146   4.754   6.556   7.276 -1.6600 -0.1567 -2.0150
   43CHL1   C10 3147   4.780   6.411   7.131 -0.5697 -0.0970 -0.3119
   43CHL1   C19 3148   4.740   6.258   7.113 -0.4514  0.5760 -0.0682
   43CHL1  H19A 3149   4.817   6.197   7.166  0.5529 -0.4789 -2.5915
   43CHL1  H19B 3150   4.640   6.238   7.157  0.5749 -0.9168  1.7595
   43CHL1  H19C 3151   4.740   6.236   7.005 -0.6607  0.7509 -0.1042
   43CHL1    C1 3152   4.690   6.505   7.041 -0.4835  0.0681 -0.3113
   43CHL1   H1A 3153   4.584   6.501   7.072 -0.9380  1.0228 -1.6654
   43CHL1   H1B 3154   4.711   6.614   7.055 -1.6965  0.2230  0.4296
   43CHL1    C2 3155   4.709   6.486   6.890  0.9880  0.2438 -0.0057
   43CHL1   H2A 3156   4.655   6.566   6.835 -1.3212 -0.7616  0.6569
   43CHL1   H2B 3157   4.656   6.392   6.862  1.0212  0.6459 -1.4710
   43CHL1   C20 3158   4.658   6.453   7.824  0.3129  0.9749  0.3762
   43CHL1   H20 3159   4.685   6.348   7.850  1.8092  0.9992 -0.9383
   43CHL1   C21 3160   4.507   6.446   7.791  0.7017 -0.2269  0.3323
   43CHL1  H21A 3161   4.452   6.427   7.885  0.2280 -0.8829 -0.0666
   43CHL1  H21B 3162   4.476   6.366   7.720  1.5183 -1.2619  1.1182
   43CHL1  H21C 3163   4.464   6.543   7.756  1.0403 -0.1974 -0.0136
   43CHL1   C22 3164   4.676   6.528   7.953 -0.2237  0.1484 -0.3076
   43CHL1  H22A 3165   4.775   6.565   7.987 -0.4605  1.5236 -1.0710
   43CHL1  H22B 3166   4.612   6.617   7.938 -2.4404 -0.9816  1.7982
   43CHL1   C23 3167   4.628   6.439   8.079 -0.0919 -0.1139  0.6899
   43CHL1  H23A 3168   4.542   6.374   8.052 -1.2515  1.4906  0.3049
   43CHL1  H23B 3169   4.702   6.364   8.113  0.5464  0.1136 -0.1465
   43CHL1   C24 3170   4.595   6.527   8.203 -0.1323  0.0515 -0.0397
   43CHL1  H24A 3171   4.667   6.610   8.213  0.0749 -0.2457  0.9699
   43CHL1  H24B 3172   4.497   6.576   8.186 -0.4460  0.2285  2.0109
   43CHL1   C25 3173   4.586   6.454   8.347 -0.4814  0.1601 -0.2131
   43CHL1   H25 3174   4.543   6.531   8.414  0.8534 -0.7745  1.8005
   43CHL1   C26 3175   4.521   6.321   8.354  0.6513 -0.4834 -0.3909
   43CHL1  H26A 3176   4.415   6.320   8.319  0.2072  0.6797  0.8307
   43CHL1  H26B 3177   4.563   6.241   8.290 -2.4011 -1.4414 -1.3782
   43CHL1  H26C 3178   4.527   6.276   8.455  2.8316  0.1132 -0.2140
   43CHL1   C27 3179   4.734   6.428   8.394  0.2812  0.1582  0.3330
   43CHL1  H27A 3180   4.719   6.397   8.500  0.5774 -0.5006  0.1850
   43CHL1  H27B 3181   4.782   6.342   8.341 -0.5444 -1.0588  1.4928
   43CHL1  H27C 3182   4.804   6.513   8.379  0.7467 -0.2765 -0.0084
   44CHL1    C3 3183   5.883   4.999   6.572  0.0238  0.9206 -0.4774
   44CHL1    H3 3184   5.778   4.967   6.557 -0.3832  2.7504 -1.9163
   44CHL1    O3 3185   5.949   4.980   6.451 -0.2443 -0.2982 -0.0716
   44CHL1   H3' 3186   6.037   5.000   6.485 -1.9242  4.3440  2.4492
   44CHL1    C4 3187   5.897   5.146   6.611 -0.1781  0.4572 -0.0723
   44CHL1   H4A 3188   6.005   5.169   6.625 -0.1332 -1.1317  3.1491
   44CHL1   H4B 3189   5.859   5.214   6.531  0.1649  2.6189  1.5097
   44CHL1    C5 3190   5.828   5.167   6.741  0.4649 -0.3101  0.2552
   44CHL1    C6 3191   5.723   5.258   6.748 -0.7247 -0.4543 -0.9430
   44CHL1    H6 3192   5.676   5.295   6.656 -1.2389 -2.8026 -1.6908
   44CHL1    C7 3193   5.652   5.285   6.879  0.4569  0.2988  0.1345
   44CHL1   H7A 3194   5.629   5.393   6.886 -0.1035  0.0613  2.8421
   44CHL1   H7B 3195   5.556   5.229   6.883 -0.6318  1.8932 -1.6796
   44CHL1    C8 3196   5.739   5.232   6.998 -0.1415 -0.4600  0.2337
   44CHL1    H8 3197   5.835   5.289   6.998 -0.6808  0.4705 -0.0448
   44CHL1   C14 3198   5.662   5.245   7.134  0.6554 -0.2876 -0.4113
   44CHL1   H14 3199   5.576   5.175   7.129  1.8772 -1.8308 -0.9361
   44CHL1   C15 3200   5.597   5.379   7.161 -0.3655 -0.1460  0.6370
   44CHL1  H15A 3201   5.667   5.464   7.145  0.8554 -1.6345 -3.0930
   44CHL1  H15B 3202   5.507   5.399   7.100  0.2854  2.5566  0.4199
   44CHL1   C16 3203   5.576   5.381   7.317 -0.3575  0.3765 -0.0231
   44CHL1  H16A 3204   5.628   5.472   7.353  0.1789 -0.4068  1.2509
   44CHL1  H16B 3205   5.469   5.388   7.345 -0.4221 -1.7367  0.4619
   44CHL1   C17 3206   5.624   5.236   7.362  0.2241  0.8886 -0.1529
   44CHL1   H17 3207   5.536   5.168   7.355 -0.5115  1.7754  0.3537
   44CHL1   C13 3208   5.732   5.194   7.260  0.3279 -0.6487 -0.3021
   44CHL1   C18 3209   5.866   5.268   7.282  0.0894 -0.3463 -0.1150
   44CHL1  H18A 3210   5.938   5.255   7.199  0.0756  1.9633 -0.5588
   44CHL1  H18B 3211   5.847   5.377   7.280  2.0930  0.0472  0.5564
   44CHL1  H18C 3212   5.924   5.242   7.374  2.3683  2.1890 -0.7185
   44CHL1   C12 3213   5.753   5.046   7.234 -0.0230  0.2875 -0.1810
   44CHL1  H12A 3214   5.810   5.015   7.324 -0.7538  1.8506  0.8882
   44CHL1  H12B 3215   5.655   4.993   7.228  0.5598 -0.7338 -0.8296
   44CHL1   C11 3216   5.826   5.014   7.108 -0.8652  0.5299  0.2614
   44CHL1  H11A 3217   5.931   5.045   7.126  0.2273 -1.2514 -2.4241
   44CHL1  H11B 3218   5.826   4.903   7.103 -0.8148  0.5251  0.3703
   44CHL1    C9 3219   5.775   5.080   6.974 -0.7250  0.1389  0.1798
   44CHL1    H9 3220   5.677   5.030   6.957 -1.3194  0.5499  2.1667
   44CHL1   C10 3221   5.873   5.066   6.851  0.4714 -0.1221 -0.6254
   44CHL1   C19 3222   6.017   5.102   6.893 -0.3545 -0.0805 -0.1969
   44CHL1  H19A 3223   6.079   5.089   6.802  1.4048  1.5777  0.7011
   44CHL1  H19B 3224   6.015   5.210   6.919  1.3125  0.3124 -1.5461
   44CHL1  H19C 3225   6.058   5.050   6.981 -2.3176  2.1810  2.2455
   44CHL1    C1 3226   5.869   4.923   6.801  0.0635  0.0702 -0.1986
   44CHL1   H1A 3227   5.907   4.861   6.885  0.4450  0.4414 -0.0897
   44CHL1   H1B 3228   5.762   4.908   6.774 -0.2782 -1.0451  1.5872
   44CHL1    C2 3229   5.944   4.898   6.668  0.2988 -0.1745 -1.0135
   44CHL1   H2A 3230   5.917   4.799   6.626  0.3663  0.1563 -1.8432
   44CHL1   H2B 3231   6.053   4.897   6.688  0.1517 -0.3664 -0.1562
   44CHL1   C20 3232   5.674   5.242   7.508  1.3618 -0.2474  0.1074
   44CHL1   H20 3233   5.779   5.277   7.508  1.5517 -0.7954 -0.1625
   44CHL1   C21 3234   5.667   5.095   7.562 -0.4208 -0.6426  0.8341
   44CHL1  H21A 3235   5.721   5.022   7.499 -1.4837  0.1141 -1.0286
   44CHL1  H21B 3236   5.559   5.077   7.578 -1.0688  1.1190 -1.0459
   44CHL1  H21C 3237   5.720   5.093   7.660 -1.1332 -1.6758  1.2154
   44CHL1   C22 3238   5.594   5.337   7.594 -0.5785  0.8312  0.1522
   44CHL1  H22A 3239   5.638   5.436   7.571  1.7559  0.2695  1.8405
   44CHL1  H22B 3240   5.485   5.344   7.574 -0.5327 -0.3197 -0.5589
   44CHL1   C23 3241   5.609   5.314   7.751  0.4203  0.9835  0.6027
   44CHL1  H23A 3242   5.580   5.209   7.774  1.0974  0.7604  0.4801
   44CHL1  H23B 3243   5.719   5.322   7.766  0.1993  2.1148  1.8665
   44CHL1   C24 3244   5.541   5.419   7.838  0.1452  0.4937  0.5398
   44CHL1  H24A 3245   5.552   5.520   7.793 -2.9898  0.9565  0.5627
   44CHL1  H24B 3246   5.433   5.394   7.827  0.4715 -0.6330 -0.3504
   44CHL1   C25 3247   5.584   5.409   7.986 -0.2538  0.4424 -0.7381
   44CHL1   H25 3248   5.683   5.458   7.999  0.5141 -1.6939  2.9215
   44CHL1   C26 3249   5.479   5.476   8.080 -0.4088 -0.1546 -0.2278
   44CHL1  H26A 3250   5.507   5.454   8.185 -0.2780  0.5646 -0.1086
   44CHL1  H26B 3251   5.465   5.586   8.077 -1.6157 -0.2419  0.8596
   44CHL1  H26C 3252   5.384   5.435   8.039 -0.0243  0.0209 -1.3086
   44CHL1   C27 3253   5.609   5.265   8.038  0.2159  0.3714  0.1621
   44CHL1  H27A 3254   5.512   5.214   8.020  1.4670 -1.6840 -1.1451
   44CHL1  H27B 3255   5.689   5.218   7.978 -0.3271 -0.8623  0.3752
   44CHL1  H27C 3256   5.637   5.263   8.145 -1.4610 -0.2639  0.6310
   45CHL1    C3 3257   5.857   2.226   6.731 -0.0618 -0.3066  0.2505
   45CHL1    H3 3258   5.844   2.122   6.768  1.4421 -0.1686  1.2579
   45CHL1    O3 3259   5.804   2.242   6.600 -0.2801  0.1550 -0.7202
   45CHL1   H3' 3260   5.807   2.337   6.586 -0.1494 -0.0655 -2.3051
   45CHL1    C4 3261   5.771   2.311   6.825 -0.7097  0.1378  0.2548
   45CHL1   H4A 3262   5.771   2.415   6.786  1.6185  0.9427  2.1517
   45CHL1   H4B 3263   5.665   2.279   6.815 -1.2203  1.9403 -0.4899
   45CHL1    C5 3264   5.815   2.309   6.967 -0.0928  0.4224 -0.3033
   45CHL1    C6 3265   5.730   2.262   7.062  0.0855  0.2550 -0.5045
   45CHL1    H6 3266   5.631   2.226   7.032 -0.4760  0.1422  1.3771
   45CHL1    C7 3267   5.759   2.263   7.211  0.2244  0.1576  0.0355
   45CHL1   H7A 3268   5.680   2.316   7.267 -0.5352 -1.4855  0.5611
   45CHL1   H7B 3269   5.766   2.161   7.254 -0.2239 -0.5939 -1.5888
   45CHL1    C8 3270   5.900   2.334   7.244  0.2126 -0.3923  0.1154
   45CHL1    H8 3271   5.890   2.444   7.239 -0.3623 -0.4687 -0.8480
   45CHL1   C14 3272   5.944   2.300   7.380  0.2191  0.5763  0.3371
   45CHL1   H14 3273   5.963   2.191   7.368  0.0870  0.6795 -1.0496
   45CHL1   C15 3274   5.841   2.309   7.497  0.3531  0.5488 -0.6662
   45CHL1  H15A 3275   5.813   2.415   7.480 -1.0331  0.0660 -1.5450
   45CHL1  H15B 3276   5.755   2.238   7.498  1.6054 -1.0728  0.8527
   45CHL1   C16 3277   5.924   2.297   7.624 -0.2120 -0.2189 -0.8168
   45CHL1  H16A 3278   5.892   2.391   7.674 -0.6790 -1.0529  0.4835
   45CHL1  H16B 3279   5.896   2.224   7.702  0.1246  0.4792 -0.0279
   45CHL1   C17 3280   6.076   2.308   7.573  0.4078  0.4795 -0.0552
   45CHL1   H17 3281   6.104   2.201   7.565 -0.9846  0.0269  0.8048
   45CHL1   C13 3282   6.072   2.354   7.429  0.2636  0.1306 -0.2101
   45CHL1   C18 3283   6.070   2.511   7.432 -0.0038  0.4185  0.0069
   45CHL1  H18A 3284   6.173   2.550   7.443 -0.5027  1.1382  3.0117
   45CHL1  H18B 3285   6.032   2.548   7.334  0.0739  0.5536  0.0282
   45CHL1  H18C 3286   6.002   2.555   7.507 -0.4306 -1.0148  0.4925
   45CHL1   C12 3287   6.180   2.296   7.332 -0.2686 -0.5954  1.0296
   45CHL1  H12A 3288   6.281   2.338   7.352 -0.2765 -0.0146 -0.0501
   45CHL1  H12B 3289   6.180   2.185   7.338 -0.7002 -0.5342  2.4821
   45CHL1   C11 3290   6.148   2.329   7.183  0.0290 -0.1392 -0.3203
   45CHL1  H11A 3291   6.158   2.439   7.171  1.5031 -0.2529 -0.2279
   45CHL1  H11B 3292   6.229   2.286   7.121 -1.1328 -0.0328 -1.9809
   45CHL1    C9 3293   6.000   2.296   7.139  0.3925 -0.1864  0.0636
   45CHL1    H9 3294   6.003   2.185   7.137 -4.1833 -0.4922 -0.2599
   45CHL1   C10 3295   5.964   2.332   6.990 -0.2813  0.0515 -0.6421
   45CHL1   C19 3296   5.984   2.481   6.975  0.0462 -0.7420 -0.2178
   45CHL1  H19A 3297   5.970   2.523   6.873  1.0251  2.3160  0.7934
   45CHL1  H19B 3298   5.925   2.548   7.041 -0.7057  0.0732 -1.6563
   45CHL1  H19C 3299   6.091   2.512   6.984 -0.2380 -0.3292  2.6001
   45CHL1    C1 3300   6.054   2.256   6.892 -0.5664  0.1918 -0.1224
   45CHL1   H1A 3301   6.155   2.302   6.906 -1.0888  1.4290 -0.2374
   45CHL1   H1B 3302   6.059   2.148   6.915  1.5677  0.3168  0.1714
   45CHL1    C2 3303   6.003   2.271   6.736  0.1481  0.1044 -0.0045
   45CHL1   H2A 3304   6.063   2.211   6.664 -0.4830  1.9999 -2.2343
   45CHL1   H2B 3305   6.010   2.378   6.706 -0.5591  0.4744  1.1110
   45CHL1   C20 3306   6.167   2.371   7.682 -0.2794 -0.1723 -0.3174
   45CHL1   H20 3307   6.131   2.474   7.703 -1.3432 -0.8290  1.3546
   45CHL1   C21 3308   6.317   2.382   7.637  0.0370  0.5852 -0.6659
   45CHL1  H21A 3309   6.332   2.444   7.546  0.2544  1.1505 -0.2548
   45CHL1  H21B 3310   6.367   2.282   7.640 -0.5266  0.2830 -1.1068
   45CHL1  H21C 3311   6.367   2.457   7.701  1.1712  1.1770 -2.1881
   45CHL1   C22 3312   6.157   2.309   7.822 -0.2676 -0.2697 -0.1811
   45CHL1  H22A 3313   6.064   2.343   7.874  1.0056  1.2889  1.1944
   45CHL1  H22B 3314   6.160   2.198   7.821  0.3709 -0.2796  1.0050
   45CHL1   C23 3315   6.266   2.369   7.915  0.0538 -0.1865 -0.4734
   45CHL1  H23A 3316   6.367   2.326   7.899  0.0434 -0.9243  1.2603
   45CHL1  H23B 3317   6.275   2.479   7.916 -0.1822 -0.1661  0.5580
   45CHL1   C24 3318   6.235   2.327   8.063 -0.2299  0.2589 -0.8015
   45CHL1  H24A 3319   6.142   2.382   8.090  0.4210  2.2078 -2.2969
   45CHL1  H24B 3320   6.215   2.218   8.057 -0.1763  0.2894 -1.5856
   45CHL1   C25 3321   6.350   2.346   8.164 -0.7810 -0.4671 -0.0943
   45CHL1   H25 3322   6.443   2.296   8.128  1.0221  2.4404  0.1784
   45CHL1   C26 3323   6.374   2.505   8.166 -0.0274  0.2654 -0.0497
   45CHL1  H26A 3324   6.453   2.515   8.242  0.6122 -0.3203 -0.6188
   45CHL1  H26B 3325   6.400   2.530   8.061 -1.6536 -0.6025 -0.7066
   45CHL1  H26C 3326   6.290   2.562   8.211  0.6986  0.0441  1.6502
   45CHL1   C27 3327   6.325   2.291   8.300 -0.0375 -0.4085 -0.6394
   45CHL1  H27A 3328   6.229   2.337   8.330  0.0705  1.4590 -2.8954
   45CHL1  H27B 3329   6.292   2.185   8.292 -1.2341 -0.2761  1.7124
   45CHL1  H27C 3330   6.396   2.283   8.385  0.1023 -2.1263 -0.8802
   46CHL1    C3 3331   0.966   5.235   7.075 -0.2566 -0.2274  0.7017
   46CHL1    H3 3332   1.007   5.135   7.101  0.0129  0.0639  1.4243
   46CHL1    O3 3333   0.990   5.249   6.934 -0.2744  0.1932 -0.1707
   46CHL1   H3' 3334   0.971   5.342   6.919 -1.7302 -0.1635 -0.7655
   46CHL1    C4 3335   0.817   5.229   7.117 -0.6128 -0.0773 -0.1134
   46CHL1   H4A 3336   0.769   5.324   7.088  1.7512  0.9660 -0.9136
   46CHL1   H4B 3337   0.763   5.145   7.068  0.6156 -1.1766  0.3177
   46CHL1    C5 3338   0.807   5.213   7.264 -0.0042 -0.0003 -0.1228
   46CHL1    C6 3339   0.747   5.103   7.315  0.1500 -0.8368  0.6670
   46CHL1    H6 3340   0.698   5.033   7.246 -0.5633  0.6393 -0.3793
   46CHL1    C7 3341   0.734   5.084   7.464 -0.5986 -0.1004 -0.0748
   46CHL1   H7A 3342   0.629   5.054   7.484 -1.2388  1.4825 -0.8591
   46CHL1   H7B 3343   0.803   5.005   7.503  0.9595  0.1754 -2.1283
   46CHL1    C8 3344   0.763   5.212   7.547 -0.3421  0.0271  0.4181
   46CHL1    H8 3345   0.677   5.278   7.525 -0.6907 -0.2467  0.9450
   46CHL1   C14 3346   0.766   5.188   7.703  0.7606  0.1319 -0.2854
   46CHL1   H14 3347   0.846   5.114   7.720  0.8116  0.3535  0.4924
   46CHL1   C15 3348   0.638   5.119   7.754 -0.1431  0.6968 -0.1327
   46CHL1  H15A 3349   0.551   5.181   7.724  0.1791  0.8084 -0.8644
   46CHL1  H15B 3350   0.635   5.010   7.733  0.4051  0.7207 -0.3783
   46CHL1   C16 3351   0.648   5.134   7.906  0.1216  0.1047  0.4811
   46CHL1  H16A 3352   0.555   5.149   7.966  0.6606 -0.4486  1.4964
   46CHL1  H16B 3353   0.678   5.035   7.948  0.2593  0.5065  1.3654
   46CHL1   C17 3354   0.768   5.234   7.930 -0.3330  0.6392  0.7156
   46CHL1   H17 3355   0.859   5.171   7.945  0.0352 -0.2336 -3.7376
   46CHL1   C13 3356   0.791   5.308   7.792 -0.4043 -0.0895 -0.2057
   46CHL1   C18 3357   0.683   5.417   7.778 -0.5381 -0.2477 -0.1103
   46CHL1  H18A 3358   0.678   5.460   7.676  1.6522 -2.0409 -1.0589
   46CHL1  H18B 3359   0.587   5.380   7.823 -0.1132  0.8385  1.8122
   46CHL1  H18C 3360   0.716   5.496   7.849 -0.5184 -0.6198  0.3028
   46CHL1   C12 3361   0.926   5.359   7.753  0.3978 -0.6519  0.5311
   46CHL1  H12A 3362   0.946   5.455   7.804 -2.1202  1.0842 -1.5296
   46CHL1  H12B 3363   1.002   5.279   7.769 -0.7051 -1.3991  2.4249
   46CHL1   C11 3364   0.933   5.397   7.599  0.1502  0.3360  0.1396
   46CHL1  H11A 3365   0.878   5.491   7.574  0.6079  0.4494 -0.4740
   46CHL1  H11B 3366   1.039   5.418   7.573 -0.3955  2.8709 -0.3508
   46CHL1    C9 3367   0.890   5.285   7.502 -0.2057  0.4088 -0.0415
   46CHL1    H9 3368   0.976   5.215   7.514 -1.4391 -0.9162  1.4738
   46CHL1   C10 3369   0.885   5.319   7.352 -0.3366 -0.3792  0.5928
   46CHL1   C19 3370   0.804   5.449   7.341 -0.1841  0.5499  0.8419
   46CHL1  H19A 3371   0.782   5.476   7.235  1.2778  0.1018  0.3992
   46CHL1  H19B 3372   0.714   5.438   7.405  0.1731  0.5047  1.3437
   46CHL1  H19C 3373   0.869   5.533   7.372  0.8230 -0.1441  0.6412
   46CHL1    C1 3374   1.030   5.340   7.297 -0.5291 -0.2107 -0.8255
   46CHL1   H1A 3375   1.081   5.425   7.348  0.3495 -0.7418 -0.7968
   46CHL1   H1B 3376   1.091   5.254   7.331 -2.3648 -1.3197 -0.2053
   46CHL1    C2 3377   1.042   5.346   7.143 -0.2552 -0.3364 -0.0383
   46CHL1   H2A 3378   1.151   5.354   7.122 -0.3313 -0.0928 -0.3394
   46CHL1   H2B 3379   1.007   5.447   7.113  1.8381  0.4279 -0.0690
   46CHL1   C20 3380   0.738   5.322   8.050 -0.5767  0.1909 -0.0109
   46CHL1   H20 3381   0.642   5.376   8.040  0.1466  1.3926 -0.6490
   46CHL1   C21 3382   0.849   5.426   8.067 -0.2143 -0.0143  0.3412
   46CHL1  H21A 3383   0.949   5.378   8.065 -0.0183  0.4152 -1.4237
   46CHL1  H21B 3384   0.828   5.479   8.163 -0.1260 -0.0620  0.3878
   46CHL1  H21C 3385   0.854   5.501   7.985 -2.3030  1.6645  1.6273
   46CHL1   C22 3386   0.717   5.247   8.185  0.4933  0.5925 -0.7688
   46CHL1  H22A 3387   0.683   5.315   8.265 -0.5202  0.2212 -0.8630
   46CHL1  H22B 3388   0.629   5.179   8.173  1.0291 -0.3853  0.5733
   46CHL1   C23 3389   0.833   5.159   8.229  0.0257  1.1862  1.0610
   46CHL1  H23A 3390   0.822   5.072   8.161  1.3700  1.6949  0.1492
   46CHL1  H23B 3391   0.928   5.210   8.204 -0.8828  1.9825 -0.9659
   46CHL1   C24 3392   0.821   5.122   8.378  0.3540  0.2965  0.1112
   46CHL1  H24A 3393   0.907   5.067   8.422 -1.9371 -1.9797  1.9753
   46CHL1  H24B 3394   0.823   5.217   8.436  0.4774  0.8769 -0.8224
   46CHL1   C25 3395   0.690   5.044   8.411 -0.2983 -0.2616 -0.4014
   46CHL1   H25 3396   0.601   5.109   8.399  1.7857  2.9178  0.3381
   46CHL1   C26 3397   0.656   4.920   8.331 -0.4396  0.1579  0.1949
   46CHL1  H26A 3398   0.738   4.845   8.328 -1.3397 -0.8103 -0.8710
   46CHL1  H26B 3399   0.568   4.865   8.370 -0.4658  1.0822  1.5422
   46CHL1  H26C 3400   0.638   4.951   8.226  0.9293  0.5099  0.0397
   46CHL1   C27 3401   0.694   5.009   8.564 -0.3250 -0.7741  0.7895
   46CHL1  H27A 3402   0.783   4.949   8.593  0.5637 -0.6613 -1.5402
   46CHL1  H27B 3403   0.701   5.106   8.619 -1.0365 -0.0527 -0.3479
   46CHL1  H27C 3404   0.606   4.947   8.592  0.1169 -1.7644 -0.0098
   47CHL1    C3 3405   5.461   4.941   6.690  0.2521  0.4990 -0.6265
   47CHL1    H3 3406   5.564   4.980   6.705  0.5313 -0.5610  0.3130
   47CHL1    O3 3407   5.448   4.933   6.546  0.5148 -0.0718 -0.2101
   47CHL1   H3' 3408   5.492   5.013   6.516  1.5327 -0.1366  1.0477
   47CHL1    C4 3409   5.436   4.800   6.742 -0.4722  0.3699 -0.3714
   47CHL1   H4A 3410   5.344   4.762   6.694  0.0434 -1.7800  0.2388
   47CHL1   H4B 3411   5.517   4.738   6.698  0.6207  0.6879  1.0902
   47CHL1    C5 3412   5.429   4.792   6.892  0.3498 -0.2128  0.5014
   47CHL1    C6 3413   5.516   4.713   6.963  0.6325  0.8227  0.5797
   47CHL1    H6 3414   5.587   4.651   6.906  0.1855  2.1939 -1.6043
   47CHL1    C7 3415   5.515   4.696   7.110  0.3418  0.1530  0.8668
   47CHL1   H7A 3416   5.517   4.589   7.138  0.0046 -0.2397 -0.4949
   47CHL1   H7B 3417   5.598   4.756   7.153  0.5061 -0.7053  1.7722
   47CHL1    C8 3418   5.388   4.759   7.181 -0.4724  0.1186  0.4140
   47CHL1    H8 3419   5.300   4.695   7.158 -0.2965  1.0700 -3.6262
   47CHL1   C14 3420   5.416   4.774   7.330 -0.5419  0.0219 -0.4972
   47CHL1   H14 3421   5.497   4.851   7.329 -1.2523  0.7995 -2.4268
   47CHL1   C15 3422   5.470   4.657   7.411  0.5424 -0.4646 -0.2463
   47CHL1  H15A 3423   5.414   4.572   7.367 -0.0026  0.6223 -1.7438
   47CHL1  H15B 3424   5.580   4.641   7.403  0.4463 -2.0875  1.0808
   47CHL1   C16 3425   5.432   4.690   7.557  0.7525  0.6664 -0.0841
   47CHL1  H16A 3426   5.373   4.609   7.605  1.2851 -0.8223 -1.8273
   47CHL1  H16B 3427   5.523   4.707   7.619 -0.2415 -0.1747  1.6927
   47CHL1   C17 3428   5.343   4.821   7.552 -0.1016 -0.7130  0.0008
   47CHL1   H17 3429   5.413   4.906   7.566 -1.9525  1.3056 -1.9980
   47CHL1   C13 3430   5.295   4.833   7.407 -0.1258 -0.0094 -0.4324
   47CHL1   C18 3431   5.169   4.738   7.389  0.9549  0.5449 -0.6061
   47CHL1  H18A 3432   5.076   4.783   7.428  0.6054 -0.8691  0.2634
   47CHL1  H18B 3433   5.140   4.721   7.283 -1.3324 -3.9662  0.5193
   47CHL1  H18C 3434   5.186   4.640   7.438 -2.1473  0.7893  1.2041
   47CHL1   C12 3435   5.271   4.972   7.343  0.4063  0.3459 -0.6300
   47CHL1  H12A 3436   5.191   5.016   7.405 -0.8331 -2.7971  0.1694
   47CHL1  H12B 3437   5.358   5.038   7.363 -0.0049  0.6437  0.2022
   47CHL1   C11 3438   5.234   4.972   7.198 -0.3403 -0.3186  0.0662
   47CHL1  H11A 3439   5.138   4.922   7.172  0.0245 -1.1774  0.3443
   47CHL1  H11B 3440   5.228   5.077   7.162  1.0057 -0.2578 -0.0445
   47CHL1    C9 3441   5.349   4.896   7.120  0.0071  0.5087 -1.2312
   47CHL1    H9 3442   5.434   4.966   7.133 -2.6464  3.9387 -1.0031
   47CHL1   C10 3443   5.333   4.885   6.960 -0.5460 -0.0700  0.2523
   47CHL1   C19 3444   5.193   4.840   6.937 -0.7154 -0.0707 -0.7546
   47CHL1  H19A 3445   5.120   4.916   6.973  1.0380  1.6344 -0.5707
   47CHL1  H19B 3446   5.184   4.852   6.827 -0.4813  1.1289 -0.6601
   47CHL1  H19C 3447   5.174   4.737   6.974  0.4247 -1.1324 -2.9212
   47CHL1    C1 3448   5.356   5.033   6.908 -0.3691  0.2807 -0.1034
   47CHL1   H1A 3449   5.285   5.105   6.954  0.0087 -0.1538  1.2127
   47CHL1   H1B 3450   5.454   5.054   6.956  0.6422 -1.4429 -1.3153
   47CHL1    C2 3451   5.362   5.044   6.756 -0.5179 -0.0520  0.1499
   47CHL1   H2A 3452   5.407   5.145   6.742  0.9692 -0.4188  1.9437
   47CHL1   H2B 3453   5.262   5.022   6.713 -0.2923 -1.4072  0.2774
   47CHL1   C20 3454   5.242   4.833   7.671  0.6357 -1.2009  0.3865
   47CHL1   H20 3455   5.164   4.755   7.656  1.9609 -2.3466 -0.8758
   47CHL1   C21 3456   5.178   4.974   7.656 -0.3163  0.5752 -0.7718
   47CHL1  H21A 3457   5.089   4.969   7.590  0.4313  1.7851 -1.9231
   47CHL1  H21B 3458   5.259   5.041   7.618  0.4253 -1.3874 -2.9030
   47CHL1  H21C 3459   5.140   5.003   7.756  2.9544  2.4642  0.0870
   47CHL1   C22 3460   5.321   4.818   7.797 -0.4992  0.0007 -0.0195
   47CHL1  H22A 3461   5.380   4.724   7.807 -2.0065 -0.9380  0.4262
   47CHL1  H22B 3462   5.399   4.896   7.810  0.5505 -0.6497 -1.9057
   47CHL1   C23 3463   5.231   4.814   7.926 -0.0980  0.1810 -0.2032
   47CHL1  H23A 3464   5.164   4.902   7.935  0.5291  0.7874 -1.1993
   47CHL1  H23B 3465   5.172   4.720   7.919 -0.3922  0.2548  1.1704
   47CHL1   C24 3466   5.320   4.810   8.058  0.2783  0.8955 -0.3569
   47CHL1  H24A 3467   5.370   4.711   8.070  1.2241  1.1344 -2.0591
   47CHL1  H24B 3468   5.389   4.896   8.056  0.3464  0.9397  1.8635
   47CHL1   C25 3469   5.235   4.824   8.193  0.5337  0.5284 -0.5723
   47CHL1   H25 3470   5.177   4.919   8.179  2.0181  1.3229 -1.6083
   47CHL1   C26 3471   5.132   4.708   8.215 -0.6190  0.1052 -0.3304
   47CHL1  H26A 3472   5.092   4.704   8.319  0.8796  1.2465  0.3440
   47CHL1  H26B 3473   5.049   4.710   8.142 -0.2087 -4.6344 -1.2129
   47CHL1  H26C 3474   5.194   4.617   8.203  1.8783  1.2216  2.6272
   47CHL1   C27 3475   5.336   4.848   8.309  0.0791 -0.2358  0.0213
   47CHL1  H27A 3476   5.384   4.749   8.326  2.2227  0.6092 -0.7898
   47CHL1  H27B 3477   5.407   4.930   8.286 -3.0578  3.0217  1.0095
   47CHL1  H27C 3478   5.291   4.879   8.406  1.3906  0.0490  0.5656
   48CHL1    C3 3479   2.353   6.648   6.278  0.5303  0.7123  0.1630
   48CHL1    H3 3480   2.457   6.621   6.306  0.0111  1.3650  3.0758
   48CHL1    O3 3481   2.305   6.590   6.152 -0.3915  0.4165 -0.3098
   48CHL1   H3' 3482   2.337   6.499   6.155 -0.8472  0.1471 -2.2643
   48CHL1    C4 3483   2.262   6.592   6.392  0.1422 -0.1518  0.4728
   48CHL1   H4A 3484   2.165   6.642   6.372 -0.3015 -0.5732  1.4560
   48CHL1   H4B 3485   2.264   6.481   6.380  3.5043 -0.9046  5.0577
   48CHL1    C5 3486   2.323   6.639   6.525  0.1762 -0.1236  0.0857
   48CHL1    C6 3487   2.361   6.557   6.620 -0.3637  0.7102 -0.8613
   48CHL1    H6 3488   2.356   6.449   6.597  0.2653  0.3410  0.5914
   48CHL1    C7 3489   2.387   6.603   6.761  0.3181  0.3530 -0.2559
   48CHL1   H7A 3490   2.325   6.537   6.825  1.8691 -0.3914  0.5216
   48CHL1   H7B 3491   2.493   6.593   6.791  0.1573 -0.2698  0.1042
   48CHL1    C8 3492   2.352   6.747   6.795  0.6686  0.3280  0.3496
   48CHL1    H8 3493   2.243   6.761   6.810  0.1099 -0.7315 -2.2437
   48CHL1   C14 3494   2.429   6.806   6.917  0.2448  0.2280  0.3653
   48CHL1   H14 3495   2.535   6.797   6.885 -0.3568  0.4560 -1.8110
   48CHL1   C15 3496   2.431   6.728   7.051  0.3734 -0.0907 -0.2214
   48CHL1  H15A 3497   2.326   6.707   7.079  0.1418 -3.7725 -3.0572
   48CHL1  H15B 3498   2.472   6.625   7.049  0.0619 -0.2110 -1.4185
   48CHL1   C16 3499   2.504   6.820   7.151 -0.0755 -1.4754  0.1122
   48CHL1  H16A 3500   2.453   6.821   7.249  1.7406  0.9199  1.1219
   48CHL1  H16B 3501   2.606   6.778   7.165  2.1687  3.3933  0.3881
   48CHL1   C17 3502   2.504   6.967   7.088 -0.6490  0.4409  0.8163
   48CHL1   H17 3503   2.610   6.961   7.054 -1.2608 -2.9896 -0.9143
   48CHL1   C13 3504   2.414   6.951   6.962  0.0699 -0.1678  0.0101
   48CHL1   C18 3505   2.263   6.974   7.007 -0.1621  0.2183  0.1379
   48CHL1  H18A 3506   2.181   6.946   6.937  0.8445  0.6234 -1.2574
   48CHL1  H18B 3507   2.242   6.925   7.104  3.7281 -1.6915  0.2060
   48CHL1  H18C 3508   2.258   7.085   7.018  2.5425  0.4831 -0.4596
   48CHL1   C12 3509   2.460   7.029   6.843  0.6891 -0.2358  1.0497
   48CHL1  H12A 3510   2.456   7.139   6.852 -0.0554 -0.1925  0.3535
   48CHL1  H12B 3511   2.563   7.007   6.808  0.3481  1.6575 -1.4071
   48CHL1   C11 3512   2.378   6.996   6.713 -0.0957  0.3891  0.4388
   48CHL1  H11A 3513   2.271   7.019   6.729 -0.7347  0.1016 -2.7744
   48CHL1  H11B 3514   2.405   7.058   6.625  0.2836  3.5322  2.6068
   48CHL1    C9 3515   2.392   6.842   6.676  0.5822  0.5976 -0.1164
   48CHL1    H9 3516   2.501   6.829   6.661  0.3150 -2.0261 -0.2278
   48CHL1   C10 3517   2.321   6.798   6.545  0.7304  0.7795  0.2424
   48CHL1   C19 3518   2.173   6.845   6.567 -0.2539  0.1402 -0.2051
   48CHL1  H19A 3519   2.130   6.805   6.661  0.5609  0.9626  0.5382
   48CHL1  H19B 3520   2.160   6.955   6.576 -1.3774 -0.1388  2.2814
   48CHL1  H19C 3521   2.104   6.801   6.492 -0.9402  0.3712  0.2810
   48CHL1    C1 3522   2.386   6.860   6.422 -0.5323  0.3891  0.6679
   48CHL1   H1A 3523   2.386   6.971   6.415  0.0849  0.5705  2.8137
   48CHL1   H1B 3524   2.495   6.837   6.417 -0.5103  0.7815 -1.8006
   48CHL1    C2 3525   2.332   6.799   6.284  0.0250  0.0396 -0.1799
   48CHL1   H2A 3526   2.381   6.843   6.194 -0.6330 -1.7350 -1.4444
   48CHL1   H2B 3527   2.222   6.816   6.286 -0.4368 -2.4102  3.2136
   48CHL1   C20 3528   2.489   7.083   7.187  0.3920  0.3510  0.1172
   48CHL1   H20 3529   2.380   7.074   7.208  0.8410 -1.3296  1.9702
   48CHL1   C21 3530   2.520   7.217   7.114  0.3346  0.4500  0.4595
   48CHL1  H21A 3531   2.430   7.248   7.056 -0.0415  0.6428  1.1387
   48CHL1  H21B 3532   2.594   7.201   7.032 -1.9551 -2.3359 -1.2374
   48CHL1  H21C 3533   2.545   7.290   7.194  0.3800 -1.3169  2.0951
   48CHL1   C22 3534   2.567   7.073   7.322 -0.1931 -0.1289  0.1062
   48CHL1  H22A 3535   2.541   6.975   7.368  0.5876 -0.0254  0.7949
   48CHL1  H22B 3536   2.676   7.073   7.299  0.3427 -0.3172  2.3604
   48CHL1   C23 3537   2.545   7.174   7.430 -0.1168  0.4072 -0.1734
   48CHL1  H23A 3538   2.622   7.157   7.509  0.6584  3.5204 -0.1251
   48CHL1  H23B 3539   2.552   7.279   7.394 -1.0960 -0.0183 -1.7105
   48CHL1   C24 3540   2.403   7.168   7.483 -0.0867  0.4678  0.5476
   48CHL1  H24A 3541   2.338   7.192   7.395 -1.9208 -0.6322  1.5447
   48CHL1  H24B 3542   2.375   7.065   7.513  0.3425 -0.6607 -2.5178
   48CHL1   C25 3543   2.363   7.270   7.596  0.2317 -0.0302 -0.7484
   48CHL1   H25 3544   2.417   7.251   7.692  1.9740  0.3563 -1.6178
   48CHL1   C26 3545   2.391   7.413   7.567 -0.3296  0.0324  0.6777
   48CHL1  H26A 3546   2.496   7.443   7.550 -0.4802 -1.2983 -4.0873
   48CHL1  H26B 3547   2.329   7.456   7.485 -1.6223  2.3434  2.7521
   48CHL1  H26C 3548   2.349   7.466   7.655 -2.0524 -1.0981  0.5998
   48CHL1   C27 3549   2.218   7.246   7.616  0.6180 -0.2857 -0.5188
   48CHL1  H27A 3550   2.168   7.306   7.695 -0.3653 -0.6137 -0.8724
   48CHL1  H27B 3551   2.161   7.271   7.524  0.5366  1.9803  0.1046
   48CHL1  H27C 3552   2.214   7.136   7.635 -0.1665  0.3915  5.2374
   49CHL1    C3 3553   0.869   2.379   6.750  0.1898  0.1078 -0.3578
   49CHL1    H3 3554   0.946   2.458   6.737  1.3825 -0.9200  0.3573
   49CHL1    O3 3555   0.794   2.376   6.626 -0.3749  0.3060  0.8966
   49CHL1   H3' 3556   0.731   2.304   6.640  0.8646 -1.0658 -0.1899
   49CHL1    C4 3557   0.943   2.250   6.790  0.7306 -0.4578 -0.6374
   49CHL1   H4A 3558   0.869   2.169   6.771  2.0408 -1.7790 -0.3091
   49CHL1   H4B 3559   1.018   2.240   6.708  0.2309 -0.1944 -1.1358
   49CHL1    C5 3560   0.996   2.256   6.930  0.1033 -0.3640  0.2088
   49CHL1    C6 3561   1.127   2.248   6.955  0.5474 -0.0480  0.5305
   49CHL1    H6 3562   1.196   2.229   6.871 -0.4563  0.9714 -0.5504
   49CHL1    C7 3563   1.184   2.260   7.091  0.8561  0.6467 -0.3602
   49CHL1   H7A 3564   1.266   2.185   7.095  0.9324  0.5167 -2.8293
   49CHL1   H7B 3565   1.241   2.356   7.094  3.2951 -0.7097 -0.7619
   49CHL1    C8 3566   1.079   2.242   7.205  0.2458  0.1657  0.1554
   49CHL1    H8 3567   1.058   2.133   7.209  0.2248  0.1942  3.0103
   49CHL1   C14 3568   1.148   2.291   7.332  0.0652 -0.5461 -0.5541
   49CHL1   H14 3569   1.159   2.402   7.325  1.9953 -0.3931  2.7884
   49CHL1   C15 3570   1.296   2.260   7.368 -0.3504 -0.0309  0.1510
   49CHL1  H15A 3571   1.322   2.156   7.339 -0.5718 -0.2852  0.8446
   49CHL1  H15B 3572   1.359   2.337   7.317  0.1458 -2.0195 -2.4269
   49CHL1   C16 3573   1.294   2.266   7.522  0.9401  0.6538  0.1528
   49CHL1  H16A 3574   1.290   2.157   7.544 -2.7207  1.0353  2.0992
   49CHL1  H16B 3575   1.383   2.315   7.568  0.9621  0.5185  0.2552
   49CHL1   C17 3576   1.154   2.318   7.567 -0.2865  0.5408 -0.3264
   49CHL1   H17 3577   1.165   2.427   7.547 -2.3542  0.2926 -3.6476
   49CHL1   C13 3578   1.056   2.266   7.455 -0.0332 -0.2582 -0.3524
   49CHL1   C18 3579   1.032   2.111   7.470 -0.2262 -0.2540  0.0355
   49CHL1  H18A 3580   0.957   2.076   7.396 -1.2145  1.8686 -0.0512
   49CHL1  H18B 3581   1.130   2.058   7.466  0.3177  0.7401 -3.5221
   49CHL1  H18C 3582   0.979   2.095   7.566  0.1411 -1.4533  0.0503
   49CHL1   C12 3583   0.920   2.338   7.436  0.0089  0.4023 -0.1745
   49CHL1  H12A 3584   0.861   2.305   7.524  0.7691 -0.8748 -0.1154
   49CHL1  H12B 3585   0.935   2.447   7.451 -0.0434  0.4518 -0.4692
   49CHL1   C11 3586   0.849   2.300   7.301 -0.3123  0.0454  0.0060
   49CHL1  H11A 3587   0.825   2.192   7.295 -2.2759  0.3257  1.5538
   49CHL1  H11B 3588   0.756   2.360   7.295 -0.8830 -0.9717 -3.5370
   49CHL1    C9 3589   0.947   2.309   7.179 -0.1534  0.2522  0.0015
   49CHL1    H9 3590   0.973   2.417   7.182  0.3373  0.2934 -2.6960
   49CHL1   C10 3591   0.883   2.283   7.034  0.1354 -0.3443  0.3988
   49CHL1   C19 3592   0.800   2.154   7.043 -0.7471 -0.3996  0.4223
   49CHL1  H19A 3593   0.700   2.183   7.082  0.5919  1.0566  3.0335
   49CHL1  H19B 3594   0.779   2.102   6.947 -1.2252 -0.2389  0.4332
   49CHL1  H19C 3595   0.842   2.083   7.117 -4.8316 -0.5243  2.9209
   49CHL1    C1 3596   0.799   2.411   6.995  0.0695 -0.1824 -0.5384
   49CHL1   H1A 3597   0.705   2.415   7.054 -0.2871 -2.3904 -0.8476
   49CHL1   H1B 3598   0.853   2.505   7.019 -1.6631  0.4061  1.3648
   49CHL1    C2 3599   0.758   2.414   6.850  0.4464 -0.0555 -0.0066
   49CHL1   H2A 3600   0.724   2.518   6.830  1.0185 -0.1828 -1.8071
   49CHL1   H2B 3601   0.665   2.354   6.838  1.0286 -2.1897  4.2026
   49CHL1   C20 3602   1.123   2.291   7.715  0.2870 -0.0507  0.1769
   49CHL1   H20 3603   1.077   2.191   7.727  1.3648 -0.4162  1.7213
   49CHL1   C21 3604   1.019   2.388   7.760  0.4834  0.4037  0.6057
   49CHL1  H21A 3605   1.049   2.492   7.734  0.7527  0.3202  0.5815
   49CHL1  H21B 3606   1.000   2.391   7.869  0.9904  0.6561  0.6905
   49CHL1  H21C 3607   0.918   2.382   7.714  0.6675 -0.1723  0.2632
   49CHL1   C22 3608   1.249   2.295   7.808  0.0581  0.2509  0.0004
   49CHL1  H22A 3609   1.334   2.232   7.773 -0.1369  0.0437 -0.1035
   49CHL1  H22B 3610   1.284   2.399   7.791 -1.7678  0.9711  0.4511
   49CHL1   C23 3611   1.217   2.263   7.956  0.3433  0.3810 -0.2283
   49CHL1  H23A 3612   1.128   2.320   7.989 -1.4686 -2.7687  0.7305
   49CHL1  H23B 3613   1.186   2.156   7.965  0.5311  0.4736  2.0074
   49CHL1   C24 3614   1.346   2.277   8.045 -0.2197  0.4732 -1.1119
   49CHL1  H24A 3615   1.423   2.202   8.015 -2.3275 -1.1883 -2.6560
   49CHL1  H24B 3616   1.397   2.375   8.035  0.9757  0.0117  0.0277
   49CHL1   C25 3617   1.314   2.261   8.197  0.1077  0.0686  0.2741
   49CHL1   H25 3618   1.235   2.336   8.219  2.1360  2.8644 -1.2888
   49CHL1   C26 3619   1.267   2.113   8.216  0.6665  0.5230 -0.4883
   49CHL1  H26A 3620   1.343   2.043   8.173  0.8560 -0.1159  0.8297
   49CHL1  H26B 3621   1.247   2.101   8.325 -0.4914  1.3640 -0.5902
   49CHL1  H26C 3622   1.165   2.108   8.172  0.1998  0.2253  0.6017
   49CHL1   C27 3623   1.439   2.281   8.274 -0.2261 -0.0400  0.2219
   49CHL1  H27A 3624   1.417   2.305   8.380  3.5880  1.3638  0.8601
   49CHL1  H27B 3625   1.502   2.189   8.270  0.7370  0.5325  1.6153
   49CHL1  H27C 3626   1.503   2.367   8.246 -1.8294  1.1933  0.2237
   50CHL1    C3 3627   1.025   2.884   6.727 -0.7854 -0.0742  0.6781
   50CHL1    H3 3628   0.990   2.985   6.759 -0.2080  0.5132 -0.4952
   50CHL1    O3 3629   0.975   2.846   6.598 -0.0950 -0.1448 -0.2225
   50CHL1   H3' 3630   0.992   2.752   6.586 -0.4334 -0.3111  0.5221
   50CHL1    C4 3631   1.186   2.888   6.731  0.1344 -0.0011 -0.2035
   50CHL1   H4A 3632   1.221   2.800   6.673  2.0021  0.8096 -0.3543
   50CHL1   H4B 3633   1.211   2.975   6.666 -0.4862  0.6202  0.3716
   50CHL1    C5 3634   1.248   2.895   6.874 -0.3978 -0.4797  0.6908
   50CHL1    C6 3635   1.340   2.991   6.909  0.0212  0.0800  0.2294
   50CHL1    H6 3636   1.366   3.069   6.837  1.4348 -0.9205 -0.3816
   50CHL1    C7 3637   1.394   3.002   7.049 -0.0027  0.2000 -0.9220
   50CHL1   H7A 3638   1.496   3.044   7.063 -0.9570  1.7827  2.4844
   50CHL1   H7B 3639   1.329   3.070   7.109 -2.0897 -2.8031  0.4517
   50CHL1    C8 3640   1.374   2.862   7.122 -0.3527  0.4879  0.1051
   50CHL1    H8 3641   1.445   2.786   7.084 -1.7256 -1.4642  1.3204
   50CHL1   C14 3642   1.426   2.871   7.273 -0.0914 -0.3285  0.6622
   50CHL1   H14 3643   1.367   2.949   7.326  0.1168 -1.0017  1.9445
   50CHL1   C15 3644   1.569   2.924   7.302  0.1086  0.1729  0.0046
   50CHL1  H15A 3645   1.634   2.887   7.220  1.2805 -1.2089  1.4942
   50CHL1  H15B 3646   1.572   3.035   7.305 -1.6060  0.2913 -1.2314
   50CHL1   C16 3647   1.607   2.863   7.434  0.3156  0.3839  0.0126
   50CHL1  H16A 3648   1.694   2.794   7.421  0.3850  0.7031 -1.3824
   50CHL1  H16B 3649   1.644   2.939   7.505  0.7961 -0.5073  0.7359
   50CHL1   C17 3650   1.478   2.787   7.483  0.3447 -0.2681 -0.0700
   50CHL1   H17 3651   1.400   2.859   7.515 -1.1528 -0.8537 -2.1544
   50CHL1   C13 3652   1.404   2.747   7.355  0.6456  0.2155 -0.0030
   50CHL1   C18 3653   1.467   2.623   7.297 -0.2723  0.0893 -0.2116
   50CHL1  H18A 3654   1.461   2.534   7.363 -1.4387  0.2975 -0.0060
   50CHL1  H18B 3655   1.431   2.604   7.194  0.5318  2.8270 -1.0970
   50CHL1  H18C 3656   1.575   2.643   7.284  0.1469 -1.6208  0.4361
   50CHL1   C12 3657   1.254   2.721   7.368 -0.3371  0.4770  0.2945
   50CHL1  H12A 3658   1.228   2.627   7.421 -0.8831 -0.9407 -2.3172
   50CHL1  H12B 3659   1.214   2.812   7.418  0.7317  1.4553 -0.5852
   50CHL1   C11 3660   1.190   2.714   7.225 -0.1665 -0.1898 -0.2265
   50CHL1  H11A 3661   1.208   2.611   7.185  2.0085  0.7063 -1.7438
   50CHL1  H11B 3662   1.082   2.708   7.248 -0.1918 -0.8502 -0.4755
   50CHL1    C9 3663   1.230   2.821   7.119 -0.7936  1.5276 -0.5888
   50CHL1    H9 3664   1.180   2.913   7.156 -2.5902  0.2149  0.3539
   50CHL1   C10 3665   1.192   2.796   6.972  1.2495 -0.3807  0.3530
   50CHL1   C19 3666   1.245   2.653   6.933  0.8698  0.1714  0.0211
   50CHL1  H19A 3667   1.350   2.637   6.964  0.8844 -0.2859 -0.2494
   50CHL1  H19B 3668   1.188   2.575   6.989  1.1935 -1.1136 -1.3586
   50CHL1  H19C 3669   1.227   2.631   6.825  1.1540 -0.0173  0.0111
   50CHL1    C1 3670   1.036   2.807   6.966 -0.3543 -0.2862 -0.3658
   50CHL1   H1A 3671   0.999   2.713   7.013  0.0090  0.0557  0.6287
   50CHL1   H1B 3672   0.991   2.898   7.012  0.2958  0.9712 -2.1214
   50CHL1    C2 3673   0.978   2.789   6.827  0.2080  0.8166 -0.1248
   50CHL1   H2A 3674   0.868   2.783   6.844  0.0379  1.5789 -0.8807
   50CHL1   H2B 3675   1.010   2.688   6.793 -0.1112  1.0323 -1.1137
   50CHL1   C20 3676   1.518   2.682   7.592 -0.1809  0.2741  0.5091
   50CHL1   H20 3677   1.568   2.592   7.550 -0.4580  0.6308 -0.6076
   50CHL1   C21 3678   1.385   2.627   7.644  0.0679  0.0564 -0.4780
   50CHL1  H21A 3679   1.353   2.544   7.577 -0.8693  2.5498 -3.3217
   50CHL1  H21B 3680   1.305   2.704   7.651  0.3182  0.2896 -0.1261
   50CHL1  H21C 3681   1.395   2.568   7.738  1.5684  0.5071 -0.3360
   50CHL1   C22 3682   1.615   2.747   7.695  0.1189 -0.1475 -0.1261
   50CHL1  H22A 3683   1.713   2.781   7.654 -0.5213  1.5948 -0.3007
   50CHL1  H22B 3684   1.566   2.833   7.745 -1.6031 -1.5754  0.7390
   50CHL1   C23 3685   1.662   2.646   7.804 -0.4138 -0.4816  1.0741
   50CHL1  H23A 3686   1.569   2.601   7.845 -0.4240 -2.5822 -1.0210
   50CHL1  H23B 3687   1.733   2.576   7.756 -1.5477 -0.0297 -1.4725
   50CHL1   C24 3688   1.740   2.718   7.910 -0.6646 -0.1261 -0.6096
   50CHL1  H24A 3689   1.815   2.783   7.861 -0.1215 -0.3751 -0.1275
   50CHL1  H24B 3690   1.677   2.779   7.979 -0.6003 -0.5584 -0.1563
   50CHL1   C25 3691   1.817   2.624   8.007 -0.1369 -0.3597  0.3300
   50CHL1   H25 3692   1.875   2.554   7.944 -0.4953  0.1347 -0.5644
   50CHL1   C26 3693   1.908   2.703   8.094 -0.2490 -0.2127  0.5703
   50CHL1  H26A 3694   1.861   2.800   8.119  1.1275  0.6819 -0.2062
   50CHL1  H26B 3695   1.922   2.645   8.187 -1.3843  1.2698  1.7069
   50CHL1  H26C 3696   2.008   2.720   8.048 -0.5298  2.3320  0.7892
   50CHL1   C27 3697   1.725   2.539   8.096 -0.2051 -0.1256  0.0484
   50CHL1  H27A 3698   1.677   2.607   8.170  0.3124  0.3037 -0.0040
   50CHL1  H27B 3699   1.639   2.491   8.044 -2.2301  1.8546  1.3562
   50CHL1  H27C 3700   1.787   2.462   8.147  2.8347  0.0266 -3.0897
   51CHL1    C3 3701   0.200   2.534   6.868 -0.7354  0.4420  0.4198
   51CHL1    H3 3702   0.112   2.469   6.892 -0.5192 -0.7411 -1.7338
   51CHL1    O3 3703   0.233   2.496   6.735  0.5832 -0.2552 -0.1956
   51CHL1   H3' 3704   0.311   2.549   6.717  0.2800  0.1637 -0.2913
   51CHL1    C4 3705   0.151   2.681   6.874 -0.7103 -0.8255 -0.0523
   51CHL1   H4A 3706   0.218   2.749   6.818 -2.5931  2.0136  0.9301
   51CHL1   H4B 3707   0.055   2.687   6.819 -0.3787  0.6643 -0.5121
   51CHL1    C5 3708   0.134   2.733   7.008  0.0091  0.6595  0.1849
   51CHL1    C6 3709   0.012   2.778   7.048 -0.4267 -0.1282 -0.5633
   51CHL1    H6 3710  -0.068   2.787   6.974 -0.6334 -0.0229 -0.3260
   51CHL1    C7 3711  -0.006   2.830   7.193 -0.7201  0.3840 -0.1261
   51CHL1   H7A 3712  -0.056   2.929   7.187 -0.0497  0.6591 -1.4017
   51CHL1   H7B 3713  -0.068   2.756   7.249  0.8227 -2.3726 -1.8316
   51CHL1    C8 3714   0.123   2.857   7.270  0.0501  0.1535 -0.7676
   51CHL1    H8 3715   0.167   2.955   7.244 -1.3155  1.1376  0.4418
   51CHL1   C14 3716   0.089   2.866   7.413  0.1099 -0.3707 -0.4850
   51CHL1   H14 3717   0.044   2.765   7.431 -3.4358  1.1741  0.2420
   51CHL1   C15 3718  -0.032   2.952   7.452  0.0569 -0.6393 -0.1259
   51CHL1  H15A 3719  -0.028   3.049   7.398 -1.4742  0.5005  1.6779
   51CHL1  H15B 3720  -0.131   2.914   7.417  0.5324 -0.3156 -1.9226
   51CHL1   C16 3721  -0.013   2.974   7.601 -0.0422  0.2363  0.1018
   51CHL1  H16A 3722  -0.019   3.083   7.623  0.9330  0.4694 -0.6754
   51CHL1  H16B 3723  -0.096   2.929   7.659 -1.4560  0.5981 -1.5332
   51CHL1   C17 3724   0.121   2.914   7.643  0.7821 -0.5238 -0.5665
   51CHL1   H17 3725   0.103   2.809   7.676  0.0048 -0.9897 -2.3472
   51CHL1   C13 3726   0.203   2.896   7.512  0.1331 -0.4560  0.5849
   51CHL1   C18 3727   0.269   3.027   7.470 -0.5560 -0.5380 -0.1329
   51CHL1  H18A 3728   0.346   3.020   7.390  1.5011 -0.2995  1.7335
   51CHL1  H18B 3729   0.198   3.103   7.432  0.1280  0.1645 -0.0329
   51CHL1  H18C 3730   0.327   3.080   7.549 -1.4076 -1.8357  1.4138
   51CHL1   C12 3731   0.305   2.780   7.499 -0.2238  0.6813 -0.9935
   51CHL1  H12A 3732   0.388   2.793   7.571 -1.3257  2.7462 -0.0104
   51CHL1  H12B 3733   0.251   2.690   7.536  0.7898  0.7584  0.7764
   51CHL1   C11 3734   0.343   2.750   7.358 -0.3066 -0.4882  0.1922
   51CHL1  H11A 3735   0.417   2.829   7.331 -1.3414  0.4296  0.0016
   51CHL1  H11B 3736   0.397   2.653   7.349  1.3197  0.4064 -0.1984
   51CHL1    C9 3737   0.222   2.739   7.257 -0.5744  0.2295  0.1542
   51CHL1    H9 3738   0.164   2.649   7.286  0.8101 -0.8532 -0.3161
   51CHL1   C10 3739   0.253   2.705   7.103 -0.4859  0.0920 -0.2820
   51CHL1   C19 3740   0.363   2.805   7.054 -0.3280 -0.3987  0.4196
   51CHL1  H19A 3741   0.342   2.909   7.087  0.9870 -0.1066  0.3799
   51CHL1  H19B 3742   0.457   2.771   7.101 -0.8250 -2.5401 -0.0520
   51CHL1  H19C 3743   0.380   2.808   6.944  1.1906  0.7826  0.6512
   51CHL1    C1 3744   0.304   2.558   7.098 -0.1729  0.6329 -0.2420
   51CHL1   H1A 3745   0.404   2.560   7.146  0.3143 -0.9283 -1.1096
   51CHL1   H1B 3746   0.231   2.496   7.155 -1.2143  1.2535 -0.8647
   51CHL1    C2 3747   0.318   2.511   6.950  0.2687  0.0711  0.3762
   51CHL1   H2A 3748   0.337   2.402   6.951 -0.0169  0.0181  0.0144
   51CHL1   H2B 3749   0.407   2.564   6.912 -1.7335  3.0662 -0.5098
   51CHL1   C20 3750   0.180   2.983   7.764 -1.1279  0.2375 -0.2271
   51CHL1   H20 3751   0.213   3.083   7.727 -0.7117  0.5101  0.8434
   51CHL1   C21 3752   0.298   2.899   7.822  0.5320 -0.2919 -0.2711
   51CHL1  H21A 3753   0.378   2.896   7.746  1.0682  1.9624  0.1374
   51CHL1  H21B 3754   0.254   2.799   7.843 -0.9559 -0.4499 -3.5185
   51CHL1  H21C 3755   0.346   2.947   7.910  0.7781 -0.8110 -0.1173
   51CHL1   C22 3756   0.081   3.016   7.878  0.6893 -0.1521 -0.4981
   51CHL1  H22A 3757  -0.007   3.075   7.842 -0.1593 -1.4726 -0.6361
   51CHL1  H22B 3758   0.032   2.922   7.912 -1.0651 -0.1149 -2.6571
   51CHL1   C23 3759   0.136   3.100   7.991  0.1216 -0.6098 -0.6464
   51CHL1  H23A 3760   0.204   3.036   8.051  1.5354 -1.7770 -3.3396
   51CHL1  H23B 3761   0.199   3.178   7.943 -0.6602 -0.9828 -2.3630
   51CHL1   C24 3762   0.026   3.156   8.079  0.1459  0.0944  0.0415
   51CHL1  H24A 3763  -0.052   3.192   8.008 -0.7941  0.8949  1.4230
   51CHL1  H24B 3764  -0.011   3.066   8.133  0.6345  0.1769  0.5246
   51CHL1   C25 3765   0.066   3.268   8.175 -0.0816 -0.9099 -0.4366
   51CHL1   H25 3766   0.096   3.360   8.121 -1.2351  0.0023  0.4207
   51CHL1   C26 3767  -0.055   3.296   8.273 -0.2870  0.1634 -0.4320
   51CHL1  H26A 3768  -0.058   3.389   8.335  0.2052  0.2995 -0.6113
   51CHL1  H26B 3769  -0.149   3.295   8.214  0.2026 -0.2084 -1.2208
   51CHL1  H26C 3770  -0.070   3.213   8.346 -0.7141  1.1336  0.6294
   51CHL1   C27 3771   0.189   3.237   8.266 -0.0120  0.9414  0.6541
   51CHL1  H27A 3772   0.160   3.150   8.329 -0.8979  0.6135 -0.1763
   51CHL1  H27B 3773   0.288   3.220   8.219 -0.1787 -1.1369  0.9764
   51CHL1  H27C 3774   0.207   3.319   8.339  4.4335 -1.1648  2.3268
   52CHL1    C3 3775   2.562   3.581   6.972  0.2064 -0.2240 -0.3691
   52CHL1    H3 3776   2.488   3.499   6.961 -0.6624  0.6881 -1.5968
   52CHL1    O3 3777   2.609   3.626   6.849  0.2230  0.2206 -0.0232
   52CHL1   H3' 3778   2.694   3.664   6.873  0.7698 -2.0912  2.1057
   52CHL1    C4 3779   2.484   3.702   7.040  0.0854  0.1548  0.5211
   52CHL1   H4A 3780   2.544   3.795   7.032  0.8236 -0.2818  0.8713
   52CHL1   H4B 3781   2.393   3.721   6.979 -0.6114 -0.6285  1.2954
   52CHL1    C5 3782   2.451   3.678   7.181 -0.6668  0.5883  0.0123
   52CHL1    C6 3783   2.331   3.710   7.236  0.6265 -0.1255  0.4554
   52CHL1    H6 3784   2.257   3.760   7.173 -1.0528 -0.2247  2.2476
   52CHL1    C7 3785   2.307   3.723   7.384  0.0170 -0.0343 -0.0084
   52CHL1   H7A 3786   2.240   3.806   7.416  1.3049  1.5101 -1.0915
   52CHL1   H7B 3787   2.245   3.641   7.425  1.4903 -0.3857  1.6290
   52CHL1    C8 3788   2.438   3.727   7.464 -0.3453  0.2924 -0.1244
   52CHL1    H8 3789   2.487   3.826   7.455  2.1703 -0.9060 -0.3817
   52CHL1   C14 3790   2.400   3.705   7.614  0.2960 -0.0138  0.3048
   52CHL1   H14 3791   2.352   3.605   7.610  0.7880 -0.3367  1.8322
   52CHL1   C15 3792   2.290   3.794   7.682  0.8954 -0.4538  0.0307
   52CHL1  H15A 3793   2.310   3.898   7.648 -0.4833  0.0746  0.7815
   52CHL1  H15B 3794   2.187   3.760   7.658  0.5201  1.0934 -0.7145
   52CHL1   C16 3795   2.310   3.777   7.840 -0.6032 -0.8744  0.5053
   52CHL1  H16A 3796   2.335   3.871   7.893  1.1903 -1.0622  0.0377
   52CHL1  H16B 3797   2.211   3.744   7.880 -0.7534 -1.3314 -0.2224
   52CHL1   C17 3798   2.432   3.684   7.846 -1.1961  0.3301 -0.4637
   52CHL1   H17 3799   2.394   3.580   7.859 -0.6426  0.1773 -0.0184
   52CHL1   C13 3800   2.509   3.696   7.708  0.1526 -0.1248 -0.7017
   52CHL1   C18 3801   2.592   3.829   7.710 -0.1629  0.2086 -0.2590
   52CHL1  H18A 3802   2.693   3.815   7.756 -0.0412  1.0520 -0.2644
   52CHL1  H18B 3803   2.609   3.864   7.607 -0.1819  3.1158  0.6423
   52CHL1  H18C 3804   2.536   3.915   7.753 -0.9694  0.6587 -2.1342
   52CHL1   C12 3805   2.597   3.574   7.655  0.7521  1.2580  0.4313
   52CHL1  H12A 3806   2.683   3.548   7.719 -0.4102 -0.3913  1.3941
   52CHL1  H12B 3807   2.530   3.486   7.661  0.5342  1.3375 -0.7043
   52CHL1   C11 3808   2.649   3.603   7.522  0.4035 -0.0072  0.1148
   52CHL1  H11A 3809   2.717   3.690   7.531 -0.4028  0.5179  1.4144
   52CHL1  H11B 3810   2.709   3.518   7.483 -0.3703 -0.2821 -0.4966
   52CHL1    C9 3811   2.531   3.625   7.418 -0.0894  0.1577  0.1886
   52CHL1    H9 3812   2.478   3.527   7.415  0.7098 -0.2953  0.4607
   52CHL1   C10 3813   2.576   3.646   7.274  0.0241  0.3452  0.9694
   52CHL1   C19 3814   2.688   3.754   7.274 -0.3791 -0.5330  0.9798
   52CHL1  H19A 3815   2.725   3.781   7.173  0.3015  0.5315  1.5025
   52CHL1  H19B 3816   2.655   3.848   7.323  0.1990 -1.3762  3.1060
   52CHL1  H19C 3817   2.779   3.720   7.326  0.3338  0.7731  0.6162
   52CHL1    C1 3818   2.635   3.514   7.208 -0.5064 -0.1988 -0.0604
   52CHL1   H1A 3819   2.733   3.475   7.242 -0.5921 -2.7350 -2.3437
   52CHL1   H1B 3820   2.554   3.437   7.217 -0.1708 -0.4202  1.4259
   52CHL1    C2 3821   2.679   3.533   7.056  0.1529  0.4490  0.0641
   52CHL1   H2A 3822   2.718   3.441   7.006 -2.6677 -1.0012  0.3398
   52CHL1   H2B 3823   2.753   3.615   7.051 -0.1160  0.6389 -2.8484
   52CHL1   C20 3824   2.522   3.704   7.978  0.6495 -0.2518  0.1491
   52CHL1   H20 3825   2.575   3.801   7.963  1.2395 -0.4959  0.6032
   52CHL1   C21 3826   2.617   3.591   8.001  0.1629  0.2236 -0.0403
   52CHL1  H21A 3827   2.558   3.497   8.009 -0.3372  0.4474 -0.9409
   52CHL1  H21B 3828   2.680   3.609   8.091  0.0965  0.4115 -0.0306
   52CHL1  H21C 3829   2.683   3.572   7.914  0.4728 -1.1095  0.4579
   52CHL1   C22 3830   2.445   3.722   8.114 -0.4890 -0.0542 -0.0903
   52CHL1  H22A 3831   2.511   3.724   8.203 -0.8880  2.4747  0.2046
   52CHL1  H22B 3832   2.387   3.817   8.110  0.2829  0.3696 -2.7930
   52CHL1   C23 3833   2.354   3.609   8.149 -0.4936  0.3291 -0.4826
   52CHL1  H23A 3834   2.288   3.584   8.063 -0.8824 -3.7972  0.8052
   52CHL1  H23B 3835   2.412   3.520   8.180 -0.8407  0.3973  0.3927
   52CHL1   C24 3836   2.276   3.653   8.273 -0.1097  0.0940 -0.6465
   52CHL1  H24A 3837   2.335   3.695   8.357 -2.2864  0.3717  0.8284
   52CHL1  H24B 3838   2.186   3.713   8.251  0.4451  0.5497 -1.7262
   52CHL1   C25 3839   2.199   3.541   8.348 -0.0540  0.1286  0.0076
   52CHL1   H25 3840   2.263   3.457   8.380 -1.6121 -1.3482 -0.6033
   52CHL1   C26 3841   2.141   3.599   8.477  0.0042  0.4583 -0.6237
   52CHL1  H26A 3842   2.090   3.692   8.445  1.3395  1.1537 -0.8224
   52CHL1  H26B 3843   2.085   3.525   8.538 -1.0838  0.0417 -2.0725
   52CHL1  H26C 3844   2.217   3.647   8.543 -0.1060  1.6110 -1.3100
   52CHL1   C27 3845   2.080   3.477   8.271  0.6516 -0.5996 -0.6081
   52CHL1  H27A 3846   2.017   3.411   8.334  0.5147 -0.9146 -1.0740
   52CHL1  H27B 3847   2.025   3.559   8.222  1.6789  1.6208  1.7116
   52CHL1  H27C 3848   2.127   3.419   8.189 -1.0438 -3.2187  0.1285
   53CHL1    C3 3849   5.647   6.761   7.030 -0.4315  0.3579  0.5635
   53CHL1    H3 3850   5.553   6.702   7.033  0.2640 -0.7581  3.0939
   53CHL1    O3 3851   5.666   6.831   6.908 -0.6013 -0.0636 -0.5282
   53CHL1   H3' 3852   5.704   6.766   6.848 -0.5355  0.3329 -0.9224
   53CHL1    C4 3853   5.639   6.870   7.136 -0.3324  0.4616 -0.0177
   53CHL1   H4A 3854   5.718   6.945   7.115  1.5411 -1.0517  1.2606
   53CHL1   H4B 3855   5.543   6.924   7.121 -1.6543 -1.5679  0.6943
   53CHL1    C5 3856   5.654   6.827   7.279 -0.3439 -0.0653 -0.6017
   53CHL1    C6 3857   5.562   6.850   7.370  0.3588  1.0796  1.0116
   53CHL1    H6 3858   5.475   6.894   7.319  1.0613  1.0010 -0.3019
   53CHL1    C7 3859   5.567   6.813   7.521  0.2066 -0.5580  0.2361
   53CHL1   H7A 3860   5.550   6.909   7.574  1.2571  0.8669 -1.8477
   53CHL1   H7B 3861   5.491   6.734   7.537  1.2053 -1.6709 -0.3017
   53CHL1    C8 3862   5.708   6.764   7.556 -0.3175 -0.1522  0.1506
   53CHL1    H8 3863   5.771   6.855   7.569  0.2735 -0.6280  0.6410
   53CHL1   C14 3864   5.712   6.706   7.699  0.2672  0.5792 -0.1379
   53CHL1   H14 3865   5.651   6.614   7.684  1.6809 -0.2207 -1.1712
   53CHL1   C15 3866   5.649   6.788   7.811  0.3159 -0.6036  0.3066
   53CHL1  H15A 3867   5.655   6.899   7.811  2.4839 -0.6610  1.3434
   53CHL1  H15B 3868   5.541   6.761   7.805  0.6705 -2.2241  0.7185
   53CHL1   C16 3869   5.707   6.731   7.936 -0.0783 -0.7409  0.0379
   53CHL1  H16A 3870   5.754   6.811   7.997 -1.2964 -2.1831  3.0573
   53CHL1  H16B 3871   5.626   6.691   8.000 -0.3011  2.4016  1.9071
   53CHL1   C17 3872   5.812   6.623   7.879  0.8018  0.0958  0.3876
   53CHL1   H17 3873   5.761   6.525   7.868  2.1687 -0.4519 -1.6782
   53CHL1   C13 3874   5.850   6.665   7.737  0.3470  0.0804  0.5874
   53CHL1   C18 3875   5.956   6.788   7.747 -0.1921  0.2168 -0.0662
   53CHL1  H18A 3876   6.052   6.763   7.797 -0.8149  0.0692  1.0852
   53CHL1  H18B 3877   5.986   6.823   7.646 -0.8225  0.7319 -0.0821
   53CHL1  H18C 3878   5.902   6.873   7.795  1.7357  0.7110  1.3647
   53CHL1   C12 3879   5.901   6.556   7.641 -0.3675 -0.1162  0.2912
   53CHL1  H12A 3880   6.007   6.532   7.663 -0.2741  1.3526  1.6630
   53CHL1  H12B 3881   5.829   6.472   7.638  0.3025 -0.6700 -0.6987
   53CHL1   C11 3882   5.903   6.617   7.497  0.0777 -0.1643  0.2370
   53CHL1  H11A 3883   5.985   6.692   7.493 -1.5236  1.9780  3.0431
   53CHL1  H11B 3884   5.928   6.534   7.428  1.5929  0.4464  0.0031
   53CHL1    C9 3885   5.767   6.671   7.454  0.2430 -0.1181  0.4580
   53CHL1    H9 3886   5.688   6.594   7.450  0.1793 -0.0011 -1.9142
   53CHL1   C10 3887   5.773   6.737   7.313 -0.0372  0.1566 -0.2954
   53CHL1   C19 3888   5.903   6.825   7.299 -0.1235 -0.3605  0.1329
   53CHL1  H19A 3889   5.929   6.871   7.397  1.5974  0.5314 -0.7048
   53CHL1  H19B 3890   5.993   6.767   7.272  0.6708  0.1094  1.6234
   53CHL1  H19C 3891   5.883   6.903   7.223 -1.7410  0.7060  1.5585
   53CHL1    C1 3892   5.761   6.624   7.205  0.3933 -0.3314  0.7546
   53CHL1   H1A 3893   5.849   6.557   7.211  0.7102  0.0234  0.1617
   53CHL1   H1B 3894   5.663   6.575   7.225  0.1845 -0.6997 -0.9788
   53CHL1    C2 3895   5.768   6.671   7.055 -0.7548 -0.2764 -0.1020
   53CHL1   H2A 3896   5.772   6.592   6.976  0.6682  1.2305 -1.6120
   53CHL1   H2B 3897   5.866   6.722   7.045  0.8301 -3.1206 -0.0702
   53CHL1   C20 3898   5.915   6.594   7.992 -0.4118  0.1252 -0.1779
   53CHL1   H20 3899   5.986   6.679   7.997  0.6826 -0.6546 -1.4121
   53CHL1   C21 3900   6.011   6.477   7.966  0.3432 -0.1977  0.4501
   53CHL1  H21A 3901   6.084   6.489   8.050 -1.3194  1.9506  1.6908
   53CHL1  H21B 3902   6.053   6.467   7.864 -4.7597 -2.4596 -1.7664
   53CHL1  H21C 3903   5.972   6.373   7.967  2.6061 -1.1550 -1.1756
   53CHL1   C22 3904   5.841   6.561   8.127 -0.0293 -0.2249  0.3958
   53CHL1  H22A 3905   5.910   6.563   8.215 -1.5144 -0.1863  1.6041
   53CHL1  H22B 3906   5.764   6.636   8.153  0.1373 -0.2281  0.9231
   53CHL1   C23 3907   5.767   6.428   8.131 -0.2055  0.2765 -0.1198
   53CHL1  H23A 3908   5.698   6.424   8.044  1.2929  1.2067 -1.3959
   53CHL1  H23B 3909   5.828   6.336   8.119 -1.5552 -1.1595  2.7643
   53CHL1   C24 3910   5.690   6.397   8.266 -0.0473 -0.3246 -0.3390
   53CHL1  H24A 3911   5.635   6.300   8.254 -0.0939 -0.7805  2.7559
   53CHL1  H24B 3912   5.762   6.370   8.345 -0.1297  1.1390  0.2540
   53CHL1   C25 3913   5.579   6.490   8.329 -0.1645  1.1039  0.9272
   53CHL1   H25 3914   5.623   6.587   8.359  0.4146  0.4722  2.1886
   53CHL1   C26 3915   5.474   6.507   8.215  0.1576 -0.5747 -0.0745
   53CHL1  H26A 3916   5.392   6.578   8.240  0.3082 -0.8580  1.3206
   53CHL1  H26B 3917   5.519   6.554   8.125  0.2901  0.7150  0.6556
   53CHL1  H26C 3918   5.437   6.404   8.193 -0.1587 -0.3265 -0.7054
   53CHL1   C27 3919   5.527   6.426   8.455  0.2282  1.1692  0.0171
   53CHL1  H27A 3920   5.435   6.480   8.485 -2.1129 -2.1184 -0.5972
   53CHL1  H27B 3921   5.498   6.319   8.448  1.2641  0.9409 -0.8679
   53CHL1  H27C 3922   5.600   6.448   8.536  0.6240  0.3141 -0.0877
   54CHL1    C3 3923   6.354   0.928   6.973 -0.5771 -0.6593 -0.6742
   54CHL1    H3 3924   6.350   0.818   6.956  1.6947 -0.9953  0.5637
   54CHL1    O3 3925   6.384   1.006   6.859 -0.3855  0.5265  0.6824
   54CHL1   H3' 3926   6.302   1.047   6.832 -0.2370 -0.0669 -0.8221
   54CHL1    C4 3927   6.228   0.976   7.045  0.8936  0.3676 -0.4136
   54CHL1   H4A 3928   6.239   1.086   7.043 -1.5316  0.6578 -0.7652
   54CHL1   H4B 3929   6.141   0.950   6.981 -0.5204 -0.6106  1.7839
   54CHL1    C5 3930   6.205   0.938   7.192  0.2751  0.5731  0.1839
   54CHL1    C6 3931   6.087   0.892   7.240  0.0466 -0.4084 -0.1671
   54CHL1    H6 3932   6.002   0.890   7.171  0.4915 -0.7143 -0.7111
   54CHL1    C7 3933   6.069   0.843   7.387  0.2876 -0.3029  1.1645
   54CHL1   H7A 3934   5.968   0.879   7.417  0.1262  1.1357 -0.9094
   54CHL1   H7B 3935   6.066   0.733   7.372  0.7221 -0.2583  0.7328
   54CHL1    C8 3936   6.181   0.884   7.483 -0.3923  0.4036  0.0508
   54CHL1    H8 3937   6.162   0.986   7.523 -1.9041 -0.1587  0.8682
   54CHL1   C14 3938   6.178   0.803   7.606  0.8837 -0.0359  0.3001
   54CHL1   H14 3939   6.200   0.696   7.582 -0.9581 -0.0636 -1.4851
   54CHL1   C15 3940   6.042   0.797   7.683 -0.4330  0.0865 -0.4211
   54CHL1  H15A 3941   5.986   0.893   7.673  2.1763  1.6880 -0.6513
   54CHL1  H15B 3942   5.993   0.702   7.652 -0.3192 -0.0111 -0.2990
   54CHL1   C16 3943   6.083   0.772   7.828 -0.4807 -0.5619 -0.0890
   54CHL1  H16A 3944   6.051   0.864   7.880 -1.1558 -0.7965 -0.0846
   54CHL1  H16B 3945   6.059   0.675   7.877  2.6341 -0.5192  1.8122
   54CHL1   C17 3946   6.238   0.778   7.846  0.3351 -0.4007 -0.3032
   54CHL1   H17 3947   6.272   0.672   7.847 -0.6706 -0.7605  2.3835
   54CHL1   C13 3948   6.279   0.854   7.718 -0.3420 -0.5127  0.0466
   54CHL1   C18 3949   6.279   1.011   7.743 -0.3059 -0.2136  0.4805
   54CHL1  H18A 3950   6.183   1.041   7.790 -1.5474 -0.7608 -1.5841
   54CHL1  H18B 3951   6.366   1.042   7.805 -0.5415  1.1235  0.1716
   54CHL1  H18C 3952   6.294   1.071   7.651  0.1602 -0.1983  0.5649
   54CHL1   C12 3953   6.420   0.811   7.653  0.1317 -0.4374 -0.6559
   54CHL1  H12A 3954   6.506   0.837   7.719 -1.2072 -1.6058  1.6562
   54CHL1  H12B 3955   6.431   0.701   7.642 -1.3926 -0.5232 -1.4314
   54CHL1   C11 3956   6.439   0.872   7.506 -0.5987  0.3752  1.1622
   54CHL1  H11A 3957   6.465   0.977   7.527 -1.9976  1.1129 -0.5613
   54CHL1  H11B 3958   6.527   0.827   7.455 -1.5150  1.4563 -1.5620
   54CHL1    C9 3959   6.316   0.863   7.412  0.0769 -0.1073  0.0775
   54CHL1    H9 3960   6.312   0.754   7.389  2.2164 -0.2166 -0.0145
   54CHL1   C10 3961   6.333   0.944   7.281  0.1968  0.2993 -0.7316
   54CHL1   C19 3962   6.352   1.089   7.323 -0.7058  0.3317  0.2667
   54CHL1  H19A 3963   6.341   1.149   7.230 -0.6434 -0.1013 -0.0258
   54CHL1  H19B 3964   6.275   1.127   7.393  0.7207  1.0145  1.5180
   54CHL1  H19C 3965   6.456   1.105   7.359 -0.1655 -1.6141 -0.3065
   54CHL1    C1 3966   6.457   0.894   7.202 -0.7994 -0.0170 -0.0265
   54CHL1   H1A 3967   6.545   0.934   7.257  0.0231 -0.3250 -1.0899
   54CHL1   H1B 3968   6.465   0.783   7.204  0.6061  0.0349 -1.0288
   54CHL1    C2 3969   6.479   0.950   7.062  0.5054  0.7169  0.0018
   54CHL1   H2A 3970   6.573   0.917   7.013  1.3287  2.5755  0.2830
   54CHL1   H2B 3971   6.481   1.060   7.072 -2.2651  1.0962 -2.3329
   54CHL1   C20 3972   6.287   0.829   7.984  0.3498 -0.1081 -0.4974
   54CHL1   H20 3973   6.294   0.940   7.991  0.2599 -0.1188 -0.2442
   54CHL1   C21 3974   6.433   0.784   8.005  0.5211 -1.0008 -0.4364
   54CHL1  H21A 3975   6.482   0.843   8.085  0.5798  0.1160 -1.2773
   54CHL1  H21B 3976   6.499   0.811   7.919  0.3125  2.1005  0.2847
   54CHL1  H21C 3977   6.450   0.674   8.011  0.1348 -1.2856 -3.2852
   54CHL1   C22 3978   6.206   0.786   8.111 -0.1337  0.4136 -0.1047
   54CHL1  H22A 3979   6.099   0.800   8.083  0.1979  0.8711 -1.2144
   54CHL1  H22B 3980   6.223   0.677   8.119  1.9211  0.7476  0.6756
   54CHL1   C23 3981   6.249   0.864   8.238 -0.2653  0.7796  0.1201
   54CHL1  H23A 3982   6.354   0.837   8.265 -0.6775 -1.0736 -0.0478
   54CHL1  H23B 3983   6.249   0.974   8.219 -0.7309  0.6111 -0.9092
   54CHL1   C24 3984   6.173   0.826   8.366  0.6216 -0.1098 -0.6042
   54CHL1  H24A 3985   6.064   0.830   8.345  0.2913 -1.5474  0.6549
   54CHL1  H24B 3986   6.198   0.720   8.390 -1.7386 -0.1363  2.2205
   54CHL1   C25 3987   6.207   0.916   8.484  0.4703  0.6848 -0.8188
   54CHL1   H25 3988   6.316   0.916   8.506  0.6103 -2.7494 -0.8769
   54CHL1   C26 3989   6.176   1.066   8.470 -0.5702 -0.4606  0.4531
   54CHL1  H26A 3990   6.069   1.075   8.441 -0.3111  1.7380 -0.0160
   54CHL1  H26B 3991   6.199   1.116   8.566  1.9012  0.4575 -0.5219
   54CHL1  H26C 3992   6.241   1.117   8.396 -1.8596  1.5255  0.6191
   54CHL1   C27 3993   6.141   0.856   8.611  1.4105 -0.6131  0.0145
   54CHL1  H27A 3994   6.192   0.771   8.661  0.7306 -1.2879 -0.4244
   54CHL1  H27B 3995   6.150   0.935   8.688  2.8825 -0.9318  0.1987
   54CHL1  H27C 3996   6.033   0.833   8.604  1.2474  0.5482 -3.5192
   55CHL1    C3 3997   5.930   1.840   6.889  0.2642 -0.2285  0.1413
   55CHL1    H3 3998   5.981   1.937   6.907  0.1063  0.4189 -2.5121
   55CHL1    O3 3999   5.937   1.810   6.750 -0.0427  0.1891 -0.0924
   55CHL1   H3' 4000   6.031   1.830   6.741 -0.3262  1.5750 -0.2251
   55CHL1    C4 4001   5.990   1.728   6.974 -0.2182  1.0515  0.7457
   55CHL1   H4A 4002   5.942   1.632   6.945 -0.3037  0.6024  2.3043
   55CHL1   H4B 4003   6.093   1.715   6.934 -0.4808  1.6576 -0.1627
   55CHL1    C5 4004   5.981   1.760   7.121  0.0589  0.0457  0.8510
   55CHL1    C6 4005   6.092   1.781   7.193  1.1913  0.2255  0.3865
   55CHL1    H6 4006   6.187   1.783   7.138  0.8774 -2.0799 -0.3382
   55CHL1    C7 4007   6.077   1.811   7.340  0.5856 -0.3125  0.2765
   55CHL1   H7A 4008   6.142   1.741   7.396  0.3320 -0.3288  0.5548
   55CHL1   H7B 4009   6.124   1.909   7.363  2.2783 -0.7143 -1.2237
   55CHL1    C8 4010   5.936   1.787   7.404 -0.6020 -0.5213 -0.1968
   55CHL1    H8 4011   5.913   1.682   7.435 -1.6522 -0.1165  0.4427
   55CHL1   C14 4012   5.920   1.858   7.539 -0.1418  0.7498 -0.1000
   55CHL1   H14 4013   5.919   1.963   7.503 -1.0387  1.5532  2.1041
   55CHL1   C15 4014   6.028   1.858   7.649 -0.5223  0.0261  0.0141
   55CHL1  H15A 4015   6.085   1.763   7.661 -0.1416  0.0312 -1.4671
   55CHL1  H15B 4016   6.106   1.935   7.635  0.5705 -1.1274 -0.4790
   55CHL1   C16 4017   5.958   1.893   7.779  0.5899  0.4284  0.2753
   55CHL1  H16A 4018   5.951   1.793   7.828 -4.2179 -0.5071 -1.6671
   55CHL1  H16B 4019   6.003   1.962   7.852  0.2699 -1.8067  2.7406
   55CHL1   C17 4020   5.816   1.935   7.736 -0.3688  0.0407  0.5398
   55CHL1   H17 4021   5.831   2.038   7.696 -3.8639  0.9269  1.1686
   55CHL1   C13 4022   5.787   1.847   7.612 -0.9671  0.4766  0.7048
   55CHL1   C18 4023   5.766   1.697   7.654  0.3405  0.5910 -0.2142
   55CHL1  H18A 4024   5.672   1.692   7.714 -0.5669 -0.7146 -1.6859
   55CHL1  H18B 4025   5.749   1.633   7.565 -0.2711 -0.0767  0.3673
   55CHL1  H18C 4026   5.853   1.669   7.717  2.2681 -1.4898 -3.5313
   55CHL1   C12 4027   5.675   1.886   7.519 -0.3803 -0.0842  0.2457
   55CHL1  H12A 4028   5.578   1.875   7.571 -1.1495 -1.9804 -1.4651
   55CHL1  H12B 4029   5.689   1.995   7.501 -0.7058  0.2885  2.0992
   55CHL1   C11 4030   5.688   1.819   7.386 -0.8038  0.5376 -0.6201
   55CHL1  H11A 4031   5.655   1.715   7.403 -1.7542  1.2561  2.4844
   55CHL1  H11B 4032   5.607   1.868   7.327 -1.9185  0.0948  0.4959
   55CHL1    C9 4033   5.827   1.834   7.314  0.0116  0.0808 -0.4360
   55CHL1    H9 4034   5.849   1.942   7.303  0.3678  0.0504 -0.0466
   55CHL1   C10 4035   5.838   1.778   7.172 -1.0313 -0.1720  0.3501
   55CHL1   C19 4036   5.761   1.648   7.172 -0.2861 -0.7447  0.5820
   55CHL1  H19A 4037   5.753   1.600   7.072 -1.2220 -1.0269  0.7847
   55CHL1  H19B 4038   5.810   1.580   7.244  0.1174  0.0973  1.1090
   55CHL1  H19C 4039   5.654   1.663   7.196 -2.1824 -4.9738 -3.4969
   55CHL1    C1 4040   5.771   1.885   7.073  0.5243  0.3030 -0.0022
   55CHL1   H1A 4041   5.664   1.889   7.101  0.0526 -2.3411 -1.0899
   55CHL1   H1B 4042   5.820   1.984   7.086  1.9777 -0.0587 -2.1927
   55CHL1    C2 4043   5.780   1.855   6.927 -0.0210 -0.0476  0.0547
   55CHL1   H2A 4044   5.731   1.926   6.857 -1.3446 -1.7269 -0.8092
   55CHL1   H2B 4045   5.733   1.758   6.898 -1.0684  0.5099 -0.1767
   55CHL1   C20 4046   5.703   1.945   7.844 -0.6092 -0.3909  0.0624
   55CHL1   H20 4047   5.613   1.958   7.780  0.9346  2.8985 -1.7236
   55CHL1   C21 4048   5.733   2.079   7.922 -0.2985 -0.4545  0.2689
   55CHL1  H21A 4049   5.746   2.166   7.854  1.0577 -0.0637  1.0071
   55CHL1  H21B 4050   5.831   2.075   7.974  0.9131  1.4296 -1.6914
   55CHL1  H21C 4051   5.649   2.100   7.993  0.1342 -2.9398  1.6221
   55CHL1   C22 4052   5.680   1.826   7.947 -0.3876 -0.4733  0.7281
   55CHL1  H22A 4053   5.616   1.742   7.913  1.1826 -0.6060 -2.2956
   55CHL1  H22B 4054   5.774   1.770   7.963 -0.3812 -0.9879 -0.8496
   55CHL1   C23 4055   5.618   1.860   8.083 -0.2564  0.4765 -0.0673
   55CHL1  H23A 4056   5.683   1.940   8.125  0.3765  1.7626 -3.2364
   55CHL1  H23B 4057   5.516   1.899   8.063  0.4232  1.0544 -2.7840
   55CHL1   C24 4058   5.629   1.746   8.182  0.6558 -0.0533  0.7096
   55CHL1  H24A 4059   5.556   1.666   8.161  1.6431 -0.4065 -1.7701
   55CHL1  H24B 4060   5.730   1.702   8.167  0.8698  0.5738  0.2454
   55CHL1   C25 4061   5.623   1.792   8.328  0.6541  0.1234  0.2375
   55CHL1   H25 4062   5.549   1.874   8.333 -1.0169 -1.0060 -3.2264
   55CHL1   C26 4063   5.560   1.682   8.416 -0.0818 -0.3130  0.0290
   55CHL1  H26A 4064   5.630   1.596   8.412  3.5778  2.3546  0.7639
   55CHL1  H26B 4065   5.547   1.713   8.522  2.5394  0.6439  0.1352
   55CHL1  H26C 4066   5.461   1.657   8.372  0.5727  0.3862 -1.9364
   55CHL1   C27 4067   5.758   1.838   8.377 -0.0348 -0.1503 -0.7274
   55CHL1  H27A 4068   5.749   1.854   8.487  0.3310  0.6677 -0.8073
   55CHL1  H27B 4069   5.844   1.769   8.365 -0.0933 -0.0269 -1.9958
   55CHL1  H27C 4070   5.789   1.937   8.338 -0.1307 -0.3314 -1.2713
   56CHL1    C3 4071   4.665   2.101   6.902 -0.3216 -0.0631  0.2958
   56CHL1    H3 4072   4.694   1.995   6.915  1.7753  0.7788  3.8889
   56CHL1    O3 4073   4.619   2.106   6.770  0.2215 -0.0431  0.3858
   56CHL1   H3' 4074   4.546   2.043   6.776 -1.3391  1.6153 -0.2225
   56CHL1    C4 4075   4.549   2.124   6.994  0.4209  0.2299 -0.8206
   56CHL1   H4A 4076   4.497   2.221   6.976 -0.5611  0.2272  1.5980
   56CHL1   H4B 4077   4.476   2.044   6.969  1.2135 -0.9790  0.6079
   56CHL1    C5 4078   4.605   2.106   7.132 -0.0738  0.7571 -0.8359
   56CHL1    C6 4079   4.545   2.019   7.215 -0.1730  0.0954 -0.2208
   56CHL1    H6 4080   4.451   1.975   7.178 -2.1137  2.2774  1.7699
   56CHL1    C7 4081   4.584   1.991   7.359  0.3093  0.2172  0.0696
   56CHL1   H7A 4082   4.493   1.972   7.419  0.2263  0.1114 -0.0893
   56CHL1   H7B 4083   4.646   1.899   7.370 -1.5066 -0.8431  2.0391
   56CHL1    C8 4084   4.668   2.110   7.418  1.0715  0.0405  0.9685
   56CHL1    H8 4085   4.610   2.204   7.431  1.9859  0.8844 -0.7485
   56CHL1   C14 4086   4.719   2.072   7.550  0.3241 -0.2800 -0.1840
   56CHL1   H14 4087   4.790   1.988   7.535  1.6561  0.7146  0.3661
   56CHL1   C15 4088   4.613   2.027   7.652 -0.3175  0.3246  0.4557
   56CHL1  H15A 4089   4.522   2.090   7.641  1.0542  2.1447 -1.0758
   56CHL1  H15B 4090   4.589   1.919   7.635 -0.0382  0.1233  1.3189
   56CHL1   C16 4091   4.681   2.043   7.787  0.0489 -0.3567  0.2433
   56CHL1  H16A 4092   4.620   2.107   7.854  0.8458  3.3929 -2.2353
   56CHL1  H16B 4093   4.698   1.943   7.831 -2.3289 -0.5430  0.8681
   56CHL1   C17 4094   4.823   2.104   7.758 -0.2043  0.4528 -0.3436
   56CHL1   H17 4095   4.888   2.017   7.737 -0.8974  0.1564 -1.3343
   56CHL1   C13 4096   4.800   2.182   7.621 -0.8925 -0.7246 -0.4365
   56CHL1   C18 4097   4.734   2.315   7.655 -0.0463 -0.0919  0.2874
   56CHL1  H18A 4098   4.686   2.353   7.563  0.5410 -1.4213 -0.6012
   56CHL1  H18B 4099   4.652   2.292   7.727  0.8462  0.2126  1.4379
   56CHL1  H18C 4100   4.807   2.392   7.690 -1.1624  1.1424 -0.0246
   56CHL1   C12 4101   4.923   2.208   7.539 -0.6271 -0.0300 -0.4096
   56CHL1  H12A 4102   4.977   2.296   7.579  0.2708 -1.6792  2.2061
   56CHL1  H12B 4103   4.988   2.119   7.552  1.0383  0.9012 -1.8524
   56CHL1   C11 4104   4.880   2.244   7.387  0.2908 -0.6872 -0.6006
   56CHL1  H11A 4105   4.841   2.348   7.395 -0.8162 -1.0991 -0.5550
   56CHL1  H11B 4106   4.970   2.260   7.323  0.1333  0.5719 -0.5399
   56CHL1    C9 4107   4.783   2.148   7.327 -0.4069 -0.4301  0.7584
   56CHL1    H9 4108   4.837   2.054   7.302  0.8831  0.4240  0.2075
   56CHL1   C10 4109   4.731   2.189   7.179  0.1429  0.2335 -0.6492
   56CHL1   C19 4110   4.687   2.341   7.173 -0.2641  0.1614 -0.4345
   56CHL1  H19A 4111   4.621   2.353   7.262  0.6137 -0.5988  0.3417
   56CHL1  H19B 4112   4.778   2.399   7.197  0.1680 -0.7422  0.1956
   56CHL1  H19C 4113   4.640   2.373   7.078  0.4008  2.6429  0.0164
   56CHL1    C1 4114   4.840   2.169   7.075 -0.5290 -0.2406 -0.7145
   56CHL1   H1A 4115   4.931   2.223   7.110 -0.3083 -1.8417  1.4315
   56CHL1   H1B 4116   4.867   2.061   7.073  0.2056 -0.0612 -0.7503
   56CHL1    C2 4117   4.787   2.192   6.930  0.0760 -0.1381 -0.2619
   56CHL1   H2A 4118   4.871   2.196   6.858 -0.5110 -0.1824 -0.9621
   56CHL1   H2B 4119   4.735   2.290   6.925 -0.0063 -0.0308  1.7889
   56CHL1   C20 4120   4.872   2.179   7.880  0.9059  0.2909 -0.4514
   56CHL1   H20 4121   4.819   2.271   7.911  0.8591 -0.6476  2.5691
   56CHL1   C21 4122   5.010   2.219   7.851 -0.4463  0.3420  0.4460
   56CHL1  H21A 4123   5.074   2.138   7.811  0.3022  1.6786 -1.1770
   56CHL1  H21B 4124   5.054   2.270   7.940  1.4109  1.7818 -1.1909
   56CHL1  H21C 4125   5.022   2.293   7.770  0.0046 -1.0488 -0.7969
   56CHL1   C22 4126   4.868   2.094   8.006  0.2425  0.3122  0.2773
   56CHL1  H22A 4127   4.780   2.027   8.016  0.9348 -0.5236  0.8958
   56CHL1  H22B 4128   4.952   2.021   8.005 -0.1814 -0.2529  2.0654
   56CHL1   C23 4129   4.866   2.188   8.136  0.2266 -0.2108 -0.1814
   56CHL1  H23A 4130   4.960   2.247   8.140 -0.9740  1.7897 -0.3056
   56CHL1  H23B 4131   4.769   2.241   8.126  0.2481 -0.0060  0.6083
   56CHL1   C24 4132   4.860   2.095   8.255 -0.0877  0.1056  0.0060
   56CHL1  H24A 4133   4.763   2.040   8.255  0.3860 -0.7510 -0.4584
   56CHL1  H24B 4134   4.941   2.022   8.236  0.8963  1.1016  0.2816
   56CHL1   C25 4135   4.876   2.150   8.401  0.3139 -0.5037 -0.0381
   56CHL1   H25 4136   4.975   2.200   8.397  0.8948 -1.5463  0.6047
   56CHL1   C26 4137   4.765   2.247   8.449 -0.2009 -0.0152 -0.6240
   56CHL1  H26A 4138   4.787   2.286   8.550  0.3861  0.1825 -0.8283
   56CHL1  H26B 4139   4.667   2.193   8.455  0.2735 -0.7303  1.4241
   56CHL1  H26C 4140   4.754   2.337   8.384 -2.0027  0.5880  0.4413
   56CHL1   C27 4141   4.878   2.041   8.505  0.5936 -0.1035  0.3189
   56CHL1  H27A 4142   4.775   2.010   8.534  0.2967  2.1517  1.9717
   56CHL1  H27B 4143   4.929   1.950   8.468 -2.6125 -1.7159 -0.4588
   56CHL1  H27C 4144   4.928   2.080   8.596 -2.2666  1.5593  1.3000
   57SAPC     N 4145   6.325   4.231  10.828  0.1916  0.9189  0.4197
   57SAPC   C12 4146   6.273   4.109  10.758 -0.4881  0.7516 -0.1774
   57SAPC  H12A 4147   6.193   4.060  10.811 -0.5033  0.7128 -0.2352
   57SAPC  H12B 4148   6.346   4.031  10.743  0.1812  1.7981 -3.1414
   57SAPC   C13 4149   6.369   4.198  10.964  0.2883 -0.4103  0.1278
   57SAPC  H13A 4150   6.294   4.181  11.040  0.2212 -0.3426  0.0758
   57SAPC  H13B 4151   6.455   4.133  10.960  1.0910  0.6947 -1.2442
   57SAPC  H13C 4152   6.411   4.289  11.005 -0.3303 -1.0448  2.2926
   57SAPC   C14 4153   6.446   4.285  10.756 -0.6630 -0.1845  0.0039
   57SAPC  H14A 4154   6.494   4.356  10.821  1.2657 -0.0664 -1.4587
   57SAPC  H14B 4155   6.525   4.212  10.742  2.0595  2.5734  0.1140
   57SAPC  H14C 4156   6.432   4.327  10.658  0.6314  1.9693  0.6856
   57SAPC   C15 4157   6.223   4.339  10.841  0.6992 -0.8033 -0.1018
   57SAPC  H15A 4158   6.164   4.307  10.925 -0.8988 -0.2312 -0.9461
   57SAPC  H15B 4159   6.267   4.429  10.881  0.8330 -1.1500  0.5356
   57SAPC  H15C 4160   6.165   4.352  10.750 -0.7561 -1.3175  0.7118
   57SAPC   C11 4161   6.213   4.127  10.624  0.5310 -0.4939  0.4001
   57SAPC  H11A 4162   6.290   4.168  10.555 -0.4447  0.8749  0.0690
   57SAPC  H11B 4163   6.129   4.200  10.624  1.0976  0.1988 -0.8158
   57SAPC     P 4164   6.009   3.961  10.607 -0.0187  0.4635 -0.1258
   57SAPC   O13 4165   5.991   3.816  10.610  0.8999 -0.1702 -0.4100
   57SAPC   O14 4166   5.959   4.027  10.724 -0.2179 -0.4763  0.3019
   57SAPC   O12 4167   6.167   4.001  10.579 -0.3482 -0.1262 -0.0064
   57SAPC   O11 4168   5.937   4.027  10.477  0.0536 -0.2786 -0.5655
   57SAPC    C1 4169   5.948   3.945  10.358  0.1659 -1.1840  0.7657
   57SAPC    HA 4170   6.053   3.918  10.333  1.8351  3.5768  1.5271
   57SAPC    HB 4171   5.894   3.849  10.356 -2.0090 -0.0020 -0.7667
   57SAPC    C2 4172   5.883   4.026  10.237 -0.1521 -0.5107 -0.1044
   57SAPC    HS 4173   5.780   4.057  10.265 -0.2366 -1.3823  0.5685
   57SAPC   O21 4174   5.882   3.950  10.114  0.4289  0.1025  0.5436
   57SAPC   C21 4175   5.768   3.878  10.098  0.3052  0.3636  0.0313
   57SAPC   O22 4176   5.680   3.872  10.172  0.4458 -0.6364  0.5682
   57SAPC   C22 4177   5.778   3.812   9.965  0.0117 -0.4066  0.1816
   57SAPC   H2R 4178   5.790   3.702   9.978 -0.5551 -0.8215 -2.4088
   57SAPC   H2S 4179   5.681   3.816   9.912  0.8710  0.6453 -1.4057
   57SAPC    C3 4180   5.965   4.160  10.206  0.6227  0.3944  0.3666
   57SAPC    HX 4181   5.956   4.222  10.297  1.8849 -2.2908  2.4546
   57SAPC    HY 4182   5.926   4.212  10.116 -1.9554 -1.6159  0.2084
   57SAPC   O31 4183   6.097   4.119  10.172  0.4707 -0.3825 -0.3431
   57SAPC   C31 4184   6.191   4.213  10.193  0.1543  0.2602  0.8561
   57SAPC   O32 4185   6.172   4.329  10.218 -0.0627  0.2924  0.0126
   57SAPC   C32 4186   6.332   4.147  10.160  0.5713  0.4223 -0.0886
   57SAPC   H2X 4187   6.348   4.061  10.229 -1.0794 -0.9862 -1.3696
   57SAPC   H2Y 4188   6.415   4.221  10.168  1.4750 -0.3239 -1.9125
   57SAPC   C23 4189   5.879   3.867   9.855 -0.3180 -0.4881 -0.2981
   57SAPC   H3R 4190   5.984   3.849   9.888 -0.4216 -1.1641 -0.3253
   57SAPC   H3S 4191   5.856   3.975   9.839 -3.2421 -0.4831  2.8397
   57SAPC   C24 4192   5.852   3.797   9.728 -0.4728  0.0579  0.8626
   57SAPC   H4R 4193   5.747   3.821   9.701 -0.8360  0.6227  2.6305
   57SAPC   H4S 4194   5.856   3.687   9.743  1.3099  0.1980  1.6475
   57SAPC   C25 4195   5.947   3.843   9.619  0.6225  0.8806 -0.6039
   57SAPC   H5R 4196   6.007   3.933   9.641  0.0925  0.9671  0.5938
   57SAPC   C26 4197   5.970   3.782   9.498 -0.2007 -0.8141  0.1340
   57SAPC   H6R 4198   6.038   3.837   9.431  0.0370  0.2349  1.2083
   57SAPC   C27 4199   5.911   3.651   9.443 -0.9892  0.9014  0.4181
   57SAPC   H7R 4200   5.831   3.677   9.371 -2.2683  1.1202  1.8713
   57SAPC   H7S 4201   5.863   3.583   9.516  1.5063  0.2661  1.5754
   57SAPC   C28 4202   6.020   3.565   9.370  0.3857  0.0811  0.3528
   57SAPC   H8R 4203   6.090   3.503   9.428  1.6702  1.0549 -0.1182
   57SAPC   C29 4204   6.036   3.555   9.234 -0.1430  0.6634  0.0312
   57SAPC   H9R 4205   6.126   3.511   9.189 -0.2226  1.6844 -1.1956
   57SAPC  C210 4206   5.954   3.629   9.130 -0.2672  0.1972  0.4864
   57SAPC  H10R 4207   5.989   3.734   9.128 -0.9375  0.4419  1.1911
   57SAPC  H10S 4208   5.848   3.646   9.158 -0.3836  3.0732 -1.3225
   57SAPC  C211 4209   5.965   3.554   9.005 -0.5634 -0.4998  0.4743
   57SAPC  H11R 4210   5.946   3.446   9.000  0.1668 -0.6934  1.5148
   57SAPC  C212 4211   5.983   3.610   8.880 -0.1704 -0.0224 -0.6541
   57SAPC  H12R 4212   5.989   3.543   8.793 -0.4969  1.8334 -2.1647
   57SAPC  C213 4213   6.006   3.761   8.850 -0.3866 -0.0263  0.2800
   57SAPC  H13R 4214   6.114   3.773   8.826 -0.2245  1.8873  1.7123
   57SAPC  H13S 4215   5.990   3.829   8.936 -0.2803 -2.1164  2.0445
   57SAPC  C214 4216   5.912   3.791   8.736 -0.2079  0.5167  0.9885
   57SAPC  H14R 4217   5.896   3.707   8.666 -2.9340  0.4492  1.6004
   57SAPC  C215 4218   5.867   3.913   8.699  0.8554  0.0610  0.1937
   57SAPC  H15R 4219   5.802   3.922   8.611 -0.1886  3.1057  1.1435
   57SAPC  C216 4220   5.896   4.046   8.751 -0.9293 -0.1128  0.4523
   57SAPC  H16R 4221   5.874   4.114   8.666 -0.4440  0.5275  0.8251
   57SAPC  H16S 4222   6.002   4.070   8.776 -0.6796  0.0813 -0.7600
   57SAPC  C217 4223   5.816   4.091   8.868  0.1241  0.9217 -0.1831
   57SAPC  H17R 4224   5.848   4.033   8.957  1.1833 -2.2319 -2.4501
   57SAPC  H17S 4225   5.714   4.067   8.834  0.3347  1.0352 -0.8984
   57SAPC  C218 4226   5.827   4.242   8.902  0.2491  0.2872 -0.5851
   57SAPC  H18R 4227   5.740   4.258   8.968 -0.7905 -0.0492 -1.8337
   57SAPC  H18S 4228   5.811   4.296   8.806  0.6149 -3.0424 -2.6636
   57SAPC  C219 4229   5.954   4.280   8.968 -0.3907  0.2757 -0.0288
   57SAPC  H19R 4230   6.035   4.267   8.893 -2.0507 -0.5353 -1.7450
   57SAPC  H19S 4231   5.972   4.215   9.056  0.3702  1.0952  0.4423
   57SAPC  C220 4232   5.957   4.420   9.013 -0.0491 -0.5292  0.3930
   57SAPC  H20R 4233   5.923   4.493   8.938  0.5515 -1.9097 -1.2845
   57SAPC  H20S 4234   6.059   4.464   9.023 -0.8458  1.5019  0.0345
   57SAPC  H20T 4235   5.891   4.436   9.101  0.3167 -0.4185  0.6490
   57SAPC   C33 4236   6.346   4.106  10.015 -0.0820  0.5597 -0.4605
   57SAPC   H3X 4237   6.269   4.030   9.988 -2.3532  2.5481  0.0176
   57SAPC   H3Y 4238   6.445   4.057  10.011  0.8947  2.1582  1.7407
   57SAPC   C34 4239   6.342   4.207   9.899  0.6517  0.3364 -0.5492
   57SAPC   H4X 4240   6.379   4.305   9.938  0.2471 -0.0321  0.8215
   57SAPC   H4Y 4241   6.236   4.218   9.866  1.0766  0.1908 -2.0476
   57SAPC   C35 4242   6.424   4.174   9.779 -0.4938  0.1036 -0.1391
   57SAPC   H5X 4243   6.530   4.177   9.812 -0.4762 -3.3373  0.5531
   57SAPC   H5Y 4244   6.400   4.251   9.703 -2.5129  0.3955  0.7205
   57SAPC   C36 4245   6.393   4.032   9.733  0.4627  0.0711 -0.1802
   57SAPC   H6X 4246   6.283   4.013   9.731  0.7599 -1.8223 -1.4434
   57SAPC   H6Y 4247   6.431   3.955   9.804  1.0505  0.0266 -0.5359
   57SAPC   C37 4248   6.439   4.010   9.588  0.1575  0.6504 -0.2993
   57SAPC   H7X 4249   6.548   4.025   9.575  0.1142  3.6618  1.7537
   57SAPC   H7Y 4250   6.393   4.092   9.529 -0.3239 -0.2572 -1.2288
   57SAPC   C38 4251   6.397   3.883   9.514 -0.3524  0.4508 -0.4622
   57SAPC   H8X 4252   6.288   3.870   9.503 -0.2508 -1.7007  0.6216
   57SAPC   H8Y 4253   6.419   3.800   9.585 -0.7646  0.6854 -0.0581
   57SAPC   C39 4254   6.471   3.854   9.385 -0.0070  0.7222  0.1108
   57SAPC   H9X 4255   6.579   3.837   9.403  0.0837 -0.4334 -1.3276
   57SAPC   H9Y 4256   6.465   3.945   9.321 -0.8317  0.9313  0.4679
   57SAPC  C310 4257   6.428   3.728   9.310  0.1043  0.9011 -0.5376
   57SAPC  H10X 4258   6.318   3.728   9.301 -0.1054  2.2885  1.5600
   57SAPC  H10Y 4259   6.444   3.637   9.372  0.1109  1.8532  0.8997
   57SAPC  C311 4260   6.485   3.716   9.165  0.1951 -0.1607  0.1365
   57SAPC  H11X 4261   6.596   3.716   9.175  0.0779 -2.3103  2.2104
   57SAPC  H11Y 4262   6.455   3.799   9.097 -1.7131 -0.2036  0.8718
   57SAPC  C312 4263   6.455   3.580   9.098  0.2174  0.0440 -0.1149
   57SAPC  H12X 4264   6.344   3.573   9.091  0.1174  0.1678  1.1023
   57SAPC  H12Y 4265   6.487   3.512   9.179  0.6238  0.0509 -0.2673
   57SAPC  C313 4266   6.510   3.574   8.954 -0.1017 -0.1642 -0.3724
   57SAPC  H13X 4267   6.515   3.468   8.920  1.0865 -0.0900 -0.4868
   57SAPC  H13Y 4268   6.611   3.622   8.957  0.9359 -2.2013 -1.1820
   57SAPC  C314 4269   6.426   3.653   8.855 -0.0384  0.1627 -0.0031
   57SAPC  H14X 4270   6.417   3.758   8.890  1.8881  0.4913 -0.3608
   57SAPC  H14Y 4271   6.330   3.599   8.843  1.1765 -2.2295  0.3973
   57SAPC  C315 4272   6.501   3.657   8.721 -0.4288  0.1159 -0.2303
   57SAPC  H15X 4273   6.496   3.555   8.678  1.1597  0.1646 -0.5653
   57SAPC  H15Y 4274   6.607   3.668   8.751 -0.7563 -1.2070  1.6316
   57SAPC  C316 4275   6.457   3.762   8.622 -0.1331 -0.2850  0.1240
   57SAPC  H16X 4276   6.526   3.767   8.535 -0.2925 -0.7871 -0.0347
   57SAPC  H16Y 4277   6.460   3.860   8.675  1.7639 -0.4657  0.4030
   57SAPC  C317 4278   6.315   3.741   8.566 -0.1357 -0.4609 -0.5225
   57SAPC  H17X 4279   6.243   3.752   8.649  3.1011  0.3379  2.4153
   57SAPC  H17Y 4280   6.301   3.636   8.532  2.6210 -0.7430 -1.0066
   57SAPC  C318 4281   6.284   3.848   8.457 -0.1982  0.4945 -0.0382
   57SAPC  H18X 4282   6.178   3.849   8.422  0.1299  0.1599 -1.0743
   57SAPC  H18Y 4283   6.342   3.841   8.363 -1.5580  4.2337 -1.3477
   57SAPC  H18Z 4284   6.299   3.950   8.499 -0.6863 -0.1736  1.8733
   58SAPC     N 4285   2.760   1.320  10.604  0.5057 -0.2954  0.3172
   58SAPC   C12 4286   2.703   1.458  10.621 -0.4805 -0.3787  0.3216
   58SAPC  H12A 4287   2.596   1.466  10.636 -0.3103  0.0211  1.4128
   58SAPC  H12B 4288   2.700   1.513  10.528 -0.9872 -1.8780 -0.5838
   58SAPC   C13 4289   2.679   1.249  10.504 -0.2311  0.1616  0.3630
   58SAPC  H13A 4290   2.574   1.248  10.529  0.4935 -0.5749  3.8407
   58SAPC  H13B 4291   2.683   1.307  10.413 -0.1018  0.5081  0.5896
   58SAPC  H13C 4292   2.705   1.146  10.481  0.4733  0.5435 -0.6602
   58SAPC   C14 4293   2.901   1.336  10.551  0.1238  0.1748 -0.3644
   58SAPC  H14A 4294   2.950   1.407  10.617 -3.0025  3.4343 -1.2031
   58SAPC  H14B 4295   2.941   1.236  10.554  0.8964  0.4320  4.2587
   58SAPC  H14C 4296   2.904   1.374  10.450  1.3957  0.4500 -0.2394
   58SAPC   C15 4297   2.761   1.226  10.727  0.1942 -0.1584  0.1788
   58SAPC  H15A 4298   2.806   1.288  10.804 -0.8465  0.5233  0.2607
   58SAPC  H15B 4299   2.663   1.208  10.769  0.2989  1.1851  1.0847
   58SAPC  H15C 4300   2.814   1.133  10.712  1.9173  0.5823  1.3123
   58SAPC   C11 4301   2.772   1.551  10.726 -0.5856 -0.4928  0.5185
   58SAPC  H11A 4302   2.786   1.499  10.823  0.6855  1.3288  1.3601
   58SAPC  H11B 4303   2.704   1.637  10.740  1.8246  2.0447 -2.0013
   58SAPC     P 4304   2.915   1.759  10.650 -0.2088  0.2053 -0.5975
   58SAPC   O13 4305   2.875   1.836  10.772 -0.2581  0.3702  0.0017
   58SAPC   O14 4306   3.052   1.787  10.594  0.1079  0.7916  0.3872
   58SAPC   O12 4307   2.902   1.600  10.681 -1.0620  0.1733 -0.0491
   58SAPC   O11 4308   2.808   1.785  10.538 -0.0648  0.4053  0.0934
   58SAPC    C1 4309   2.768   1.927  10.517  0.6602  1.3539  0.1943
   58SAPC    HA 4310   2.670   1.939  10.567  0.0832 -2.6560  0.3554
   58SAPC    HB 4311   2.838   2.005  10.555  0.9562  2.1734 -1.8797
   58SAPC    C2 4312   2.766   1.968  10.366  0.3221 -0.1506 -0.1247
   58SAPC    HS 4313   2.735   2.074  10.360 -2.2655 -0.8739 -0.9688
   58SAPC   O21 4314   2.672   1.898  10.289  0.2437  0.4330  0.1204
   58SAPC   C21 4315   2.546   1.905  10.326 -0.3623 -0.5219 -0.1779
   58SAPC   O22 4316   2.501   1.971  10.408 -0.2254 -0.3971 -0.2790
   58SAPC   C22 4317   2.476   1.808  10.234 -0.0564 -0.4540  0.0510
   58SAPC   H2R 4318   2.550   1.740  10.188 -0.8099 -2.0997  1.1586
   58SAPC   H2S 4319   2.398   1.748  10.285 -0.6251  0.9596  0.9038
   58SAPC    C3 4320   2.906   1.958  10.300 -0.1113  0.6082 -1.4446
   58SAPC    HX 4321   2.956   1.860  10.318  0.3742  0.9948 -0.6027
   58SAPC    HY 4322   2.971   2.032  10.351 -2.0472  0.6629  1.1806
   58SAPC   O31 4323   2.901   1.988  10.161 -0.1291  0.4302 -0.4356
   58SAPC   C31 4324   2.878   1.880  10.080  0.0382  0.4942  0.0115
   58SAPC   O32 4325   2.870   1.763  10.118 -0.0687  0.2933  0.3338
   58SAPC   C32 4326   2.866   1.921   9.931  0.2736 -0.4431 -0.9829
   58SAPC   H2X 4327   2.953   1.985   9.904 -0.5699  0.2258 -2.2332
   58SAPC   H2Y 4328   2.772   1.980   9.936  0.4954 -0.1814  0.3395
   58SAPC   C23 4329   2.399   1.893  10.127  0.6349 -0.3817  0.5326
   58SAPC   H3R 4330   2.344   1.970  10.184 -1.0561 -0.8743 -0.3591
   58SAPC   H3S 4331   2.324   1.827  10.078  1.9297 -1.2854 -0.3103
   58SAPC   C24 4332   2.477   1.951  10.011  0.3774  0.0877  1.1547
   58SAPC   H4R 4333   2.496   1.868   9.939 -0.9992  1.5075 -0.9795
   58SAPC   H4S 4334   2.580   1.982  10.038  0.9130  0.4659 -1.0698
   58SAPC   C25 4335   2.414   2.068   9.944 -0.3537 -0.0971 -0.3172
   58SAPC   H5R 4336   2.357   2.137  10.009  1.8382  1.6461 -0.1259
   58SAPC   C26 4337   2.406   2.093   9.820 -0.2920  0.3683  0.3436
   58SAPC   H6R 4338   2.370   2.190   9.782 -2.6845 -0.7766 -0.4599
   58SAPC   C27 4339   2.472   2.014   9.710  0.5378  0.6326 -0.5286
   58SAPC   H7R 4340   2.554   1.946   9.743 -0.1387 -0.3249 -0.7776
   58SAPC   H7S 4341   2.516   2.079   9.630  1.3241  0.5889 -0.1407
   58SAPC   C28 4342   2.369   1.916   9.651  0.3031  0.7354 -0.1298
   58SAPC   H8R 4343   2.331   1.843   9.724  0.0184  0.5438 -0.4660
   58SAPC   C29 4344   2.320   1.912   9.520  0.3249  0.1927 -1.0937
   58SAPC   H9R 4345   2.239   1.839   9.503 -1.0772  1.9030 -2.1187
   58SAPC  C210 4346   2.366   2.003   9.407 -0.0179 -0.0750 -0.2962
   58SAPC  H10R 4347   2.468   1.973   9.376  1.0495  1.0720  1.8881
   58SAPC  H10S 4348   2.375   2.107   9.446 -3.5488  0.2203  0.0864
   58SAPC  C211 4349   2.273   2.001   9.289  0.5275 -0.9211 -0.2292
   58SAPC  H11R 4350   2.175   1.952   9.306  0.7067 -1.6556 -1.2054
   58SAPC  C212 4351   2.291   2.057   9.169 -0.1670 -0.5691 -0.0001
   58SAPC  H12R 4352   2.211   2.065   9.094  0.4430  0.7416 -0.5565
   58SAPC  C213 4353   2.417   2.138   9.125  0.4174  0.1477  0.3879
   58SAPC  H13R 4354   2.426   2.121   9.016 -0.0060  1.3763  0.1352
   58SAPC  H13S 4355   2.504   2.094   9.177 -0.3694 -0.4308  1.2530
   58SAPC  C214 4356   2.408   2.280   9.160  0.1450  0.0739  0.3068
   58SAPC  H14R 4357   2.356   2.300   9.254 -0.6358  0.8268 -0.2754
   58SAPC  C215 4358   2.461   2.379   9.083 -0.2347 -0.1131  0.5358
   58SAPC  H15R 4359   2.447   2.483   9.118 -0.3764 -0.0340  0.2434
   58SAPC  C216 4360   2.546   2.352   8.956  0.3096  0.1110 -0.4439
   58SAPC  H16R 4361   2.536   2.439   8.886  0.7859  0.1417 -0.4724
   58SAPC  H16S 4362   2.500   2.273   8.892  0.1488  0.8160 -1.2309
   58SAPC  C217 4363   2.688   2.330   9.003 -0.9846  1.3410 -0.4373
   58SAPC  H17R 4364   2.714   2.223   8.989  1.6713  1.4804  2.2907
   58SAPC  H17S 4365   2.715   2.354   9.109  0.0175 -2.5444  0.3419
   58SAPC  C218 4366   2.791   2.412   8.921  0.4337 -0.0239 -0.0074
   58SAPC  H18R 4367   2.884   2.395   8.979 -0.4907  0.1731  1.5920
   58SAPC  H18S 4368   2.767   2.520   8.929  0.6353 -0.0238  0.6628
   58SAPC  C219 4369   2.831   2.375   8.773 -0.5197  0.6406 -0.4365
   58SAPC  H19R 4370   2.735   2.361   8.718 -2.2652  1.1435  2.2598
   58SAPC  H19S 4371   2.874   2.274   8.785 -0.3130  0.7450 -0.2838
   58SAPC  C220 4372   2.933   2.468   8.721  0.4295 -1.0160 -0.2348
   58SAPC  H20R 4373   3.013   2.486   8.796  1.7548  0.7582 -1.9707
   58SAPC  H20S 4374   2.881   2.565   8.702  2.0456 -0.3149 -1.3205
   58SAPC  H20T 4375   2.978   2.436   8.625 -0.4026 -0.1894 -0.9234
   58SAPC   C33 4376   2.864   1.807   9.825  0.6379 -0.4435  0.3821
   58SAPC   H3X 4377   2.789   1.735   9.864  2.7678 -1.8616  2.1138
   58SAPC   H3Y 4378   2.960   1.751   9.834  0.0825 -1.1007  3.6482
   58SAPC   C34 4379   2.845   1.854   9.682  0.4643 -0.5515  0.5670
   58SAPC   H4X 4380   2.881   1.959   9.677  1.8842 -0.9297  1.9952
   58SAPC   H4Y 4381   2.736   1.866   9.665  0.4528 -0.3752  0.7644
   58SAPC   C35 4382   2.911   1.763   9.578  0.1126  0.4567 -1.0695
   58SAPC   H5X 4383   2.855   1.667   9.570 -0.4470  0.9823 -6.1930
   58SAPC   H5Y 4384   3.015   1.736   9.608 -0.4613  0.6652  1.3037
   58SAPC   C36 4385   2.924   1.812   9.431  0.0139  0.2433 -0.0610
   58SAPC   H6X 4386   2.974   1.729   9.378  2.1362  1.1419  0.4221
   58SAPC   H6Y 4387   2.997   1.894   9.415 -0.2069  0.1656 -1.5908
   58SAPC   C37 4388   2.781   1.861   9.377  0.2082  0.0901  0.5445
   58SAPC   H7X 4389   2.743   1.941   9.445 -2.8876 -1.4368  0.7740
   58SAPC   H7Y 4390   2.714   1.772   9.373 -0.0440  0.3258 -0.7919
   58SAPC   C38 4391   2.783   1.932   9.238 -0.1363  0.1224  0.2303
   58SAPC   H8X 4392   2.858   2.013   9.243 -2.0005  1.9243  0.2548
   58SAPC   H8Y 4393   2.686   1.984   9.220 -0.1390  0.0544  0.0472
   58SAPC   C39 4394   2.806   1.840   9.121  0.1123  0.3100  0.2578
   58SAPC   H9X 4395   2.734   1.756   9.120  1.7963 -1.1935  0.3104
   58SAPC   H9Y 4396   2.911   1.807   9.136  0.7348  2.0031 -0.1256
   58SAPC  C310 4397   2.810   1.910   8.986 -1.2397  0.2430  0.2862
   58SAPC  H10X 4398   2.874   1.841   8.926  3.0316  0.9400  3.5261
   58SAPC  H10Y 4399   2.857   2.010   8.994 -3.8035  1.9285 -2.9225
   58SAPC  C311 4400   2.673   1.917   8.914  0.4356  0.2887 -0.2100
   58SAPC  H11X 4401   2.611   1.972   8.988  1.8746  0.6592  0.7749
   58SAPC  H11Y 4402   2.623   1.818   8.906 -1.3278  1.1422 -0.2063
   58SAPC  C312 4403   2.675   1.990   8.778 -0.4887  0.5159 -0.1799
   58SAPC  H12X 4404   2.744   1.937   8.708 -1.9842 -0.2726 -1.1198
   58SAPC  H12Y 4405   2.729   2.085   8.796 -0.9259  0.8089 -0.3811
   58SAPC  C313 4406   2.538   1.991   8.713 -0.1935 -0.0272 -0.2427
   58SAPC  H13X 4407   2.458   2.039   8.773 -0.7021 -0.8395 -0.2573
   58SAPC  H13Y 4408   2.509   1.884   8.706  1.1869 -0.4611  0.3741
   58SAPC  C314 4409   2.538   2.045   8.573 -0.2745 -0.4934  0.3017
   58SAPC  H14X 4410   2.610   1.984   8.515 -1.1231 -2.1292  0.9250
   58SAPC  H14Y 4411   2.600   2.138   8.569  3.0768 -2.5872 -0.5893
   58SAPC  C315 4412   2.405   2.075   8.510  0.1003  0.5666  0.2043
   58SAPC  H15X 4413   2.368   2.163   8.567 -3.6832 -2.3955  2.8564
   58SAPC  H15Y 4414   2.322   2.003   8.524 -0.9884  1.3231 -1.8945
   58SAPC  C316 4415   2.420   2.128   8.364 -0.1701  0.7073 -0.6465
   58SAPC  H16X 4416   2.373   2.054   8.296 -1.0286  0.2933  0.3649
   58SAPC  H16Y 4417   2.527   2.147   8.342  0.2396 -0.1565  0.5289
   58SAPC  C317 4418   2.353   2.270   8.351  0.1174 -0.4483 -0.7217
   58SAPC  H17X 4419   2.412   2.344   8.410 -1.7182 -0.5514  1.3670
   58SAPC  H17Y 4420   2.248   2.263   8.386  0.3163 -2.2821 -0.3928
   58SAPC  C318 4421   2.343   2.325   8.215  0.3463 -0.6643  0.1954
   58SAPC  H18X 4422   2.280   2.253   8.158  1.4363 -0.6469 -1.0663
   58SAPC  H18Y 4423   2.442   2.320   8.166  0.3432 -0.7260  0.1958
   58SAPC  H18Z 4424   2.302   2.428   8.204  1.8334 -0.1757 -1.0633
   59SAPC     N 4425   3.372   3.675  11.413  1.2668  0.0878 -0.0739
   59SAPC   C12 4426   3.368   3.698  11.264  0.1676 -0.1591 -0.2118
   59SAPC  H12A 4427   3.275   3.666  11.219 -0.0339 -0.2198  0.2459
   59SAPC  H12B 4428   3.441   3.631  11.220  0.3410 -0.1487  0.0589
   59SAPC   C13 4429   3.264   3.755  11.478  0.4117 -0.2004  0.5220
   59SAPC  H13A 4430   3.168   3.738  11.433  0.1580  3.0386 -0.3977
   59SAPC  H13B 4431   3.247   3.727  11.581  0.2473 -1.7000  0.1090
   59SAPC  H13C 4432   3.287   3.860  11.471  0.4800 -0.3004 -1.0657
   59SAPC   C14 4433   3.343   3.530  11.435 -0.3417  0.4004 -0.0746
   59SAPC  H14A 4434   3.330   3.508  11.540  0.4957 -2.8301 -0.5597
   59SAPC  H14B 4435   3.249   3.516  11.383 -0.0759  0.3445 -0.5440
   59SAPC  H14C 4436   3.417   3.466  11.390  0.6111  0.9426  0.6772
   59SAPC   C15 4437   3.501   3.709  11.468  0.3929 -0.4098  0.3920
   59SAPC  H15A 4438   3.512   3.693  11.574 -0.2586  0.9664  0.6837
   59SAPC  H15B 4439   3.578   3.657  11.412 -1.6962 -0.2666 -2.8285
   59SAPC  H15C 4440   3.516   3.816  11.461  1.3456 -0.5320  0.3477
   59SAPC   C11 4441   3.392   3.848  11.229 -0.1088  0.3517  0.8952
   59SAPC  H11A 4442   3.434   3.904  11.316  0.4223  0.0636  0.8280
   59SAPC  H11B 4443   3.292   3.894  11.217 -0.1643 -0.1772 -1.0510
   59SAPC     P 4444   3.500   3.993  11.039  0.0519 -0.1844 -0.3008
   59SAPC   O13 4445   3.379   4.042  10.972 -0.2419  0.1123 -0.3587
   59SAPC   O14 4446   3.564   4.081  11.140 -0.0540  0.1520 -0.4853
   59SAPC   O12 4447   3.480   3.854  11.111 -0.1641  0.8583  0.5491
   59SAPC   O11 4448   3.602   3.954  10.929  0.1433  0.6834  0.2194
   59SAPC    C1 4449   3.584   3.827  10.862 -0.4313 -0.0094  0.0129
   59SAPC    HA 4450   3.596   3.738  10.927  3.8292  0.1122 -0.3155
   59SAPC    HB 4451   3.483   3.830  10.817 -1.0027  0.9853  1.2752
   59SAPC    C2 4452   3.693   3.805  10.764  0.1896 -0.0120  0.3485
   59SAPC    HS 4453   3.787   3.827  10.820 -0.4962  0.8740  1.1914
   59SAPC   O21 4454   3.678   3.918  10.670 -0.4452 -0.0352 -0.2131
   59SAPC   C21 4455   3.769   3.914  10.573  0.0062 -0.4433 -0.0059
   59SAPC   O22 4456   3.869   3.844  10.561 -0.7490  0.8711 -0.4080
   59SAPC   C22 4457   3.724   4.010  10.460 -0.4438  0.1679  0.4565
   59SAPC   H2R 4458   3.618   4.035  10.481 -0.9645 -1.5343  0.0007
   59SAPC   H2S 4459   3.785   4.103  10.461  2.4589 -1.6053  0.5310
   59SAPC    C3 4460   3.694   3.659  10.708  0.2753  0.1377 -0.2031
   59SAPC    HX 4461   3.686   3.599  10.801 -2.1030  0.5081 -0.1119
   59SAPC    HY 4462   3.792   3.643  10.658  0.8562 -0.4274  1.0609
   59SAPC   O31 4463   3.590   3.638  10.608 -0.3227  0.4767 -0.4050
   59SAPC   C31 4464   3.516   3.531  10.631 -0.4661 -0.3311 -0.2386
   59SAPC   O32 4465   3.516   3.459  10.732 -0.2117 -0.4236  0.2421
   59SAPC   C32 4466   3.440   3.496  10.505 -0.2355 -0.1927  0.3168
   59SAPC   H2X 4467   3.510   3.516  10.421 -0.3011 -0.5235  0.1832
   59SAPC   H2Y 4468   3.354   3.565  10.491 -0.6244 -1.0538 -2.1285
   59SAPC   C23 4469   3.740   3.941  10.318  0.5007 -0.3070  0.3916
   59SAPC   H3R 4470   3.847   3.918  10.304  0.2893 -0.9147 -0.2685
   59SAPC   H3S 4471   3.711   4.015  10.241 -0.5188 -0.9761  0.1088
   59SAPC   C24 4472   3.641   3.818  10.303  0.7586  0.0538 -0.1974
   59SAPC   H4R 4473   3.540   3.864  10.310  0.1734 -1.0392 -1.0784
   59SAPC   H4S 4474   3.653   3.746  10.387  0.4189  0.3599  0.1159
   59SAPC   C25 4475   3.652   3.741  10.172 -1.0660  0.1324  0.1412
   59SAPC   H5R 4476   3.753   3.709  10.141 -1.9395 -5.1895  1.7247
   59SAPC   C26 4477   3.548   3.711  10.099 -0.4135  0.5249 -0.0627
   59SAPC   H6R 4478   3.562   3.654  10.006  1.8167 -0.6145  0.8906
   59SAPC   C27 4479   3.398   3.738  10.132 -0.3915 -0.4586  0.6740
   59SAPC   H7R 4480   3.371   3.838  10.093  0.9121 -0.0309  0.8132
   59SAPC   H7S 4481   3.378   3.735  10.241  0.7659  0.4751  0.9355
   59SAPC   C28 4482   3.311   3.652  10.050  0.2178 -0.5174  0.1562
   59SAPC   H8R 4483   3.248   3.588  10.115  3.0457 -0.4131  3.3116
   59SAPC   C29 4484   3.288   3.650   9.919 -0.4237  0.7447 -0.1691
   59SAPC   H9R 4485   3.209   3.580   9.886 -0.0440  0.1516  0.1582
   59SAPC  C210 4486   3.353   3.724   9.810  0.3721 -0.1847 -0.2464
   59SAPC  H10R 4487   3.411   3.813   9.844 -0.4649  0.1803  0.2835
   59SAPC  H10S 4488   3.275   3.774   9.749  1.5063  1.5824 -0.3306
   59SAPC  C211 4489   3.440   3.631   9.729 -0.3677 -0.2727 -0.1576
   59SAPC  H11R 4490   3.534   3.602   9.779 -0.8248  1.1685  1.6430
   59SAPC  C212 4491   3.422   3.587   9.603 -0.0635  0.2207 -0.0609
   59SAPC  H12R 4492   3.493   3.522   9.551 -1.1333  0.9783 -2.6380
   59SAPC  C213 4493   3.298   3.621   9.525 -0.5663 -0.2187  0.3099
   59SAPC  H13R 4494   3.216   3.657   9.590  1.5566  3.6917  1.1935
   59SAPC  H13S 4495   3.266   3.539   9.458 -0.0803  0.8516 -1.3103
   59SAPC  C214 4496   3.345   3.747   9.454 -0.2092  0.5152  0.5225
   59SAPC  H14R 4497   3.377   3.831   9.518 -1.5405  1.8800 -0.5458
   59SAPC  C215 4498   3.372   3.767   9.322  0.9942  0.3741 -0.2053
   59SAPC  H15R 4499   3.407   3.862   9.278  0.3781  0.2000 -1.1014
   59SAPC  C216 4500   3.340   3.670   9.218  0.3328  0.1336 -0.5170
   59SAPC  H16R 4501   3.236   3.636   9.235  0.6705 -0.1109  1.3773
   59SAPC  H16S 4502   3.397   3.575   9.233 -0.5625 -0.1084  1.7718
   59SAPC  C217 4503   3.373   3.713   9.077 -0.0807  0.6013 -0.1522
   59SAPC  H17R 4504   3.481   3.736   9.067  0.5131 -1.7781  0.0925
   59SAPC  H17S 4505   3.310   3.802   9.057 -1.6224 -0.4325 -0.1401
   59SAPC  C218 4506   3.337   3.603   8.982  0.8716  0.2041  0.5197
   59SAPC  H18R 4507   3.230   3.574   8.994  1.0334  0.5590  3.3348
   59SAPC  H18S 4508   3.394   3.509   9.000 -1.4471 -1.3923 -0.0008
   59SAPC  C219 4509   3.360   3.648   8.837  0.0218  0.0652  0.0277
   59SAPC  H19R 4510   3.464   3.685   8.828 -0.5181  2.0313  1.3630
   59SAPC  H19S 4511   3.284   3.724   8.810  0.0732  0.5664  1.2163
   59SAPC  C220 4512   3.320   3.536   8.740  0.6495 -0.8538  0.2982
   59SAPC  H20R 4513   3.397   3.456   8.739  0.6266 -0.8745 -0.0767
   59SAPC  H20S 4514   3.312   3.560   8.631  2.2378 -1.4792  0.0150
   59SAPC  H20T 4515   3.224   3.492   8.774  1.2282 -0.6920  2.2644
   59SAPC   C33 4516   3.387   3.356  10.507 -0.5211  0.6859 -0.7587
   59SAPC   H3X 4517   3.329   3.341  10.600  0.5834 -0.0802 -0.1779
   59SAPC   H3Y 4518   3.469   3.281  10.508 -0.7700  0.3801  1.4710
   59SAPC   C34 4519   3.299   3.323  10.387  0.3089 -0.2419 -0.2888
   59SAPC   H4X 4520   3.230   3.410  10.394 -0.0223 -0.4217 -1.2205
   59SAPC   H4Y 4521   3.231   3.240  10.412 -0.4230  0.1384 -0.9721
   59SAPC   C35 4522   3.367   3.317  10.243 -0.7588 -0.1144  0.0777
   59SAPC   H5X 4523   3.446   3.240  10.257  0.9896  1.8071  1.5916
   59SAPC   H5Y 4524   3.429   3.408  10.224  0.3944 -1.0607 -0.8759
   59SAPC   C36 4525   3.262   3.302  10.135 -0.9196  0.4103 -0.3161
   59SAPC   H6X 4526   3.200   3.393  10.122  0.9346  1.6976 -0.4409
   59SAPC   H6Y 4527   3.197   3.214  10.155  0.8810 -1.9878 -3.9573
   59SAPC   C37 4528   3.341   3.271  10.008  0.0903  0.2294 -0.5944
   59SAPC   H7X 4529   3.405   3.180  10.011 -2.0558 -1.3440  1.1291
   59SAPC   H7Y 4530   3.409   3.356   9.989 -1.4332  1.3985 -1.0259
   59SAPC   C38 4531   3.264   3.275   9.873  0.6474 -0.0714  0.0266
   59SAPC   H8X 4532   3.207   3.369   9.856  1.0011 -0.0809 -1.4272
   59SAPC   H8Y 4533   3.199   3.186   9.887  2.2514 -1.3961 -0.5705
   59SAPC   C39 4534   3.358   3.258   9.747  0.2797  0.0773 -0.8135
   59SAPC   H9X 4535   3.425   3.170   9.755  1.1857  0.9720  3.5194
   59SAPC   H9Y 4536   3.421   3.349   9.746 -0.8800  0.9107 -1.6504
   59SAPC  C310 4537   3.276   3.241   9.616 -0.2052 -0.2246  0.2057
   59SAPC  H10X 4538   3.231   3.339   9.590 -2.5372 -0.9377  1.2791
   59SAPC  H10Y 4539   3.192   3.169   9.618  0.5031 -1.0685  0.5621
   59SAPC  C311 4540   3.354   3.197   9.497  0.1098  0.9465 -0.5478
   59SAPC  H11X 4541   3.376   3.090   9.515 -1.6623  0.4590 -1.0169
   59SAPC  H11Y 4542   3.449   3.255   9.493  0.3719  0.5394 -0.2545
   59SAPC  C312 4543   3.280   3.226   9.365 -0.3995  0.5886  0.5418
   59SAPC  H12X 4544   3.272   3.336   9.358  0.3447  0.6938  1.2319
   59SAPC  H12Y 4545   3.182   3.174   9.359  0.6756 -1.4648 -0.3790
   59SAPC  C313 4546   3.367   3.195   9.242 -0.2323 -0.1371 -0.2270
   59SAPC  H13X 4547   3.399   3.088   9.238  0.2918 -0.0444  1.0623
   59SAPC  H13Y 4548   3.466   3.245   9.247 -1.0888  1.8002 -1.6111
   59SAPC  C314 4549   3.293   3.228   9.114 -0.4174  0.6969 -0.2044
   59SAPC  H14X 4550   3.264   3.335   9.105  3.3474  1.7909 -1.2253
   59SAPC  H14Y 4551   3.199   3.170   9.125 -0.9788  1.5491 -0.3767
   59SAPC  C315 4552   3.373   3.193   8.979  0.0743  0.8640 -0.3834
   59SAPC  H15X 4553   3.439   3.107   9.003 -2.0362 -1.0026 -0.9694
   59SAPC  H15Y 4554   3.439   3.279   8.955  0.7353 -0.5602 -4.4494
   59SAPC  C316 4555   3.283   3.173   8.857 -0.4482 -0.6900  0.4998
   59SAPC  H16X 4556   3.242   3.267   8.815  1.5393  0.6115  1.3009
   59SAPC  H16Y 4557   3.204   3.105   8.895 -2.8168  0.5313 -1.8471
   59SAPC  C317 4558   3.360   3.099   8.741  0.3919  0.3224  0.1199
   59SAPC  H17X 4559   3.413   3.011   8.783 -0.7650 -0.6302 -0.3576
   59SAPC  H17Y 4560   3.447   3.164   8.717  1.4497  0.0007  2.7866
   59SAPC  C318 4561   3.274   3.067   8.624  0.5489 -0.0378 -0.0682
   59SAPC  H18X 4562   3.184   3.004   8.646 -0.3054  0.4122 -2.0427
   59SAPC  H18Y 4563   3.338   3.025   8.543  0.2843 -1.3409  0.3679
   59SAPC  H18Z 4564   3.228   3.160   8.584 -1.2399 -1.1797 -0.7886
   60SAPC     N 4565   4.561   1.495  11.016  0.7863  0.0750  0.0502
   60SAPC   C12 4566   4.595   1.382  10.913  0.5557  0.4880  0.4290
   60SAPC  H12A 4567   4.608   1.433  10.818  0.2386 -1.0062 -0.4553
   60SAPC  H12B 4568   4.507   1.323  10.894  2.0494 -1.6193 -0.2511
   60SAPC   C13 4569   4.661   1.597  11.030 -0.1868 -0.1170  0.1929
   60SAPC  H13A 4570   4.693   1.635  10.934  0.6624  2.4941  1.4109
   60SAPC  H13B 4571   4.622   1.682  11.083  0.8429  0.1423  0.5527
   60SAPC  H13C 4572   4.746   1.563  11.087 -2.0854 -1.2333  2.5695
   60SAPC   C14 4573   4.429   1.550  10.964  0.7358 -0.0299 -0.6366
   60SAPC  H14A 4574   4.398   1.634  11.024  2.8496  1.0743 -1.0007
   60SAPC  H14B 4575   4.428   1.586  10.862 -1.0522 -1.2508 -1.1159
   60SAPC  H14C 4576   4.354   1.472  10.970  0.4236  0.3566  0.7184
   60SAPC   C15 4577   4.539   1.443  11.142  0.5441  0.0842 -0.8290
   60SAPC  H15A 4578   4.617   1.391  11.196 -1.5795 -1.7093  0.7043
   60SAPC  H15B 4579   4.506   1.513  11.218 -1.5921 -3.6352  2.0180
   60SAPC  H15C 4580   4.454   1.376  11.143  0.9273 -0.4332  0.9085
   60SAPC   C11 4581   4.718   1.300  10.932  0.3333 -0.2774  0.3160
   60SAPC  H11A 4582   4.710   1.202  10.880 -2.5294  0.0634 -0.0702
   60SAPC  H11B 4583   4.719   1.267  11.038  1.5232  0.8106  0.6608
   60SAPC     P 4584   4.866   1.398  10.741  0.2635  0.0404  0.1153
   60SAPC   O13 4585   4.776   1.501  10.679  0.1374 -0.7436  0.8751
   60SAPC   O14 4586   5.004   1.427  10.722 -0.0537  0.0039  0.0072
   60SAPC   O12 4587   4.829   1.374  10.893  0.2645 -0.4060 -0.0352
   60SAPC   O11 4588   4.829   1.262  10.675  0.3407  0.5314  0.3474
   60SAPC    C1 4589   4.906   1.138  10.687 -0.0528 -0.4824 -0.9173
   60SAPC    HA 4590   4.973   1.146  10.775  1.0969  3.0438 -1.9614
   60SAPC    HB 4591   4.845   1.045  10.694  1.3995 -1.4217 -0.2457
   60SAPC    C2 4592   4.996   1.106  10.560 -0.3743 -0.2655  0.0977
   60SAPC    HS 4593   5.056   1.196  10.536  0.9034 -0.6087  1.8301
   60SAPC   O21 4594   4.919   1.066  10.444  0.3280 -0.7475  0.3581
   60SAPC   C21 4595   4.882   1.165  10.367  0.0887  0.3066  0.5017
   60SAPC   O22 4596   4.919   1.280  10.374 -0.1399 -0.0257 -0.6067
   60SAPC   C22 4597   4.793   1.126  10.256  0.6416  0.0687 -0.3221
   60SAPC   H2R 4598   4.837   1.115  10.155 -1.0884  2.5754 -1.4577
   60SAPC   H2S 4599   4.752   1.028  10.289  0.2948  0.1924 -0.3828
   60SAPC    C3 4600   5.101   0.996  10.584  0.0719  0.7378 -0.2894
   60SAPC    HX 4601   5.046   0.900  10.581  1.2568  0.0579 -1.3064
   60SAPC    HY 4602   5.145   1.016  10.684 -1.1480 -0.8060  0.5907
   60SAPC   O31 4603   5.207   0.987  10.484 -0.1223  0.5201 -0.0443
   60SAPC   C31 4604   5.322   1.047  10.499 -0.3565  0.1106 -0.1659
   60SAPC   O32 4605   5.351   1.118  10.595  0.0118  0.2268 -0.2359
   60SAPC   C32 4606   5.419   1.003  10.389  0.7331  0.0666  0.3389
   60SAPC   H2X 4607   5.521   0.994  10.431  1.1153 -2.0690 -0.9040
   60SAPC   H2Y 4608   5.423   1.089  10.318  1.8998  0.8492  1.3231
   60SAPC   C23 4609   4.686   1.241  10.234 -0.4932 -0.7713 -0.2667
   60SAPC   H3R 4610   4.751   1.327  10.205 -1.5420  0.1712  0.0931
   60SAPC   H3S 4611   4.647   1.256  10.337  0.9862  1.3242  0.0657
   60SAPC   C24 4612   4.575   1.213  10.134  0.0526 -0.1160 -0.7743
   60SAPC   H4R 4613   4.522   1.115  10.142  1.4094 -0.8401 -0.3640
   60SAPC   H4S 4614   4.634   1.194  10.042 -0.4402  1.0567 -1.3518
   60SAPC   C25 4615   4.488   1.331  10.116 -0.2353  0.7718 -0.4673
   60SAPC   H5R 4616   4.466   1.367  10.218 -0.9344 -4.0290  1.3353
   60SAPC   C26 4617   4.439   1.384   9.997  0.4269 -0.0254  0.9609
   60SAPC   H6R 4618   4.370   1.470  10.002 -1.6672 -1.4347 -1.3223
   60SAPC   C27 4619   4.469   1.306   9.859 -0.4110 -0.7441 -0.7544
   60SAPC   H7R 4620   4.578   1.314   9.839 -0.5316  3.1834 -0.6500
   60SAPC   H7S 4621   4.420   1.367   9.780 -1.9970 -0.1451  0.6220
   60SAPC   C28 4622   4.422   1.158   9.865  0.1460  0.4332  0.2004
   60SAPC   H8R 4623   4.433   1.098   9.956  0.9667 -2.8867 -1.9116
   60SAPC   C29 4624   4.345   1.085   9.782 -0.4362 -0.1979  0.5605
   60SAPC   H9R 4625   4.312   0.983   9.809  1.4740 -1.0292 -0.0825
   60SAPC  C210 4626   4.291   1.138   9.654 -0.4711  0.0471  0.4187
   60SAPC  H10R 4627   4.365   1.111   9.575 -0.0342  2.5311 -0.0993
   60SAPC  H10S 4628   4.299   1.248   9.653  2.9030 -0.0585  1.6701
   60SAPC  C211 4629   4.150   1.092   9.619 -0.1275  0.3816  0.4175
   60SAPC  H11R 4630   4.075   1.120   9.695  0.4260  1.4165  0.5996
   60SAPC  C212 4631   4.123   1.029   9.503  0.0237  0.5258  0.3951
   60SAPC  H12R 4632   4.018   1.011   9.476 -0.1365  2.4274 -0.3763
   60SAPC  C213 4633   4.214   0.994   9.393  0.0566  0.0862 -0.2612
   60SAPC  H13R 4634   4.292   1.073   9.391  0.2770 -0.1264 -0.1202
   60SAPC  H13S 4635   4.158   1.000   9.298 -1.4486  1.6029  0.6553
   60SAPC  C214 4636   4.295   0.866   9.413  0.8803 -0.0105  0.4070
   60SAPC  H14R 4637   4.286   0.804   9.504  0.0529 -1.3572 -0.5607
   60SAPC  C215 4638   4.381   0.823   9.316  0.0742 -0.0390  0.6409
   60SAPC  H15R 4639   4.436   0.728   9.322  1.1591  0.6558  2.3894
   60SAPC  C216 4640   4.405   0.900   9.181 -0.3017  0.4114 -0.4474
   60SAPC  H16R 4641   4.513   0.897   9.155 -0.1984 -2.0836  0.0283
   60SAPC  H16S 4642   4.392   1.010   9.192  1.9932  0.4752  3.8143
   60SAPC  C217 4643   4.336   0.835   9.058 -0.4392 -0.3630  0.3364
   60SAPC  H17R 4644   4.239   0.787   9.085 -0.5714 -0.6224 -0.5622
   60SAPC  H17S 4645   4.411   0.757   9.033  0.4791  0.9624 -1.1876
   60SAPC  C218 4646   4.326   0.941   8.952 -0.1534 -0.1217 -0.4698
   60SAPC  H18R 4647   4.311   0.890   8.855  0.3688 -0.0610 -0.5846
   60SAPC  H18S 4648   4.417   1.003   8.950 -1.2836  1.5872 -1.2967
   60SAPC  C219 4649   4.205   1.034   8.969 -0.2159  0.0216 -0.1905
   60SAPC  H19R 4650   4.200   1.108   8.886 -0.3073  0.7339  0.4319
   60SAPC  H19S 4651   4.223   1.088   9.065  1.6325 -2.2190  0.8083
   60SAPC  C220 4652   4.067   0.972   8.978  0.0843  0.2203  0.5250
   60SAPC  H20R 4653   4.048   0.906   8.890 -0.7796  0.2408  0.6840
   60SAPC  H20S 4654   3.986   1.048   8.969  1.0657  1.2251 -0.1082
   60SAPC  H20T 4655   4.060   0.907   9.067  0.2397 -1.7837 -0.8619
   60SAPC   C33 4656   5.385   0.873  10.316  0.2699  0.3737  0.4093
   60SAPC   H3X 4657   5.278   0.864  10.288  0.2256 -2.8068  1.2327
   60SAPC   H3Y 4658   5.396   0.800  10.400  3.0818  2.0130  1.6177
   60SAPC   C34 4659   5.474   0.843  10.193  0.0960  0.2830 -0.1767
   60SAPC   H4X 4660   5.444   0.921  10.120  2.8386  0.8229 -0.8116
   60SAPC   H4Y 4661   5.441   0.756  10.132 -0.8579 -0.3343  1.1439
   60SAPC   C35 4662   5.614   0.840  10.226 -0.0101  0.2835  0.2887
   60SAPC   H5X 4663   5.635   0.733  10.246  1.5263  0.3007 -1.0087
   60SAPC   H5Y 4664   5.639   0.898  10.317  0.4364  1.1407 -0.3605
   60SAPC   C36 4665   5.710   0.875  10.107 -0.1493  0.6725 -0.6103
   60SAPC   H6X 4666   5.715   0.985  10.092  0.3431  0.4198 -2.5959
   60SAPC   H6Y 4667   5.661   0.846  10.011  2.2424  2.3019 -2.4640
   60SAPC   C37 4668   5.847   0.797  10.125 -0.0157 -0.0698 -0.0722
   60SAPC   H7X 4669   5.826   0.698  10.171  0.1442 -0.1182 -0.1014
   60SAPC   H7Y 4670   5.913   0.849  10.199  0.1832  2.7120 -2.0387
   60SAPC   C38 4671   5.927   0.782   9.996  0.1497  0.1207  0.7508
   60SAPC   H8X 4672   5.871   0.718   9.926 -1.2594  2.4809 -0.4048
   60SAPC   H8Y 4673   6.008   0.716  10.034 -2.8029 -3.6455  1.1029
   60SAPC   C39 4674   5.978   0.902   9.922  0.7448 -0.2647 -0.3685
   60SAPC   H9X 4675   6.052   0.954   9.987 -1.5655  2.2176  0.4862
   60SAPC   H9Y 4676   5.892   0.972   9.920 -0.5525 -1.5045  3.4187
   60SAPC  C310 4677   6.040   0.882   9.785  0.1654 -0.2432  0.8360
   60SAPC  H10X 4678   6.125   0.811   9.796  2.1924  2.2618  2.6748
   60SAPC  H10Y 4679   6.104   0.967   9.753 -0.4397  0.4758  1.4963
   60SAPC  C311 4680   5.938   0.851   9.671 -0.0799 -0.0563  0.0129
   60SAPC  H11X 4681   5.888   0.950   9.657 -2.2189 -0.7427  2.1004
   60SAPC  H11Y 4682   5.870   0.780   9.723  0.4902 -0.6770 -0.0827
   60SAPC  C312 4683   6.014   0.811   9.547 -0.4792  0.4463  0.4861
   60SAPC  H12X 4684   6.101   0.745   9.565 -0.5947  0.2765  0.4226
   60SAPC  H12Y 4685   6.054   0.905   9.504  4.5790 -1.3118  0.7631
   60SAPC  C313 4686   5.903   0.755   9.437 -0.1560 -0.6092  0.7442
   60SAPC  H13X 4687   5.819   0.828   9.439 -0.2625 -0.7394  1.0574
   60SAPC  H13Y 4688   5.871   0.655   9.472  2.0480 -2.2190 -1.4641
   60SAPC  C314 4689   5.968   0.742   9.294  0.4235  0.3371  0.3463
   60SAPC  H14X 4690   6.036   0.655   9.309  0.0602  0.1706  1.0366
   60SAPC  H14Y 4691   6.024   0.833   9.264 -0.5624  1.3187  1.4433
   60SAPC  C315 4692   5.876   0.689   9.182  0.5797 -0.1553  0.4712
   60SAPC  H15X 4693   5.795   0.764   9.168 -0.9607 -1.7949  0.2458
   60SAPC  H15Y 4694   5.836   0.588   9.205 -1.4099  1.1591  3.3122
   60SAPC  C316 4695   5.947   0.671   9.046  0.6524 -0.3262 -0.1147
   60SAPC  H16X 4696   6.044   0.619   9.060  1.1319 -0.5926 -3.5074
   60SAPC  H16Y 4697   5.979   0.773   9.015  0.0903  0.1275  0.7698
   60SAPC  C317 4698   5.860   0.597   8.941 -0.4395 -0.1892  0.9679
   60SAPC  H17X 4699   5.820   0.503   8.984  0.9335 -1.2590 -0.0355
   60SAPC  H17Y 4700   5.928   0.566   8.859 -1.1798 -0.3530  0.4028
   60SAPC  C318 4701   5.733   0.667   8.885 -0.4349  0.0107 -0.0725
   60SAPC  H18X 4702   5.663   0.595   8.837  0.3208 -0.5082 -0.4097
   60SAPC  H18Y 4703   5.764   0.750   8.818  1.7547 -1.0016 -0.4112
   60SAPC  H18Z 4704   5.674   0.715   8.966  0.4265  1.2891 -0.1747
   61SAPC     N 4705   5.836   6.320  10.918 -0.0970  0.0543 -0.4786
   61SAPC   C12 4706   5.732   6.305  11.038  0.0264 -0.2692 -0.0423
   61SAPC  H12A 4707   5.750   6.373  11.120 -1.7496 -0.0309  0.1836
   61SAPC  H12B 4708   5.728   6.203  11.074  0.5644 -0.0670  0.6365
   61SAPC   C13 4709   5.802   6.206  10.830 -0.2881 -0.1238 -0.1852
   61SAPC  H13A 4710   5.845   6.217  10.732  1.1871 -1.0118  0.3397
   61SAPC  H13B 4711   5.829   6.108  10.866  2.3195  0.3673 -0.6303
   61SAPC  H13C 4712   5.695   6.193  10.819 -0.5551  1.1867  0.6534
   61SAPC   C14 4713   5.818   6.454  10.847 -0.2342  0.4131  0.4749
   61SAPC  H14A 4714   5.876   6.447  10.757 -0.4507  0.1831  0.3513
   61SAPC  H14B 4715   5.713   6.464  10.826 -0.6642 -1.8376  1.2181
   61SAPC  H14C 4716   5.858   6.530  10.913  1.1895  1.0775 -1.0665
   61SAPC   C15 4717   5.969   6.306  10.968 -0.8762  0.3061 -0.3422
   61SAPC  H15A 4718   5.990   6.361  11.058  3.0928 -0.7503 -0.3868
   61SAPC  H15B 4719   5.986   6.205  11.002  0.1652  0.4769 -0.3223
   61SAPC  H15C 4720   6.048   6.336  10.900  0.6050 -0.0465  1.1438
   61SAPC   C11 4721   5.583   6.346  11.012  0.5927 -1.0876  0.1050
   61SAPC  H11A 4722   5.532   6.329  11.109  1.3258  1.1564  0.9481
   61SAPC  H11B 4723   5.533   6.279  10.939  2.4874  1.2527 -3.6552
   61SAPC     P 4724   5.424   6.531  10.917  0.2513 -0.3963  0.1098
   61SAPC   O13 4725   5.330   6.507  11.028  0.3419  0.0509 -0.3403
   61SAPC   O14 4726   5.441   6.672  10.868 -0.2258 -0.0556 -0.3530
   61SAPC   O12 4727   5.569   6.484  10.972  0.2183  0.2421 -0.4459
   61SAPC   O11 4728   5.390   6.430  10.796 -0.3427  0.7467 -0.6063
   61SAPC    C1 4729   5.479   6.392  10.692 -0.6617  0.2786 -0.3479
   61SAPC    HA 4730   5.578   6.358  10.730 -0.5702 -1.1937 -1.7881
   61SAPC    HB 4731   5.448   6.301  10.636  0.4800 -0.3163 -0.0379
   61SAPC    C2 4732   5.500   6.490  10.581  0.2097 -0.1387  0.0180
   61SAPC    HS 4733   5.531   6.587  10.625  2.3134  0.5977 -2.8173
   61SAPC   O21 4734   5.372   6.505  10.506 -0.1384 -0.5431  0.1851
   61SAPC   C21 4735   5.352   6.629  10.461 -0.4461  0.2819 -0.4354
   61SAPC   O22 4736   5.413   6.729  10.489 -0.1129  0.2109 -0.1712
   61SAPC   C22 4737   5.231   6.638  10.371  0.4868 -0.3305 -0.4524
   61SAPC   H2R 4738   5.254   6.600  10.269 -3.2777 -0.9374 -1.2256
   61SAPC   H2S 4739   5.149   6.579  10.417 -0.9467  3.0644  1.7272
   61SAPC    C3 4740   5.621   6.437  10.489  0.2436 -0.1876 -0.0032
   61SAPC    HX 4741   5.587   6.343  10.441  0.4300  0.1059 -0.7231
   61SAPC    HY 4742   5.709   6.402  10.547  0.3233 -1.1379 -0.6768
   61SAPC   O31 4743   5.651   6.522  10.374  0.5436  0.3764  0.2198
   61SAPC   C31 4744   5.723   6.630  10.387  0.4623 -0.0878 -0.3818
   61SAPC   O32 4745   5.799   6.657  10.483  0.0368  0.0847 -0.1337
   61SAPC   C32 4746   5.712   6.708  10.253  0.0116  0.1530 -0.0786
   61SAPC   H2X 4747   5.704   6.814  10.289  1.8811 -0.1435  1.3754
   61SAPC   H2Y 4748   5.615   6.688  10.203 -0.1467 -0.9767  0.6519
   61SAPC   C23 4749   5.176   6.785  10.352 -0.5830  0.5208 -0.6232
   61SAPC   H3R 4750   5.262   6.853  10.341  0.1647 -0.0323  1.3470
   61SAPC   H3S 4751   5.133   6.809  10.452 -2.5260  0.4551 -1.4049
   61SAPC   C24 4752   5.070   6.804  10.249  0.4115 -0.1850  0.2228
   61SAPC   H4R 4753   4.983   6.740  10.276 -0.4278  1.5745  1.8745
   61SAPC   H4S 4754   5.112   6.773  10.150  0.4201  0.1462  0.1233
   61SAPC   C25 4755   5.020   6.944  10.254 -0.5946  0.3109  0.4479
   61SAPC   H5R 4756   5.050   7.006  10.340 -1.7298  1.8228 -0.1977
   61SAPC   C26 4757   4.928   6.999  10.171 -0.2018 -0.0160 -0.6106
   61SAPC   H6R 4758   4.892   7.097  10.203  0.4832 -0.1873  0.7930
   61SAPC   C27 4759   4.854   6.923  10.064 -0.0612 -0.7291 -0.0399
   61SAPC   H7R 4760   4.756   6.966  10.037  0.3902 -0.1383 -0.7871
   61SAPC   H7S 4761   4.823   6.819  10.088 -0.9710 -0.6061 -0.6332
   61SAPC   C28 4762   4.939   6.908   9.939  0.3655 -0.1344  0.0749
   61SAPC   H8R 4763   4.989   6.811   9.935 -1.0977 -0.8942 -1.3237
   61SAPC   C29 4764   4.943   6.991   9.837 -0.6658 -0.0131  0.1162
   61SAPC   H9R 4765   5.001   6.961   9.748 -0.8898 -0.7281  0.1991
   61SAPC  C210 4766   4.874   7.124   9.826  0.3389 -0.0584  0.0490
   61SAPC  H10R 4767   4.937   7.187   9.760 -1.6311  0.7434 -1.1576
   61SAPC  H10S 4768   4.867   7.173   9.926 -0.0929  0.8414 -0.4078
   61SAPC  C211 4769   4.737   7.116   9.753 -0.1169  0.0434 -0.4345
   61SAPC  H11R 4770   4.681   7.028   9.787 -0.8826  0.5252 -0.4319
   61SAPC  C212 4771   4.689   7.207   9.662  0.3903  0.5487 -0.7057
   61SAPC  H12R 4772   4.588   7.192   9.620  0.4199 -1.7278 -0.0651
   61SAPC  C213 4773   4.760   7.331   9.615  0.2273 -0.0737  0.1280
   61SAPC  H13R 4774   4.868   7.345   9.637  0.2453 -1.5116  1.0692
   61SAPC  H13S 4775   4.712   7.418   9.665  1.7331  0.1085  1.3656
   61SAPC  C214 4776   4.735   7.354   9.471  0.3341  0.2553  0.1971
   61SAPC  H14R 4777   4.684   7.450   9.453 -1.6479 -0.7707  0.1413
   61SAPC  C215 4778   4.749   7.271   9.369 -0.5581  0.1927  0.9875
   61SAPC  H15R 4779   4.714   7.315   9.275  1.2304 -0.7615 -0.1755
   61SAPC  C216 4780   4.813   7.129   9.370 -0.6815 -0.6643 -0.4182
   61SAPC  H16R 4781   4.731   7.054   9.373  0.4161 -1.8827  1.4096
   61SAPC  H16S 4782   4.862   7.101   9.466  2.8575  2.0789 -1.2176
   61SAPC  C217 4783   4.909   7.097   9.258 -1.1223 -0.2874  0.5169
   61SAPC  H17R 4784   4.973   7.007   9.263  0.8077  1.0246  0.3710
   61SAPC  H17S 4785   4.980   7.182   9.250 -0.9696 -0.4332  0.3402
   61SAPC  C218 4786   4.840   7.090   9.123  0.1977  0.5030 -0.4888
   61SAPC  H18R 4787   4.781   7.183   9.109 -1.4530 -0.4905 -0.4315
   61SAPC  H18S 4788   4.769   7.005   9.123  3.1753 -2.3587  3.4817
   61SAPC  C219 4789   4.942   7.067   9.015  0.5152  0.7870 -0.2720
   61SAPC  H19R 4790   4.986   6.966   9.025  2.0504  1.3821 -0.6761
   61SAPC  H19S 4791   5.034   7.124   9.039  0.2472 -0.3603  4.2810
   61SAPC  C220 4792   4.894   7.078   8.868  0.2055  0.2814 -0.3088
   61SAPC  H20R 4793   4.872   7.185   8.848 -3.6535 -0.3285 -0.0324
   61SAPC  H20S 4794   4.798   7.024   8.856  0.4530 -0.1554 -0.3457
   61SAPC  H20T 4795   4.962   7.030   8.795  1.1092 -1.2514  1.4564
   61SAPC   C33 4796   5.834   6.682  10.162  0.6255  0.0980 -0.2894
   61SAPC   H3X 4797   5.840   6.577  10.128  3.8015  0.9323 -2.7270
   61SAPC   H3Y 4798   5.925   6.698  10.224  0.6362 -1.3488  0.0897
   61SAPC   C34 4799   5.828   6.776  10.039 -0.4013  0.0761 -0.3956
   61SAPC   H4X 4800   5.936   6.787  10.015 -0.0640  0.4231  1.1910
   61SAPC   H4Y 4801   5.790   6.872  10.080 -1.6105 -0.9002  0.8987
   61SAPC   C35 4802   5.734   6.744   9.916  0.3069 -0.3896 -0.1254
   61SAPC   H5X 4803   5.633   6.740   9.962 -0.1156  4.0933 -0.2771
   61SAPC   H5Y 4804   5.758   6.648   9.866 -1.0604 -0.9538  0.2484
   61SAPC   C36 4805   5.740   6.853   9.807  0.1552  0.3440 -0.1111
   61SAPC   H6X 4806   5.843   6.852   9.765 -0.0342 -0.9461 -0.5812
   61SAPC   H6Y 4807   5.706   6.952   9.844 -0.7860 -0.0841  0.2012
   61SAPC   C37 4808   5.664   6.810   9.678 -0.1552 -0.2815  0.0903
   61SAPC   H7X 4809   5.566   6.767   9.706  0.1374  0.0338  1.6913
   61SAPC   H7Y 4810   5.717   6.717   9.647 -1.0077 -0.8267  0.2485
   61SAPC   C38 4811   5.664   6.915   9.566  0.0043 -0.0519 -0.3778
   61SAPC   H8X 4812   5.766   6.961   9.561  0.6981 -1.5738 -4.2696
   61SAPC   H8Y 4813   5.589   6.992   9.591 -0.2596 -0.5493  0.3783
   61SAPC   C39 4814   5.631   6.856   9.427 -0.8432  0.3374 -0.6157
   61SAPC   H9X 4815   5.524   6.828   9.417  0.1146 -4.0140 -0.8806
   61SAPC   H9Y 4816   5.692   6.763   9.422 -0.8429  0.1562  1.5890
   61SAPC  C310 4817   5.674   6.948   9.317 -0.4050  0.1097 -0.6501
   61SAPC  H10X 4818   5.785   6.953   9.324 -0.4368 -0.8241  0.7945
   61SAPC  H10Y 4819   5.630   7.048   9.338 -0.8382 -0.2765  0.3098
   61SAPC  C311 4820   5.643   6.903   9.181  0.3423  0.4696 -0.0908
   61SAPC  H11X 4821   5.535   6.887   9.161  0.3671 -0.7379  0.6402
   61SAPC  H11Y 4822   5.670   6.797   9.164 -2.2140  0.2024 -3.2946
   61SAPC  C312 4823   5.716   6.985   9.067 -0.0395 -0.1474 -0.1349
   61SAPC  H12X 4824   5.825   6.976   9.087 -0.2688 -0.0315  1.2719
   61SAPC  H12Y 4825   5.682   7.090   9.072  3.5959  1.1532  0.4761
   61SAPC  C313 4826   5.698   6.923   8.934  0.0037 -0.1931  0.2100
   61SAPC  H13X 4827   5.590   6.941   8.915  0.0812 -2.1355 -2.7287
   61SAPC  H13Y 4828   5.723   6.817   8.957 -0.7572  0.1196  2.8051
   61SAPC  C314 4829   5.783   6.987   8.826  0.2861 -0.5307  0.3595
   61SAPC  H14X 4830   5.891   6.991   8.852  0.2266  1.5574  0.4226
   61SAPC  H14Y 4831   5.749   7.092   8.815  2.2277  0.1457  0.3272
   61SAPC  C315 4832   5.760   6.925   8.688  0.0051  0.0235 -0.4334
   61SAPC  H15X 4833   5.680   6.983   8.637  0.5766  1.6107  0.4042
   61SAPC  H15Y 4834   5.748   6.815   8.694 -4.2616  0.2884 -1.2022
   61SAPC  C316 4835   5.893   6.941   8.603 -0.4388 -0.7599  0.2337
   61SAPC  H16X 4836   5.980   6.884   8.643 -0.2601  0.2773  1.3981
   61SAPC  H16Y 4837   5.921   7.047   8.622 -3.2264 -0.1556  1.5177
   61SAPC  C317 4838   5.877   6.922   8.452 -1.2333  0.2213 -0.0166
   61SAPC  H17X 4839   5.966   6.934   8.388 -2.2474 -0.7565 -1.6782
   61SAPC  H17Y 4840   5.800   6.990   8.411 -0.5894  0.5104 -0.7515
   61SAPC  C318 4841   5.831   6.777   8.438 -0.6210 -0.6181  0.3685
   61SAPC  H18X 4842   5.910   6.702   8.459 -0.2572 -0.0569  1.0462
   61SAPC  H18Y 4843   5.791   6.760   8.336 -0.2861  0.1519  0.1010
   61SAPC  H18Z 4844   5.747   6.749   8.505 -1.4674  1.3364  0.2087
   62SAPC     N 4845   2.379   6.291  10.813  0.5187 -0.8182  0.2948
   62SAPC   C12 4846   2.486   6.352  10.900  0.9844  0.7088 -0.8128
   62SAPC  H12A 4847   2.512   6.272  10.967 -2.6889 -0.2887 -0.3349
   62SAPC  H12B 4848   2.443   6.425  10.966  1.7396 -1.7716  2.6809
   62SAPC   C13 4849   2.354   6.397  10.705 -0.9333 -0.8123 -0.1989
   62SAPC  H13A 4850   2.324   6.488  10.754 -1.9818 -0.1461 -1.9700
   62SAPC  H13B 4851   2.444   6.425  10.654 -0.9910  0.8730  0.5687
   62SAPC  H13C 4852   2.275   6.371  10.635 -0.4224 -1.4981 -0.5346
   62SAPC   C14 4853   2.418   6.166  10.749  0.0477 -0.2924 -0.1630
   62SAPC  H14A 4854   2.353   6.155  10.664 -2.1377  0.8995  1.2527
   62SAPC  H14B 4855   2.518   6.164  10.708 -0.3546  1.4233 -1.3644
   62SAPC  H14C 4856   2.395   6.079  10.809 -1.3214 -0.1146 -0.4009
   62SAPC   C15 4857   2.257   6.274  10.890  0.4481 -0.4547 -0.3724
   62SAPC  H15A 4858   2.169   6.283  10.828  0.5360  0.4895 -0.3696
   62SAPC  H15B 4859   2.242   6.181  10.943 -1.7099  1.4016  2.5544
   62SAPC  H15C 4860   2.250   6.344  10.972 -1.3301 -1.3188  0.2707
   62SAPC   C11 4861   2.613   6.402  10.825  0.5794 -0.4364  0.1590
   62SAPC  H11A 4862   2.661   6.333  10.752 -0.0042 -0.2144 -0.4435
   62SAPC  H11B 4863   2.686   6.420  10.907  0.4096 -0.1077  0.2391
   62SAPC     P 4864   2.709   6.603  10.682 -0.0089 -0.0147 -0.1282
   62SAPC   O13 4865   2.643   6.715  10.608 -0.1356 -0.3860  0.2463
   62SAPC   O14 4866   2.822   6.640  10.771 -0.4078 -0.1316  0.7663
   62SAPC   O12 4867   2.586   6.524  10.760  0.1751  0.2008  0.1843
   62SAPC   O11 4868   2.753   6.500  10.574 -0.0216  1.1025 -0.0299
   62SAPC    C1 4869   2.893   6.510  10.526  1.1985  0.2856  0.0499
   62SAPC    HA 4870   2.943   6.600  10.566 -0.7799  1.8917 -0.8984
   62SAPC    HB 4871   2.938   6.412  10.554 -0.3170 -0.5391 -0.2898
   62SAPC    C2 4872   2.896   6.522  10.379  0.5042  0.0899 -0.1343
   62SAPC    HS 4873   2.880   6.630  10.358  1.3252  0.1323 -0.5738
   62SAPC   O21 4874   2.795   6.435  10.321  0.6127 -0.5667 -0.6987
   62SAPC   C21 4875   2.734   6.489  10.216  0.1664 -1.3848  0.8883
   62SAPC   O22 4876   2.724   6.607  10.193  0.0354  1.2084  0.1350
   62SAPC   C22 4877   2.678   6.374  10.121  0.1395  0.4058 -0.0838
   62SAPC   H2R 4878   2.768   6.329  10.075  1.8564  3.5894 -0.1165
   62SAPC   H2S 4879   2.620   6.303  10.183 -1.6481  2.2949  0.5133
   62SAPC    C3 4880   3.032   6.494  10.309  0.0405  0.4669  0.1453
   62SAPC    HX 4881   3.067   6.388  10.312  2.1695  0.9457 -2.9548
   62SAPC    HY 4882   3.104   6.551  10.372 -0.2677 -0.9634  1.8890
   62SAPC   O31 4883   3.033   6.544  10.175 -0.1849  0.3002 -0.0719
   62SAPC   C31 4884   3.027   6.456  10.084 -0.5276  0.1926  0.2957
   62SAPC   O32 4885   3.014   6.333  10.093  0.5820 -0.0124  0.0318
   62SAPC   C32 4886   3.037   6.521   9.944  0.2404 -0.3547 -0.1858
   62SAPC   H2X 4887   3.146   6.524   9.920  0.1986 -2.3270 -0.8006
   62SAPC   H2Y 4888   2.999   6.625   9.943  0.5570 -0.2369 -0.5385
   62SAPC   C23 4889   2.586   6.418  10.004  0.5996  0.2859  0.6632
   62SAPC   H3R 4890   2.631   6.498   9.941  0.3117  0.5820  0.8274
   62SAPC   H3S 4891   2.499   6.477  10.040  0.8317  1.0607 -0.0149
   62SAPC   C24 4892   2.550   6.300   9.909 -0.0284 -1.1897  0.8632
   62SAPC   H4R 4893   2.503   6.226   9.977 -0.2426 -1.8624 -0.0058
   62SAPC   H4S 4894   2.645   6.256   9.874  1.2195  2.0437 -0.2553
   62SAPC   C25 4895   2.456   6.348   9.799 -0.6595  0.6364  0.3612
   62SAPC   H5R 4896   2.380   6.420   9.835 -0.1939  0.5370  1.5832
   62SAPC   C26 4897   2.466   6.330   9.667 -0.8669 -0.4843 -0.1312
   62SAPC   H6R 4898   2.389   6.371   9.600  0.6234  1.0705 -0.9591
   62SAPC   C27 4899   2.568   6.252   9.583  0.1619  0.7322 -0.5678
   62SAPC   H7R 4900   2.648   6.230   9.657 -0.6684  2.4101  0.8999
   62SAPC   H7S 4901   2.605   6.311   9.496 -1.9012  1.0221 -1.3066
   62SAPC   C28 4902   2.502   6.130   9.534  0.4769  1.3612  0.1069
   62SAPC   H8R 4903   2.502   6.037   9.592 -1.4760 -0.1895 -2.1783
   62SAPC   C29 4904   2.425   6.121   9.423 -0.1575 -0.6018  0.2839
   62SAPC   H9R 4905   2.373   6.026   9.403 -0.2939 -0.9261  2.0612
   62SAPC  C210 4906   2.404   6.246   9.335 -0.5636  0.0686  0.8129
   62SAPC  H10R 4907   2.451   6.225   9.237  1.0011 -0.8824  1.7245
   62SAPC  H10S 4908   2.451   6.343   9.362 -1.6870  1.2519 -1.2185
   62SAPC  C211 4909   2.255   6.264   9.318 -0.0467 -0.0098 -0.1279
   62SAPC  H11R 4910   2.188   6.218   9.391  1.0879 -4.4276 -1.5750
   62SAPC  C212 4911   2.196   6.317   9.207  0.4332  0.4103  0.0444
   62SAPC  H12R 4912   2.087   6.330   9.214  0.1676 -1.3958 -0.1758
   62SAPC  C213 4913   2.275   6.362   9.080  0.1493 -0.1357  0.4510
   62SAPC  H13R 4914   2.238   6.297   8.998 -1.8472 -0.0826  1.2474
   62SAPC  H13S 4915   2.386   6.363   9.074  0.1885  1.2452  0.9688
   62SAPC  C214 4916   2.241   6.502   9.067  0.1800 -0.6612  0.3562
   62SAPC  H14R 4917   2.264   6.567   9.153  1.0132  1.4152 -1.3253
   62SAPC  C215 4918   2.176   6.564   8.959  0.0484  0.9227 -1.1192
   62SAPC  H15R 4919   2.145   6.669   8.972 -1.2163  0.7442 -2.4068
   62SAPC  C216 4920   2.115   6.496   8.835  0.2130 -0.0485 -0.7262
   62SAPC  H16R 4921   2.025   6.555   8.808 -0.3060 -0.0154  0.9517
   62SAPC  H16S 4922   2.076   6.393   8.853 -1.5462  0.6809 -0.1300
   62SAPC  C217 4923   2.203   6.484   8.707 -0.4832 -0.4579 -0.1009
   62SAPC  H17R 4924   2.292   6.428   8.743  0.2272  0.0698 -1.0064
   62SAPC  H17S 4925   2.222   6.584   8.665 -0.5474 -0.3165  0.2021
   62SAPC  C218 4926   2.141   6.385   8.609  0.5951  0.2408  0.3526
   62SAPC  H18R 4927   2.055   6.432   8.556  0.1731 -1.7209 -0.8113
   62SAPC  H18S 4928   2.100   6.300   8.669 -3.3819  1.7967  0.1190
   62SAPC  C219 4929   2.242   6.334   8.499  0.0563  0.2914  0.6179
   62SAPC  H19R 4930   2.334   6.302   8.553  1.2686  0.8275 -1.0432
   62SAPC  H19S 4931   2.281   6.416   8.434  1.1799 -1.6125 -1.2372
   62SAPC  C220 4932   2.181   6.221   8.411 -0.2313 -0.0870 -0.4439
   62SAPC  H20R 4933   2.256   6.181   8.339 -1.1918 -0.2304 -1.3817
   62SAPC  H20S 4934   2.096   6.254   8.348  0.4147 -1.0239 -1.8500
   62SAPC  H20T 4935   2.153   6.139   8.481 -0.3782  1.0999  0.9521
   62SAPC   C33 4936   2.981   6.422   9.835 -0.2002 -0.7732 -0.0171
   62SAPC   H3X 4937   2.878   6.390   9.861  0.4243 -2.4498  0.4930
   62SAPC   H3Y 4938   3.050   6.335   9.841  2.2745  1.1491  1.5187
   62SAPC   C34 4939   2.987   6.480   9.695  0.6200 -1.0715 -0.5363
   62SAPC   H4X 4940   3.086   6.531   9.685 -0.9246  2.6113  0.9954
   62SAPC   H4Y 4941   2.915   6.565   9.698  2.6211  0.6931  1.2474
   62SAPC   C35 4942   2.958   6.386   9.584 -0.7258  0.3951 -0.4216
   62SAPC   H5X 4943   2.850   6.362   9.580 -0.7931  0.7828 -0.9099
   62SAPC   H5Y 4944   3.009   6.287   9.596  0.4821  0.7919 -1.8871
   62SAPC   C36 4945   3.005   6.437   9.447  0.1775  0.3204 -0.3112
   62SAPC   H6X 4946   3.115   6.455   9.451  0.1608  0.2856  0.6578
   62SAPC   H6Y 4947   2.952   6.529   9.415  0.4964 -0.1403 -2.2765
   62SAPC   C37 4948   2.984   6.334   9.335  0.3166  0.1129 -0.0327
   62SAPC   H7X 4949   3.012   6.236   9.379  1.4579 -0.1534 -1.3220
   62SAPC   H7Y 4950   3.055   6.349   9.251  1.9011  1.1469  1.4222
   62SAPC   C38 4951   2.835   6.313   9.278 -0.3383 -0.2862 -0.2155
   62SAPC   H8X 4952   2.805   6.408   9.229 -0.3640  1.2128  2.4916
   62SAPC   H8Y 4953   2.772   6.301   9.370 -0.1855  0.8117  0.0439
   62SAPC   C39 4954   2.821   6.197   9.175  0.1586  0.1140 -0.1232
   62SAPC   H9X 4955   2.712   6.198   9.157 -0.1577 -0.3751  1.5421
   62SAPC   H9Y 4956   2.842   6.096   9.217 -2.9607 -0.3844  0.4486
   62SAPC  C310 4957   2.901   6.217   9.045  1.3681  0.1673 -0.2389
   62SAPC  H10X 4958   3.007   6.251   9.045  0.8524  1.8929  0.6840
   62SAPC  H10Y 4959   2.840   6.290   8.988 -0.3295 -0.6609  0.4642
   62SAPC  C311 4960   2.882   6.083   8.969 -0.1072  0.3938  0.3055
   62SAPC  H11X 4961   2.774   6.056   8.975 -0.8870  3.4110  1.7880
   62SAPC  H11Y 4962   2.940   6.001   9.016 -0.6053 -0.0009  0.2404
   62SAPC  C312 4963   2.917   6.095   8.824 -0.2910  0.0714 -0.3591
   62SAPC  H12X 4964   3.017   6.135   8.799 -0.3136 -1.4024 -3.2159
   62SAPC  H12Y 4965   2.851   6.171   8.776  0.1256  1.5102  1.2473
   62SAPC  C313 4966   2.914   5.959   8.753  0.0477  0.1630 -0.1278
   62SAPC  H13X 4967   2.960   5.880   8.816  0.9794  1.1302  0.4116
   62SAPC  H13Y 4968   2.986   5.961   8.668  0.5547  1.0669  0.3080
   62SAPC  C314 4969   2.785   5.902   8.693 -0.5072 -1.0075 -0.0602
   62SAPC  H14X 4970   2.760   5.954   8.598  0.8532 -0.5502 -0.1822
   62SAPC  H14Y 4971   2.703   5.930   8.762 -2.9710 -0.3789 -3.0033
   62SAPC  C315 4972   2.799   5.749   8.682 -0.1467 -0.5576  0.1881
   62SAPC  H15X 4973   2.817   5.702   8.781 -1.5098 -0.9490  0.2663
   62SAPC  H15Y 4974   2.890   5.710   8.632  0.7503  0.0032  1.3447
   62SAPC  C316 4975   2.681   5.694   8.605  0.3357  0.1423 -0.4036
   62SAPC  H16X 4976   2.694   5.744   8.507 -2.8817 -0.2453 -1.1370
   62SAPC  H16Y 4977   2.585   5.739   8.639  1.3820  2.6472 -0.5623
   62SAPC  C317 4978   2.652   5.545   8.600 -1.1928  0.1312  0.0831
   62SAPC  H17X 4979   2.739   5.507   8.542 -0.4599 -0.9961  1.8399
   62SAPC  H17Y 4980   2.561   5.532   8.537 -0.9119  1.6148 -0.6671
   62SAPC  C318 4981   2.649   5.472   8.736  0.0722  0.9103 -0.3722
   62SAPC  H18X 4982   2.637   5.363   8.720  2.0879  0.6257 -0.1568
   62SAPC  H18Y 4983   2.567   5.518   8.795  2.2431  2.6854  1.4479
   62SAPC  H18Z 4984   2.743   5.489   8.791 -0.2997  1.5422  0.0798
   63SAPC     N 4985   2.129   5.556   6.143  0.2418 -0.1746 -0.0104
   63SAPC   C12 4986   2.160   5.482   6.273  0.2549 -0.4928  0.3221
   63SAPC  H12A 4987   2.248   5.528   6.315  0.9230  0.8229 -2.2796
   63SAPC  H12B 4988   2.189   5.379   6.255 -2.5761 -1.5986  1.4983
   63SAPC   C13 4989   2.246   5.566   6.055 -0.3603 -0.0259  0.3728
   63SAPC  H13A 4990   2.218   5.610   5.960  1.1984 -0.5339 -0.3732
   63SAPC  H13B 4991   2.319   5.619   6.114  1.1170 -0.4627 -0.9674
   63SAPC  H13C 4992   2.283   5.466   6.034 -0.9857 -0.1227 -0.3077
   63SAPC   C14 4993   2.020   5.483   6.062  0.5643 -0.3399  1.0232
   63SAPC  H14A 4994   2.024   5.375   6.060  0.0750 -0.3453 -0.5140
   63SAPC  H14B 4995   1.921   5.513   6.092  0.4903 -1.8300  2.4088
   63SAPC  H14C 4996   2.034   5.531   5.966 -1.6748  2.3273  1.8911
   63SAPC   C15 4997   2.082   5.699   6.165  0.8919  0.2638  0.3883
   63SAPC  H15A 4998   2.161   5.771   6.149 -0.3454  1.8226  1.0016
   63SAPC  H15B 4999   1.999   5.723   6.100  0.9943  0.3870  0.3029
   63SAPC  H15C 5000   2.043   5.703   6.266 -1.1010  0.9747 -0.3552
   63SAPC   C11 5001   2.041   5.459   6.369  0.5391 -0.6566 -0.4096
   63SAPC  H11A 5002   1.991   5.554   6.397 -0.5272 -1.3831  0.2536
   63SAPC  H11B 5003   2.074   5.426   6.470  3.0822  0.4423 -0.8050
   63SAPC     P 5004   1.919   5.236   6.352  0.1700 -0.0337 -0.5562
   63SAPC   O13 5005   1.807   5.168   6.288 -0.2352 -0.1059 -0.3594
   63SAPC   O14 5006   2.050   5.165   6.349  0.5681 -0.4420  0.1182
   63SAPC   O12 5007   1.938   5.383   6.306  0.2438 -0.0479  0.1617
   63SAPC   O11 5008   1.889   5.268   6.503  0.2782  0.1354 -0.1412
   63SAPC    C1 5009   1.779   5.345   6.558 -0.1457 -0.0516  1.2460
   63SAPC    HA 5010   1.706   5.372   6.479 -0.1974  1.4721  1.7746
   63SAPC    HB 5011   1.722   5.279   6.627  0.2125 -1.5964  0.1018
   63SAPC    C2 5012   1.813   5.477   6.631  0.0424  0.3144  0.0846
   63SAPC    HS 5013   1.840   5.556   6.557 -2.1097  3.3168  2.2630
   63SAPC   O21 5014   1.922   5.437   6.722 -0.5710 -0.3742  0.3665
   63SAPC   C21 5015   2.013   5.531   6.739 -0.2558 -1.1018 -0.1393
   63SAPC   O22 5016   2.011   5.648   6.695 -0.3278  0.1465  0.6565
   63SAPC   C22 5017   2.104   5.480   6.852 -0.0374  0.0890 -0.1257
   63SAPC   H2R 5018   2.043   5.484   6.945  0.3577 -2.0396  0.2795
   63SAPC   H2S 5019   2.121   5.371   6.837 -0.6142 -0.2744  1.6204
   63SAPC    C3 5020   1.690   5.523   6.717 -0.5139 -0.1248 -0.4591
   63SAPC    HX 5021   1.640   5.434   6.760  2.4455 -0.4961  2.5590
   63SAPC    HY 5022   1.615   5.563   6.645 -0.9224  0.0762  0.0724
   63SAPC   O31 5023   1.726   5.626   6.814 -0.4462 -0.5409 -0.2198
   63SAPC   C31 5024   1.724   5.746   6.768  0.6239 -0.7960  0.2464
   63SAPC   O32 5025   1.694   5.783   6.650  0.1682 -0.0874  0.1049
   63SAPC   C32 5026   1.762   5.839   6.881 -0.1868  0.1257 -0.0784
   63SAPC   H2X 5027   1.873   5.841   6.893 -0.1001 -2.6158  0.1643
   63SAPC   H2Y 5028   1.725   5.793   6.975 -2.1334  2.0096  0.1562
   63SAPC   C23 5029   2.248   5.544   6.874  0.4809  0.2511 -0.6537
   63SAPC   H3R 5030   2.248   5.627   6.947 -1.0457 -0.8630  0.7045
   63SAPC   H3S 5031   2.296   5.582   6.781  0.2793  1.4045 -0.2931
   63SAPC   C24 5032   2.341   5.436   6.937 -0.9817  0.1793 -1.0184
   63SAPC   H4R 5033   2.367   5.361   6.860 -0.2358  0.3723 -0.9653
   63SAPC   H4S 5034   2.286   5.371   7.008  0.3973 -0.6254 -0.6459
   63SAPC   C25 5035   2.464   5.503   7.010  0.3428 -0.4951  0.3787
   63SAPC   H5R 5036   2.531   5.562   6.946  1.4131 -1.0085  1.0013
   63SAPC   C26 5037   2.500   5.485   7.139 -0.2492 -0.6564  0.4819
   63SAPC   H6R 5038   2.585   5.549   7.166 -1.1199 -0.2575  2.4675
   63SAPC   C27 5039   2.442   5.408   7.254  0.4032 -0.0777 -0.4662
   63SAPC   H7R 5040   2.518   5.353   7.312 -0.9707 -1.1188  0.4307
   63SAPC   H7S 5041   2.361   5.336   7.228  0.7928  0.0450 -2.1301
   63SAPC   C28 5042   2.385   5.514   7.343  0.5659  0.0209 -0.1115
   63SAPC   H8R 5043   2.279   5.538   7.327  0.8217 -0.0356 -2.1513
   63SAPC   C29 5044   2.451   5.575   7.450  0.3754 -1.0120  0.5190
   63SAPC   H9R 5045   2.407   5.668   7.490  2.9582  0.6873 -0.3061
   63SAPC  C210 5046   2.599   5.545   7.483  0.2715  0.8247  0.8205
   63SAPC  H10R 5047   2.652   5.632   7.529  1.1880  1.2217 -0.8990
   63SAPC  H10S 5048   2.648   5.527   7.385  0.0935 -1.2442  1.0742
   63SAPC  C211 5049   2.639   5.423   7.563 -0.1026  0.4546  0.4622
   63SAPC  H11R 5050   2.565   5.342   7.556  0.5443  0.0182 -2.4363
   63SAPC  C212 5051   2.756   5.394   7.627 -0.6557 -0.4947 -0.5613
   63SAPC  H12R 5052   2.755   5.302   7.687  1.2193  0.7258  1.5207
   63SAPC  C213 5053   2.890   5.466   7.646  0.3398  0.4607 -0.3274
   63SAPC  H13R 5054   2.905   5.509   7.747  0.4077 -0.3436  0.0080
   63SAPC  H13S 5055   2.881   5.560   7.587 -1.5383  0.7756  0.3922
   63SAPC  C214 5056   3.018   5.389   7.608  0.0206  0.5253  0.1809
   63SAPC  H14R 5057   3.056   5.316   7.681 -1.0603  0.1999  0.4405
   63SAPC  C215 5058   3.085   5.395   7.488  0.2996 -0.8585  0.7851
   63SAPC  H15R 5059   3.188   5.355   7.484  1.2133  1.3129  1.1727
   63SAPC  C216 5060   3.041   5.477   7.369 -0.0329 -0.1439  0.9655
   63SAPC  H16R 5061   3.053   5.584   7.397  1.8555  0.3999 -1.5590
   63SAPC  H16S 5062   2.937   5.448   7.344  0.3699  0.6745 -2.0725
   63SAPC  C217 5063   3.117   5.435   7.247  0.8675  0.7560 -0.0898
   63SAPC  H17R 5064   3.108   5.326   7.227  0.3175  0.4051  1.8914
   63SAPC  H17S 5065   3.221   5.462   7.272  0.3522  1.8307  0.9762
   63SAPC  C218 5066   3.076   5.521   7.127  0.2687  0.0734 -0.1051
   63SAPC  H18R 5067   3.076   5.630   7.144  1.6187  0.4219 -2.0741
   63SAPC  H18S 5068   2.973   5.489   7.098  1.4314 -2.0031 -2.3715
   63SAPC  C219 5069   3.162   5.505   6.998 -0.5010  0.5772 -0.5123
   63SAPC  H19R 5070   3.261   5.546   7.028 -0.7771 -1.0376  3.1930
   63SAPC  H19S 5071   3.115   5.564   6.917  2.9682  2.8886 -1.0408
   63SAPC  C220 5072   3.192   5.359   6.952 -0.2133 -0.9370 -0.3953
   63SAPC  H20R 5073   3.264   5.313   7.023 -0.1247 -0.3710 -0.1156
   63SAPC  H20S 5074   3.245   5.348   6.855  1.0529 -0.4981  0.2334
   63SAPC  H20T 5075   3.104   5.291   6.952  0.0278 -1.3094 -2.2381
   63SAPC   C33 5076   1.716   5.987   6.866 -0.2156  0.0033 -0.1135
   63SAPC   H3X 5077   1.606   6.001   6.859 -0.3567 -1.6039 -1.8985
   63SAPC   H3Y 5078   1.762   6.024   6.772 -0.5342 -1.1077 -0.7169
   63SAPC   C34 5079   1.782   6.074   6.977  0.0745 -0.1436 -0.3921
   63SAPC   H4X 5080   1.748   6.178   6.956  0.1673  0.2713  1.3338
   63SAPC   H4Y 5081   1.892   6.073   6.962  0.8534  0.1970  3.8691
   63SAPC   C35 5082   1.727   6.042   7.117  0.7254 -0.4168 -0.1369
   63SAPC   H5X 5083   1.747   5.936   7.145  0.2260 -0.8370 -1.3238
   63SAPC   H5Y 5084   1.617   6.054   7.107  1.0866  1.0132 -4.3410
   63SAPC   C36 5085   1.779   6.138   7.221 -0.4768 -0.6453  0.0805
   63SAPC   H6X 5086   1.789   6.238   7.173  1.9580 -0.6961  0.3661
   63SAPC   H6Y 5087   1.881   6.108   7.250 -0.3977 -0.6592 -0.2068
   63SAPC   C37 5088   1.701   6.165   7.354  0.3028 -0.5757  0.1097
   63SAPC   H7X 5089   1.595   6.184   7.326 -0.0292  1.0049  2.2201
   63SAPC   H7Y 5090   1.739   6.254   7.409 -0.5854 -0.0361 -0.1358
   63SAPC   C38 5091   1.697   6.051   7.445  0.3539 -0.1273  0.2139
   63SAPC   H8X 5092   1.802   6.019   7.462  1.1640  1.4782 -1.4269
   63SAPC   H8Y 5093   1.648   5.970   7.388  2.0181  0.5372 -2.3054
   63SAPC   C39 5094   1.626   6.074   7.580  0.4038 -0.4457 -0.0411
   63SAPC   H9X 5095   1.518   6.093   7.563  0.2569 -2.7178 -2.2038
   63SAPC   H9Y 5096   1.667   6.160   7.638  1.5442 -0.3185 -1.0009
   63SAPC  C310 5097   1.618   5.942   7.660 -0.0957  0.5371 -0.2538
   63SAPC  H10X 5098   1.724   5.915   7.681  0.2268  1.0167 -1.1931
   63SAPC  H10Y 5099   1.585   5.864   7.589 -0.0752  0.6021 -0.3354
   63SAPC  C311 5100   1.538   5.946   7.784  0.9264  0.2025  0.8111
   63SAPC  H11X 5101   1.525   5.845   7.829 -1.1494 -0.0199 -0.1763
   63SAPC  H11Y 5102   1.434   5.969   7.753 -0.2355 -0.6674  3.6321
   63SAPC  C312 5103   1.580   6.057   7.881  0.3448  0.1844 -0.4842
   63SAPC  H12X 5104   1.580   6.163   7.845  0.4279 -0.0441 -1.1770
   63SAPC  H12Y 5105   1.684   6.026   7.906 -0.1597 -1.2241 -0.0559
   63SAPC  C313 5106   1.494   6.057   8.010 -0.0491 -0.3315 -0.0398
   63SAPC  H13X 5107   1.530   6.138   8.077  0.0169 -0.2726 -0.1469
   63SAPC  H13Y 5108   1.520   5.970   8.073 -0.1935  0.1633  0.7190
   63SAPC  C314 5109   1.341   6.074   7.996 -0.7268  0.7402  0.2166
   63SAPC  H14X 5110   1.299   6.024   7.906 -1.7318  2.8378 -0.5708
   63SAPC  H14Y 5111   1.320   6.183   7.990  0.9095  1.0198 -1.6379
   63SAPC  C315 5112   1.277   6.002   8.114  0.0446  0.0209 -0.0077
   63SAPC  H15X 5113   1.323   5.902   8.121 -1.4979 -0.6322  1.2478
   63SAPC  H15Y 5114   1.168   5.983   8.102  0.3517 -1.4505 -0.6669
   63SAPC  C316 5115   1.292   6.080   8.251  0.4833  0.5085 -0.1954
   63SAPC  H16X 5116   1.246   6.181   8.247 -3.2616 -0.9157  1.7988
   63SAPC  H16Y 5117   1.400   6.086   8.275  1.0329 -0.7082 -2.1394
   63SAPC  C317 5118   1.219   6.008   8.370  0.2673  0.0947 -0.0199
   63SAPC  H17X 5119   1.112   6.023   8.345  0.7254  2.5742 -0.7605
   63SAPC  H17Y 5120   1.239   6.055   8.469  1.0317  2.6585 -1.2922
   63SAPC  C318 5121   1.260   5.862   8.383  0.1856 -0.4810  0.1325
   63SAPC  H18X 5122   1.207   5.810   8.300  0.3416 -0.8061  0.2334
   63SAPC  H18Y 5123   1.205   5.816   8.469 -1.6759  1.3494  0.0141
   63SAPC  H18Z 5124   1.364   5.825   8.379  0.8108  1.0322  1.3112
   64SAPC     N 5125   3.728   6.253   6.039 -0.6440  0.2802 -0.2711
   64SAPC   C12 5126   3.810   6.161   5.947 -0.1014 -0.8941  0.2155
   64SAPC  H12A 5127   3.750   6.121   5.867 -1.0907 -0.2835  0.6373
   64SAPC  H12B 5128   3.822   6.071   6.005 -0.3111 -0.7840  0.4305
   64SAPC   C13 5129   3.604   6.188   6.085  0.6858  0.1654  0.0338
   64SAPC  H13A 5130   3.539   6.255   6.138 -1.0797 -1.2487 -0.2332
   64SAPC  H13B 5131   3.554   6.154   5.995  1.8716  1.9098 -1.3603
   64SAPC  H13C 5132   3.622   6.101   6.147 -0.0054 -0.5430 -0.7269
   64SAPC   C14 5133   3.815   6.292   6.154  0.6083 -0.9789  0.3953
   64SAPC  H14A 5134   3.831   6.204   6.215 -3.4031 -2.3559 -0.2580
   64SAPC  H14B 5135   3.908   6.328   6.114 -0.5140  0.3210 -1.1493
   64SAPC  H14C 5136   3.761   6.365   6.212  1.5603  0.0695 -0.0165
   64SAPC   C15 5137   3.688   6.374   5.964 -0.1858  0.9100  0.2863
   64SAPC  H15A 5138   3.763   6.417   5.900 -0.5578  2.4442  0.8439
   64SAPC  H15B 5139   3.614   6.340   5.893 -0.2219  1.6486 -0.0384
   64SAPC  H15C 5140   3.636   6.445   6.028 -0.7446  1.1154 -0.3877
   64SAPC   C11 5141   3.950   6.196   5.878  0.8549 -0.4882 -0.1489
   64SAPC  H11A 5142   3.926   6.241   5.780  0.6650 -0.3977 -0.0608
   64SAPC  H11B 5143   3.998   6.098   5.855  0.8637 -0.2586 -1.1439
   64SAPC     P 5144   4.162   6.336   5.877 -0.0341  0.1429 -0.1422
   64SAPC   O13 5145   4.239   6.225   5.821 -0.6928 -0.2250  0.2294
   64SAPC   O14 5146   4.117   6.439   5.777 -0.1482 -0.2658  0.6378
   64SAPC   O12 5147   4.036   6.273   5.953  0.3976 -0.2146  0.0500
   64SAPC   O11 5148   4.248   6.403   5.986 -0.3830 -0.1653  0.6165
   64SAPC    C1 5149   4.205   6.513   6.071 -0.8760  0.0394 -0.0765
   64SAPC    HA 5150   4.292   6.581   6.085 -1.0517 -0.0120  1.4677
   64SAPC    HB 5151   4.123   6.573   6.028 -1.1843  1.0848  1.8323
   64SAPC    C2 5152   4.163   6.473   6.217 -0.4166  0.0972 -0.1245
   64SAPC    HS 5153   4.079   6.401   6.205 -2.6105  2.0781  2.1527
   64SAPC   O21 5154   4.132   6.586   6.296  0.3227 -1.0399  0.0723
   64SAPC   C21 5155   4.020   6.648   6.262 -0.1408 -0.6005  0.7226
   64SAPC   O22 5156   3.946   6.623   6.167  0.1262  0.0428  0.2509
   64SAPC   C22 5157   4.000   6.774   6.350 -0.4698  0.6265 -0.1728
   64SAPC   H2R 5158   4.054   6.860   6.304 -0.7674  1.4181  0.9042
   64SAPC   H2S 5159   3.892   6.801   6.350  0.1529  3.4090  0.1794
   64SAPC    C3 5160   4.276   6.395   6.285  0.1534 -0.1766  0.0393
   64SAPC    HX 5161   4.361   6.467   6.282  0.0412  0.0485  1.3764
   64SAPC    HY 5162   4.308   6.305   6.230  0.3325 -0.1417  0.0829
   64SAPC   O31 5163   4.250   6.365   6.422 -0.2503  0.2131  0.1709
   64SAPC   C31 5164   4.176   6.256   6.449 -0.0173  0.0567  0.3844
   64SAPC   O32 5165   4.106   6.190   6.373 -0.2641 -0.2880  0.5444
   64SAPC   C32 5166   4.187   6.225   6.593  0.3601 -0.3823 -0.0990
   64SAPC   H2X 5167   4.279   6.269   6.638  0.1647 -0.6251  0.5435
   64SAPC   H2Y 5168   4.197   6.115   6.605  0.2856 -0.4158 -0.3374
   64SAPC   C23 5169   4.044   6.752   6.505 -0.1593  0.2699 -0.3169
   64SAPC   H3R 5170   4.028   6.854   6.546 -1.6458  0.5840 -1.5387
   64SAPC   H3S 5171   4.150   6.719   6.504 -0.7720 -2.0234  1.5924
   64SAPC   C24 5172   3.954   6.642   6.566 -0.5549  0.3652 -0.1683
   64SAPC   H4R 5173   3.972   6.636   6.675 -2.4918 -1.6502  0.1215
   64SAPC   H4S 5174   3.993   6.549   6.519  0.0098  0.7108 -0.4002
   64SAPC   C25 5175   3.804   6.669   6.558 -0.4860  0.1610  0.1668
   64SAPC   H5R 5176   3.763   6.770   6.544  0.5926  0.6966  0.7741
   64SAPC   C26 5177   3.727   6.561   6.553 -0.1320  0.1617 -0.3189
   64SAPC   H6R 5178   3.620   6.584   6.538  0.0446  0.9175 -0.4620
   64SAPC   C27 5179   3.753   6.416   6.557 -0.2236 -0.4451  0.1134
   64SAPC   H7R 5180   3.763   6.376   6.660 -1.3394 -2.9907 -0.6856
   64SAPC   H7S 5181   3.841   6.408   6.490 -0.7532  0.4866 -0.7241
   64SAPC   C28 5182   3.642   6.345   6.485  0.1139  0.7147  0.9052
   64SAPC   H8R 5183   3.593   6.412   6.413  0.2312  0.7833  0.8887
   64SAPC   C29 5184   3.623   6.216   6.471 -0.6246  0.2337 -0.6265
   64SAPC   H9R 5185   3.538   6.185   6.410 -0.3664  0.0658 -0.9044
   64SAPC  C210 5186   3.701   6.102   6.536  0.0402  0.2319 -0.1768
   64SAPC  H10R 5187   3.767   6.132   6.620 -0.6764 -1.0762  0.8899
   64SAPC  H10S 5188   3.773   6.058   6.463 -0.2617  2.5537 -1.9810
   64SAPC  C211 5189   3.606   5.996   6.581 -0.5618  0.1944 -0.0386
   64SAPC  H11R 5190   3.587   5.915   6.509  0.7311  0.9077 -1.2243
   64SAPC  C212 5191   3.552   5.980   6.701 -0.9113  0.7975  0.4141
   64SAPC  H12R 5192   3.508   5.885   6.735  0.4413  0.7929  2.3139
   64SAPC  C213 5193   3.569   6.073   6.818 -0.8261 -0.9408  0.5638
   64SAPC  H13R 5194   3.640   6.152   6.783 -1.3589  0.1764  1.9007
   64SAPC  H13S 5195   3.608   6.019   6.907 -2.0887 -0.7583  1.2518
   64SAPC  C214 5196   3.434   6.122   6.859 -0.5597 -0.2296 -0.1706
   64SAPC  H14R 5197   3.401   6.224   6.837  1.0626  0.8299  1.9830
   64SAPC  C215 5198   3.351   6.057   6.940 -0.1299 -0.4436  0.3905
   64SAPC  H15R 5199   3.257   6.113   6.955 -0.1011 -0.7907  2.0105
   64SAPC  C216 5200   3.380   5.933   7.018  0.1778 -0.5152 -0.5955
   64SAPC  H16R 5201   3.484   5.911   7.050  0.1256  0.2535  0.1211
   64SAPC  H16S 5202   3.369   5.840   6.958 -0.0757 -0.6446 -0.3485
   64SAPC  C217 5203   3.293   5.937   7.143  0.0303  0.5495 -0.3156
   64SAPC  H17R 5204   3.185   5.930   7.117  0.6944  1.0590 -3.5979
   64SAPC  H17S 5205   3.301   6.040   7.185 -0.6044  0.3090  0.4253
   64SAPC  C218 5206   3.343   5.824   7.246  0.6639  0.4021  0.0266
   64SAPC  H18R 5207   3.441   5.856   7.287 -0.5219  2.4927  1.4292
   64SAPC  H18S 5208   3.345   5.727   7.191  2.0036 -0.2828  1.2008
   64SAPC  C219 5209   3.251   5.811   7.362 -0.6127  0.3908 -1.1613
   64SAPC  H19R 5210   3.293   5.741   7.438  1.6331  1.0665 -1.7069
   64SAPC  H19S 5211   3.150   5.768   7.341 -0.5779  0.5884 -1.7407
   64SAPC  C220 5212   3.224   5.952   7.424  0.1800 -0.1893 -0.1371
   64SAPC  H20R 5213   3.323   5.990   7.458  1.1265 -1.5149 -1.3026
   64SAPC  H20S 5214   3.153   5.944   7.510  1.3139  0.3215  0.8717
   64SAPC  H20T 5215   3.179   6.022   7.351 -2.4428 -0.6487  0.8921
   64SAPC   C33 5216   4.072   6.284   6.668  0.2248  0.3124 -0.7048
   64SAPC   H3X 5217   3.979   6.227   6.644 -0.1787  0.5793  0.1755
   64SAPC   H3Y 5218   4.050   6.386   6.629 -1.1389  0.2197 -0.2230
   64SAPC   C34 5219   4.083   6.278   6.824  0.6468 -0.7486  0.1703
   64SAPC   H4X 5220   4.164   6.341   6.865 -0.8879  1.2398  0.2900
   64SAPC   H4Y 5221   4.109   6.173   6.850  1.3965 -1.0210 -1.5287
   64SAPC   C35 5222   3.945   6.328   6.888 -0.9136  0.0950 -0.4366
   64SAPC   H5X 5223   3.858   6.281   6.836 -0.4392  0.8662 -1.9981
   64SAPC   H5Y 5224   3.939   6.435   6.857  0.7849 -0.1283 -1.7121
   64SAPC   C36 5225   3.943   6.295   7.035 -0.5589  0.0355  0.0688
   64SAPC   H6X 5226   4.035   6.335   7.083  0.1041 -1.7465  0.3828
   64SAPC   H6Y 5227   3.970   6.188   7.052  0.1268  0.0376 -0.9316
   64SAPC   C37 5228   3.821   6.333   7.120  0.0800  0.0286  0.5247
   64SAPC   H7X 5229   3.727   6.307   7.066  2.2850 -0.8082 -3.2372
   64SAPC   H7Y 5230   3.823   6.442   7.139 -2.4482  0.2890 -0.2862
   64SAPC   C38 5231   3.808   6.276   7.259 -0.1446 -0.2896  0.4409
   64SAPC   H8X 5232   3.890   6.319   7.320 -0.9500  0.7939  0.8082
   64SAPC   H8Y 5233   3.826   6.168   7.242  1.6116  0.1313 -0.5508
   64SAPC   C39 5234   3.674   6.296   7.327 -0.5700 -0.1822  0.1236
   64SAPC   H9X 5235   3.594   6.244   7.270 -1.8766  0.2191  1.5330
   64SAPC   H9Y 5236   3.651   6.405   7.321  1.2958  0.2979  1.0264
   64SAPC  C310 5237   3.679   6.266   7.476 -0.3012 -0.4178  0.3525
   64SAPC  H10X 5238   3.773   6.305   7.521 -0.8451 -1.0259  2.1326
   64SAPC  H10Y 5239   3.682   6.157   7.501 -0.9026 -0.3848  0.5718
   64SAPC  C311 5240   3.554   6.325   7.551 -0.3693 -0.1911  0.3168
   64SAPC  H11X 5241   3.452   6.298   7.516 -1.2036  0.3227  2.2072
   64SAPC  H11Y 5242   3.562   6.435   7.543 -1.3958 -0.1169  0.1477
   64SAPC  C312 5243   3.560   6.282   7.705 -0.3767 -0.4843  0.8992
   64SAPC  H12X 5244   3.486   6.347   7.757 -0.9993 -0.3252 -0.1551
   64SAPC  H12Y 5245   3.663   6.311   7.734 -0.1363  1.1248 -1.3490
   64SAPC  C313 5246   3.538   6.132   7.725 -0.1574 -0.2102 -0.5899
   64SAPC  H13X 5247   3.614   6.089   7.794  0.1822 -0.2223 -0.9721
   64SAPC  H13Y 5248   3.547   6.079   7.628  1.3165 -2.1156  0.5066
   64SAPC  C314 5249   3.405   6.097   7.790 -0.0505  0.1299  0.1523
   64SAPC  H14X 5250   3.328   6.145   7.725  0.0653 -0.9662 -0.8253
   64SAPC  H14Y 5251   3.402   6.135   7.894  2.7372  0.1338  0.3086
   64SAPC  C315 5252   3.366   5.949   7.795  0.4243  0.7654 -0.2249
   64SAPC  H15X 5253   3.448   5.878   7.818  0.0774 -0.0045 -1.3161
   64SAPC  H15Y 5254   3.331   5.926   7.692 -2.5457  0.5391  0.7217
   64SAPC  C316 5255   3.241   5.928   7.885  0.0501 -0.2901 -0.5235
   64SAPC  H16X 5256   3.160   5.991   7.842  0.0041  0.1885  0.2570
   64SAPC  H16Y 5257   3.263   5.966   7.987  1.4059  2.8332 -1.8628
   64SAPC  C317 5258   3.180   5.788   7.905  0.2599  0.0748  0.3868
   64SAPC  H17X 5259   3.104   5.787   7.986 -1.5518  1.4709 -1.1935
   64SAPC  H17Y 5260   3.266   5.726   7.939 -0.3587 -1.2716 -0.4312
   64SAPC  C318 5261   3.125   5.715   7.785 -0.1437  0.1332  0.3527
   64SAPC  H18X 5262   3.160   5.610   7.778  2.0908  0.7684  1.1858
   64SAPC  H18Y 5263   3.180   5.754   7.697 -3.6687  1.4035 -1.4937
   64SAPC  H18Z 5264   3.018   5.727   7.758  0.0230  0.8718 -0.0294
   65SAPC     N 5265   2.517   1.022   5.928  0.1890  0.0228  0.9738
   65SAPC   C12 5266   2.494   1.132   6.033  1.2076  0.1176  0.3290
   65SAPC  H12A 5267   2.493   1.092   6.134  0.6842 -1.1080 -0.1369
   65SAPC  H12B 5268   2.398   1.179   6.024  0.6089 -1.3948 -1.7084
   65SAPC   C13 5269   2.652   0.955   5.942  0.1335 -0.1633  0.4233
   65SAPC  H13A 5270   2.728   1.031   5.938  1.5410 -1.5098  0.4671
   65SAPC  H13B 5271   2.656   0.903   6.037 -0.0139 -1.2120 -0.1270
   65SAPC  H13C 5272   2.672   0.881   5.866  0.7848 -2.2570  2.5129
   65SAPC   C14 5273   2.409   0.920   5.950  0.1569 -0.4895  0.2163
   65SAPC  H14A 5274   2.419   0.843   5.874 -1.1493 -1.5138  1.0341
   65SAPC  H14B 5275   2.423   0.873   6.046 -1.6440 -0.0852  0.7136
   65SAPC  H14C 5276   2.309   0.961   5.940 -0.6952 -2.7389 -1.5832
   65SAPC   C15 5277   2.507   1.070   5.788 -0.0212 -0.4010 -0.3148
   65SAPC  H15A 5278   2.536   0.996   5.715 -0.0362  0.8787 -1.6677
   65SAPC  H15B 5279   2.406   1.104   5.772  0.5481  2.2026  1.0641
   65SAPC  H15C 5280   2.572   1.154   5.773  0.3178 -0.4362  0.9004
   65SAPC   C11 5281   2.599   1.240   6.030  0.9612 -0.5179  0.2488
   65SAPC  H11A 5282   2.568   1.313   6.108  1.1806 -1.7324  1.5189
   65SAPC  H11B 5283   2.595   1.291   5.932  0.2955  1.9182  1.4771
   65SAPC     P 5284   2.857   1.284   6.042 -0.0719 -0.4674 -0.2043
   65SAPC   O13 5285   2.908   1.271   5.904  0.2097  0.4756 -0.6218
   65SAPC   O14 5286   2.829   1.420   6.085  0.1244  0.1724 -0.3041
   65SAPC   O12 5287   2.730   1.194   6.066 -0.4766  0.2828  0.1353
   65SAPC   O11 5288   2.967   1.222   6.135  0.5805 -0.0348  0.0756
   65SAPC    C1 5289   2.984   1.080   6.157 -0.0407  0.2112 -0.1318
   65SAPC    HA 5290   2.912   1.017   6.100 -0.2109  1.0925 -0.9058
   65SAPC    HB 5291   3.081   1.045   6.115 -1.8201 -2.3031 -2.5531
   65SAPC    C2 5292   2.963   1.034   6.304 -0.0074 -0.9872  0.0998
   65SAPC    HS 5293   2.858   1.065   6.326  0.3530 -0.9336  1.9760
   65SAPC   O21 5294   3.054   1.092   6.396  0.2345 -0.7246 -0.1956
   65SAPC   C21 5295   3.004   1.198   6.467 -0.6801  0.9732  0.6283
   65SAPC   O22 5296   2.895   1.243   6.453  0.4947 -0.0938 -0.6135
   65SAPC   C22 5297   3.100   1.248   6.558 -0.5123  0.0002 -0.1263
   65SAPC   H2R 5298   3.132   1.170   6.630  2.2545  0.5528 -0.6476
   65SAPC   H2S 5299   3.187   1.286   6.501 -0.4554  0.3360  0.1745
   65SAPC    C3 5300   2.967   0.875   6.328 -0.3908 -0.2413 -0.1704
   65SAPC    HX 5301   3.061   0.841   6.280 -0.7861 -1.7946  0.0942
   65SAPC    HY 5302   2.888   0.837   6.259 -0.3166 -0.2706 -0.2394
   65SAPC   O31 5303   2.966   0.828   6.468  0.0985  0.5969 -0.5029
   65SAPC   C31 5304   2.849   0.840   6.531  0.6466 -0.2690 -0.2452
   65SAPC   O32 5305   2.747   0.880   6.478  0.2118  0.5050  0.6919
   65SAPC   C32 5306   2.864   0.807   6.678  0.1051 -0.6504 -0.3040
   65SAPC   H2X 5307   2.912   0.708   6.697 -1.5799 -1.1806  1.4924
   65SAPC   H2Y 5308   2.763   0.812   6.724  0.3141  1.6750  0.0249
   65SAPC   C23 5309   3.049   1.360   6.651  0.1043 -0.8588  0.0562
   65SAPC   H3R 5310   2.963   1.322   6.711  0.0810  0.3403  0.8078
   65SAPC   H3S 5311   3.004   1.442   6.591 -2.2325 -2.6780 -0.8743
   65SAPC   C24 5312   3.151   1.409   6.757  0.2660  0.2601  0.3105
   65SAPC   H4R 5313   3.104   1.490   6.816  1.5462 -0.1408  1.9529
   65SAPC   H4S 5314   3.237   1.461   6.709 -0.5858 -1.9499 -4.1097
   65SAPC   C25 5315   3.198   1.308   6.858  0.4113 -0.3165 -0.1902
   65SAPC   H5R 5316   3.247   1.220   6.815 -0.2676 -0.6891 -0.2037
   65SAPC   C26 5317   3.194   1.335   6.988  0.0811 -0.2503  0.7697
   65SAPC   H6R 5318   3.232   1.259   7.058  0.9563  1.2242  1.9678
   65SAPC   C27 5319   3.142   1.450   7.071 -0.3263 -0.2973  0.1558
   65SAPC   H7R 5320   3.072   1.512   7.010 -0.5048 -1.4268 -0.8292
   65SAPC   H7S 5321   3.235   1.503   7.100  1.4123 -2.2881 -1.4834
   65SAPC   C28 5322   3.087   1.423   7.211  0.3628  0.1909  0.9752
   65SAPC   H8R 5323   3.013   1.343   7.212 -0.0512  0.5469 -0.0102
   65SAPC   C29 5324   3.081   1.502   7.321 -0.6487 -0.4215 -0.2225
   65SAPC   H9R 5325   3.025   1.457   7.403 -0.6012  1.4320  0.8850
   65SAPC  C210 5326   3.152   1.638   7.331  0.1287  0.3788  0.2055
   65SAPC  H10R 5327   3.176   1.677   7.230  0.2270  0.0529  0.0999
   65SAPC  H10S 5328   3.243   1.636   7.394 -1.6881 -3.6855  3.1475
   65SAPC  C211 5329   3.056   1.741   7.386 -0.3430  0.6215 -0.4348
   65SAPC  H11R 5330   3.029   1.820   7.314  0.4827 -1.2022 -2.8746
   65SAPC  C212 5331   3.024   1.746   7.517 -0.3057  1.2170 -0.0479
   65SAPC  H12R 5332   2.960   1.825   7.558 -0.5727 -0.5002  3.1248
   65SAPC  C213 5333   3.067   1.664   7.632 -0.4930  0.1879 -0.4112
   65SAPC  H13R 5334   3.090   1.561   7.598 -0.2944  0.7241 -1.9499
   65SAPC  H13S 5335   2.974   1.653   7.692 -1.1723  1.7803 -1.1057
   65SAPC  C214 5336   3.189   1.724   7.709 -0.0150  1.1715  0.0753
   65SAPC  H14R 5337   3.278   1.727   7.644 -0.0483  2.0708  0.0524
   65SAPC  C215 5338   3.195   1.753   7.838 -0.1871 -0.2982 -0.0033
   65SAPC  H15R 5339   3.292   1.789   7.876  0.1026 -1.4116  0.3512
   65SAPC  C216 5340   3.091   1.730   7.946  1.0097  0.1223  0.0926
   65SAPC  H16R 5341   2.991   1.695   7.914  0.6051  0.9990  0.3800
   65SAPC  H16S 5342   3.066   1.822   8.003 -2.4760 -2.1065  2.5707
   65SAPC  C217 5343   3.147   1.649   8.065  0.3533 -0.0109 -0.2271
   65SAPC  H17R 5344   3.243   1.690   8.103  0.5970 -0.0572 -0.7698
   65SAPC  H17S 5345   3.166   1.549   8.019 -2.2228 -0.7463  0.1753
   65SAPC  C218 5346   3.042   1.635   8.178  0.1687 -0.0028  0.3544
   65SAPC  H18R 5347   2.967   1.567   8.133  0.2003  1.0502 -1.3706
   65SAPC  H18S 5348   2.998   1.733   8.204 -0.2259  0.7292 -2.7492
   65SAPC  C219 5349   3.086   1.561   8.305 -0.3717  0.1968  0.7350
   65SAPC  H19R 5350   3.041   1.609   8.395 -0.0132  1.4132  0.2781
   65SAPC  H19S 5351   3.194   1.581   8.322  0.0224 -1.9858  1.1478
   65SAPC  C220 5352   3.053   1.412   8.309 -0.7545 -0.7482 -0.2109
   65SAPC  H20R 5353   2.945   1.390   8.320 -0.6372 -1.2789 -0.0737
   65SAPC  H20S 5354   3.096   1.370   8.403  0.2692 -1.1503 -0.8343
   65SAPC  H20T 5355   3.106   1.353   8.231  1.2889 -0.3220  0.7825
   65SAPC   C33 5356   2.937   0.918   6.758 -0.0548 -0.2248 -0.0580
   65SAPC   H3X 5357   2.871   1.007   6.767  3.0379  2.1132  1.5697
   65SAPC   H3Y 5358   3.027   0.952   6.701 -0.5059 -1.2018 -1.4031
   65SAPC   C34 5359   2.994   0.863   6.895  0.4718 -0.4307  0.3964
   65SAPC   H4X 5360   3.093   0.818   6.876  0.8504 -0.3954  2.1746
   65SAPC   H4Y 5361   2.920   0.791   6.937  1.9380 -3.1973 -1.4468
   65SAPC   C35 5362   3.019   0.974   7.003 -0.3189  0.2293 -0.3187
   65SAPC   H5X 5363   2.940   1.051   7.017 -1.7485 -1.5069  1.7361
   65SAPC   H5Y 5364   3.102   1.036   6.960 -1.9075  1.5970 -1.5690
   65SAPC   C36 5365   3.076   0.908   7.128 -0.2618 -0.3576 -0.9831
   65SAPC   H6X 5366   3.156   0.833   7.113  0.3896  0.4034 -1.3658
   65SAPC   H6Y 5367   2.989   0.855   7.174  0.7208 -1.8524 -0.7714
   65SAPC   C37 5368   3.125   1.010   7.238  0.0090  0.6407 -0.3330
   65SAPC   H7X 5369   3.071   1.106   7.231 -1.9129 -0.3482  0.1411
   65SAPC   H7Y 5370   3.232   1.037   7.222  0.1171  0.3397 -0.1276
   65SAPC   C38 5371   3.095   0.947   7.380  0.4733 -0.2779  0.4058
   65SAPC   H8X 5372   3.139   0.845   7.387 -0.6863 -0.7614  0.8465
   65SAPC   H8Y 5373   2.984   0.944   7.384  0.3134 -0.7206 -2.5218
   65SAPC   C39 5374   3.142   1.043   7.488  0.1637 -0.0547 -0.1824
   65SAPC   H9X 5375   3.094   1.142   7.475  0.6157  0.2830  0.6943
   65SAPC   H9Y 5376   3.249   1.070   7.473  0.1393  0.2026  0.1086
   65SAPC  C310 5377   3.127   0.987   7.629 -0.2641 -0.3780  0.2851
   65SAPC  H10X 5378   3.178   0.889   7.635  0.8264  0.2033  0.8580
   65SAPC  H10Y 5379   3.018   0.979   7.649 -0.6258 -1.5437 -1.8195
   65SAPC  C311 5380   3.180   1.085   7.743  0.4961  0.1715  0.2516
   65SAPC  H11X 5381   3.148   1.189   7.724  2.1408  0.8510  0.9985
   65SAPC  H11Y 5382   3.291   1.087   7.734  0.4937 -1.3552 -0.4838
   65SAPC  C312 5383   3.121   1.041   7.879 -0.1249  0.3024 -0.5688
   65SAPC  H12X 5384   3.205   1.050   7.951  1.1382  1.9583 -2.1267
   65SAPC  H12Y 5385   3.092   0.935   7.865 -0.2106  0.1523  0.6938
   65SAPC  C313 5386   3.001   1.120   7.935  0.2810  0.6382  0.7912
   65SAPC  H13X 5387   2.925   1.117   7.855  0.1091 -1.6132  0.9765
   65SAPC  H13Y 5388   3.035   1.225   7.948 -0.8776  0.9322  1.5393
   65SAPC  C314 5389   2.956   1.082   8.078 -0.1827  0.4075  0.6002
   65SAPC  H14X 5390   3.025   1.122   8.155  0.3629 -0.6759  0.6889
   65SAPC  H14Y 5391   2.965   0.971   8.082  0.8798  0.4621 -0.0213
   65SAPC  C315 5392   2.813   1.133   8.109 -0.3944 -1.1245  0.5171
   65SAPC  H15X 5393   2.745   1.109   8.025 -0.2607  0.2010  0.0013
   65SAPC  H15Y 5394   2.817   1.243   8.095 -0.0646 -1.1177  0.6699
   65SAPC  C316 5395   2.773   1.119   8.258 -0.2684  0.0780  0.0300
   65SAPC  H16X 5396   2.845   1.164   8.329 -0.8117 -1.0950  1.3728
   65SAPC  H16Y 5397   2.775   1.011   8.283 -3.1876  0.0120  0.3687
   65SAPC  C317 5398   2.636   1.175   8.289 -0.3950 -0.0238  0.6016
   65SAPC  H17X 5399   2.574   1.122   8.214  0.5268 -0.3409  0.0447
   65SAPC  H17Y 5400   2.633   1.284   8.268  0.6935 -0.4365 -2.0939
   65SAPC  C318 5401   2.600   1.164   8.441  0.2746  0.2392  0.3477
   65SAPC  H18X 5402   2.677   1.196   8.514 -1.0254 -1.7606  2.7597
   65SAPC  H18Y 5403   2.579   1.055   8.454 -1.1671 -0.2019 -3.9265
   65SAPC  H18Z 5404   2.512   1.228   8.462  1.0950  1.3069  0.5651
   66SAPC     N 5405   0.326   0.915   6.019 -0.4070 -0.9696 -0.2088
   66SAPC   C12 5406   0.312   1.038   6.112  0.0660 -0.0345 -0.5233
   66SAPC  H12A 5407   0.407   1.089   6.107 -0.4079  0.8951 -0.2024
   66SAPC  H12B 5408   0.292   1.012   6.215  0.0459  1.3842 -0.1440
   66SAPC   C13 5409   0.194   0.840   6.024  0.3078  0.7693 -0.0491
   66SAPC  H13A 5410   0.185   0.768   5.943  0.2868 -0.3348  0.9151
   66SAPC  H13B 5411   0.177   0.805   6.125 -1.5627  1.4927 -0.0650
   66SAPC  H13C 5412   0.113   0.909   6.004 -0.4445  0.3427  1.4095
   66SAPC   C14 5413   0.360   0.957   5.885 -0.1153  0.4734 -0.1984
   66SAPC  H14A 5414   0.363   0.874   5.815 -1.8359  0.4819 -0.3209
   66SAPC  H14B 5415   0.283   1.021   5.846 -0.1472 -0.4623 -1.7224
   66SAPC  H14C 5416   0.458   1.002   5.880  0.5042 -0.8934 -0.8268
   66SAPC   C15 5417   0.439   0.831   6.063  0.5600 -0.5382 -0.4602
   66SAPC  H15A 5418   0.434   0.807   6.168 -0.7930 -0.6766 -0.5359
   66SAPC  H15B 5419   0.437   0.738   6.009  1.1470  0.5375 -2.4575
   66SAPC  H15C 5420   0.534   0.883   6.059  1.0838 -1.3765  0.6032
   66SAPC   C11 5421   0.209   1.139   6.076 -0.2995 -0.0118 -0.4527
   66SAPC  H11A 5422   0.202   1.212   6.160  0.1643 -1.4081  0.8498
   66SAPC  H11B 5423   0.106   1.099   6.069  0.0255 -1.1942  1.1073
   66SAPC     P 5424   0.340   1.319   5.942  0.2901  0.0201  0.0054
   66SAPC   O13 5425   0.402   1.307   5.815 -0.0216 -0.3570  0.3421
   66SAPC   O14 5426   0.263   1.443   5.972  0.1458 -0.1227 -0.0164
   66SAPC   O12 5427   0.235   1.201   5.950 -0.3232  0.1807  0.3250
   66SAPC   O11 5428   0.447   1.292   6.052 -0.2213 -0.2032  0.6167
   66SAPC    C1 5429   0.582   1.339   6.031 -0.4289  0.4167 -0.2197
   66SAPC    HA 5430   0.628   1.276   5.953 -0.9651 -2.4967  1.6665
   66SAPC    HB 5431   0.578   1.448   6.008 -3.1020  0.3834 -0.2326
   66SAPC    C2 5432   0.668   1.346   6.158  0.3157 -0.2810  0.2731
   66SAPC    HS 5433   0.695   1.243   6.191 -1.6615 -0.9933 -0.1875
   66SAPC   O21 5434   0.587   1.410   6.258  0.0660  0.7448  0.2268
   66SAPC   C21 5435   0.502   1.338   6.323  1.1982 -0.4001 -0.2534
   66SAPC   O22 5436   0.506   1.217   6.335 -0.7100 -0.0119  0.1333
   66SAPC   C22 5437   0.405   1.421   6.403 -0.7321  0.7949  0.1742
   66SAPC   H2R 5438   0.461   1.511   6.434  1.1569  0.0121 -0.8272
   66SAPC   H2S 5439   0.330   1.455   6.327 -1.7049 -0.3681  0.5914
   66SAPC    C3 5440   0.797   1.439   6.140  0.3592 -0.1581  0.7703
   66SAPC    HX 5441   0.762   1.545   6.136  1.7259  0.3014  0.3860
   66SAPC    HY 5442   0.830   1.414   6.037  0.4264 -0.0237  0.7581
   66SAPC   O31 5443   0.899   1.435   6.239  0.2596  0.0030  0.1705
   66SAPC   C31 5444   0.987   1.336   6.225  0.1745 -0.5473 -0.2999
   66SAPC   O32 5445   0.984   1.244   6.145  0.4646  0.3371  0.7682
   66SAPC   C32 5446   1.097   1.353   6.335  0.1268 -0.1550  0.3081
   66SAPC   H2X 5447   1.081   1.450   6.388  1.6962  2.2905 -3.2922
   66SAPC   H2Y 5448   1.194   1.364   6.282 -0.4833  0.4837 -0.7280
   66SAPC   C23 5449   0.323   1.345   6.510 -0.0145  0.1434 -0.1176
   66SAPC   H3R 5450   0.279   1.258   6.458 -0.3137 -0.2816  0.8141
   66SAPC   H3S 5451   0.229   1.404   6.523 -0.1269 -0.2506  1.0118
   66SAPC   C24 5452   0.395   1.297   6.634 -0.2983  0.2461 -0.6927
   66SAPC   H4R 5453   0.479   1.233   6.599 -0.3003 -1.3089  1.8982
   66SAPC   H4S 5454   0.330   1.227   6.691  0.1724 -0.4271 -0.9745
   66SAPC   C25 5455   0.450   1.405   6.718  0.7423  0.2503 -1.0777
   66SAPC   H5R 5456   0.464   1.497   6.658  0.3646  0.4114 -0.9225
   66SAPC   C26 5457   0.449   1.408   6.851  0.2393  0.7892 -0.2842
   66SAPC   H6R 5458   0.491   1.493   6.907 -1.1225 -0.6666  3.2158
   66SAPC   C27 5459   0.412   1.299   6.945  0.2700  0.2534 -0.9880
   66SAPC   H7R 5460   0.374   1.208   6.893 -2.5451  0.7609 -0.0249
   66SAPC   H7S 5461   0.329   1.333   7.011 -0.3648  1.5219 -2.3643
   66SAPC   C28 5462   0.532   1.257   7.030  0.7120  0.9229 -0.4612
   66SAPC   H8R 5463   0.614   1.220   6.967  1.6034 -1.4729  1.9119
   66SAPC   C29 5464   0.551   1.243   7.166 -0.2041  0.0587 -0.1228
   66SAPC   H9R 5465   0.644   1.206   7.211  0.9361  1.6224 -1.0770
   66SAPC  C210 5466   0.455   1.264   7.286 -0.2038 -0.5607  0.3912
   66SAPC  H10R 5467   0.472   1.175   7.351 -0.6776 -2.2023 -1.6172
   66SAPC  H10S 5468   0.352   1.236   7.257  0.6020 -2.7667 -0.6112
   66SAPC  C211 5469   0.474   1.393   7.357 -0.2497  0.0874  0.7716
   66SAPC  H11R 5470   0.455   1.478   7.289  0.5783 -0.3885 -0.0690
   66SAPC  C212 5471   0.511   1.421   7.483 -0.5885 -0.7619 -0.4218
   66SAPC  H12R 5472   0.532   1.525   7.514  0.9881 -0.7302 -1.5207
   66SAPC  C213 5473   0.542   1.316   7.588 -0.3791 -0.0946  0.0612
   66SAPC  H13R 5474   0.602   1.234   7.543  0.8599  2.0711 -2.5719
   66SAPC  H13S 5475   0.445   1.270   7.617  0.1533 -0.7996  0.7478
   66SAPC  C214 5476   0.606   1.370   7.711 -0.6971  0.6761  0.1620
   66SAPC  H14R 5477   0.716   1.368   7.718 -0.6044  3.4770  0.6581
   66SAPC  C215 5478   0.548   1.410   7.826  0.3823 -0.0576 -0.5774
   66SAPC  H15R 5479   0.613   1.442   7.910 -0.8424  2.7810 -0.5978
   66SAPC  C216 5480   0.401   1.413   7.861  0.1140  0.3211  0.3496
   66SAPC  H16R 5481   0.352   1.324   7.816  0.2253  0.3924  0.0901
   66SAPC  H16S 5482   0.353   1.495   7.804  0.5398  1.0444  1.0137
   66SAPC  C217 5483   0.373   1.443   8.007  0.8374 -0.6657 -0.0247
   66SAPC  H17R 5484   0.383   1.352   8.070  1.2319  0.3969  1.5118
   66SAPC  H17S 5485   0.264   1.467   8.010  1.2395  1.2270  3.0936
   66SAPC  C218 5486   0.448   1.561   8.074  1.0043 -1.2335  0.2436
   66SAPC  H18R 5487   0.556   1.536   8.073  0.8847 -1.7694  0.2505
   66SAPC  H18S 5488   0.408   1.574   8.177 -0.6840  1.6521 -0.6517
   66SAPC  C219 5489   0.411   1.689   7.995 -0.7693  0.3416 -0.1669
   66SAPC  H19R 5490   0.304   1.716   7.998 -1.3706 -1.8513 -0.0677
   66SAPC  H19S 5491   0.445   1.673   7.890 -1.5941  0.8570 -0.5220
   66SAPC  C220 5492   0.495   1.810   8.035  0.5322  0.1525  0.2097
   66SAPC  H20R 5493   0.600   1.777   8.048  0.9875  0.8260 -1.4340
   66SAPC  H20S 5494   0.462   1.849   8.134  1.3757  2.1396 -0.2355
   66SAPC  H20T 5495   0.492   1.896   7.965 -1.2762  1.5306  1.8608
   66SAPC   C33 5496   1.094   1.244   6.441  0.2473  0.2751  0.5627
   66SAPC   H3X 5497   1.088   1.148   6.386  0.4766 -0.0216  1.0468
   66SAPC   H3Y 5498   1.013   1.257   6.517 -0.8733 -2.9690  0.0587
   66SAPC   C34 5499   1.220   1.245   6.519  0.2275 -0.7833 -0.6726
   66SAPC   H4X 5500   1.233   1.346   6.561 -2.5237 -1.1083  1.1990
   66SAPC   H4Y 5501   1.308   1.217   6.456 -0.4275 -2.1223 -1.0319
   66SAPC   C35 5502   1.230   1.135   6.627  0.1421  0.4177  0.1732
   66SAPC   H5X 5503   1.336   1.113   6.654  0.7460  2.9347  0.0837
   66SAPC   H5Y 5504   1.189   1.042   6.583 -1.5834  2.9242 -4.1073
   66SAPC   C36 5505   1.149   1.165   6.754 -0.5150  0.5771 -0.2784
   66SAPC   H6X 5506   1.042   1.163   6.724 -0.5445 -0.0604 -0.1351
   66SAPC   H6Y 5507   1.165   1.272   6.782  1.6004  0.2311  0.0342
   66SAPC   C37 5508   1.168   1.066   6.867 -0.2613  0.1833  0.2431
   66SAPC   H7X 5509   1.273   1.048   6.899  0.4034 -0.0511 -1.8684
   66SAPC   H7Y 5510   1.151   0.962   6.832  1.4011 -0.0444  0.0208
   66SAPC   C38 5511   1.088   1.098   6.992 -0.3196  0.0489 -0.2186
   66SAPC   H8X 5512   0.980   1.089   6.965  0.0606  0.5516 -2.0832
   66SAPC   H8Y 5513   1.114   1.203   7.016 -1.6910  0.4308 -0.3370
   66SAPC   C39 5514   1.126   1.007   7.115  0.1679 -0.6211  0.2963
   66SAPC   H9X 5515   1.230   0.967   7.107  0.8662  1.3877 -1.5678
   66SAPC   H9Y 5516   1.058   0.919   7.115  1.4482 -1.7424 -2.7682
   66SAPC  C310 5517   1.088   1.081   7.244  0.8591 -0.0406 -0.2818
   66SAPC  H10X 5518   0.978   1.097   7.247  0.9677  1.1169 -1.5170
   66SAPC  H10Y 5519   1.135   1.181   7.248  0.6875  0.0945 -1.3418
   66SAPC  C311 5520   1.147   1.006   7.372 -0.2835  0.0224  0.2484
   66SAPC  H11X 5521   1.257   1.017   7.379 -0.2791  0.0162  0.1888
   66SAPC  H11Y 5522   1.106   0.903   7.366 -0.4361  0.0398  0.9126
   66SAPC  C312 5523   1.100   1.053   7.509  0.0393  1.0100  0.0292
   66SAPC  H12X 5524   0.999   1.008   7.507 -0.1344  1.4111 -0.7269
   66SAPC  H12Y 5525   1.093   1.163   7.520 -2.3220  0.6535  3.6274
   66SAPC  C313 5526   1.173   1.000   7.633  1.3228  0.5991 -0.0022
   66SAPC  H13X 5527   1.280   1.029   7.629  0.8428  2.3500 -2.8831
   66SAPC  H13Y 5528   1.170   0.889   7.643  0.9729  0.4573 -1.4280
   66SAPC  C314 5529   1.100   1.062   7.757  0.5175  0.2332  0.2168
   66SAPC  H14X 5530   0.996   1.083   7.725 -0.0860  0.2930  2.1173
   66SAPC  H14Y 5531   1.147   1.159   7.780  0.0709  0.5517 -0.1958
   66SAPC  C315 5532   1.105   0.969   7.871 -0.4497 -0.4736 -0.1487
   66SAPC  H15X 5533   1.209   0.982   7.906 -0.9627  0.6869  1.0290
   66SAPC  H15Y 5534   1.083   0.865   7.836  0.1620 -0.9212  0.7533
   66SAPC  C316 5535   1.024   1.006   7.995  0.2273  0.1528 -0.6818
   66SAPC  H16X 5536   1.033   0.925   8.071 -3.9872  1.4187  1.4314
   66SAPC  H16Y 5537   0.919   1.009   7.960 -0.2221  1.6193  0.6931
   66SAPC  C317 5538   1.061   1.134   8.068 -0.0196  0.1838 -0.6456
   66SAPC  H17X 5539   1.051   1.213   7.991 -0.2727 -1.0646 -1.9196
   66SAPC  H17Y 5540   1.166   1.128   8.106  0.1921  0.5258 -1.1751
   66SAPC  C318 5541   0.964   1.165   8.186  0.4254 -0.6308 -0.1331
   66SAPC  H18X 5542   0.996   1.247   8.253 -3.0792  1.8666 -1.2332
   66SAPC  H18Y 5543   0.957   1.078   8.255  0.4622 -0.1870  0.4363
   66SAPC  H18Z 5544   0.865   1.195   8.145  1.3369  0.0947 -1.8691
   67SAPC     N 5545   3.449   3.203   6.232  0.3960  0.5129  0.5502
   67SAPC   C12 5546   3.332   3.163   6.332 -0.5058 -0.2372  0.4567
   67SAPC  H12A 5547   3.252   3.232   6.309 -0.3331 -0.6188 -1.4204
   67SAPC  H12B 5548   3.361   3.183   6.435  1.1733 -2.9949  0.6237
   67SAPC   C13 5549   3.577   3.138   6.261 -0.6687  0.4587 -0.0797
   67SAPC  H13A 5550   3.653   3.169   6.190 -0.0287 -1.9420 -0.5473
   67SAPC  H13B 5551   3.607   3.152   6.364  0.4442 -0.8466 -0.1908
   67SAPC  H13C 5552   3.563   3.031   6.254  1.2444  0.1538  0.1556
   67SAPC   C14 5553   3.410   3.166   6.093  0.1231  0.6144  0.5312
   67SAPC  H14A 5554   3.324   3.228   6.074  0.2332  0.5700 -0.1337
   67SAPC  H14B 5555   3.492   3.195   6.029 -0.0193  2.6800  1.1923
   67SAPC  H14C 5556   3.399   3.059   6.086  2.8215  0.3823 -2.2996
   67SAPC   C15 5557   3.494   3.347   6.235  0.4101  0.0941 -0.4249
   67SAPC  H15A 5558   3.588   3.355   6.182  1.2845 -0.4608  0.9934
   67SAPC  H15B 5559   3.434   3.422   6.185  1.6857  2.0595  0.8483
   67SAPC  H15C 5560   3.517   3.379   6.336 -0.1396 -2.2240  0.5082
   67SAPC   C11 5561   3.265   3.018   6.330 -0.1001 -0.1059 -0.2969
   67SAPC  H11A 5562   3.200   3.006   6.241  1.8625  2.5521 -2.2645
   67SAPC  H11B 5563   3.200   3.013   6.420  2.0832  2.6749  1.6280
   67SAPC     P 5564   3.441   2.884   6.461  0.1075 -0.0073  0.0150
   67SAPC   O13 5565   3.584   2.873   6.422  0.0064 -0.2682  0.5812
   67SAPC   O14 5566   3.401   2.979   6.567 -0.5348 -0.3851 -0.4461
   67SAPC   O12 5567   3.358   2.914   6.334 -0.1553 -0.4242  0.1057
   67SAPC   O11 5568   3.399   2.738   6.506 -0.2551 -0.3974  0.0295
   67SAPC    C1 5569   3.267   2.701   6.557 -0.2824  0.5930  0.1943
   67SAPC    HA 5570   3.219   2.792   6.599  0.3707  2.2440 -2.4416
   67SAPC    HB 5571   3.204   2.663   6.474  0.4152  1.8818 -0.9846
   67SAPC    C2 5572   3.271   2.591   6.668  0.6779  1.2086  0.8813
   67SAPC    HS 5573   3.172   2.585   6.716  1.0220 -0.5407  1.4330
   67SAPC   O21 5574   3.365   2.640   6.769  0.5119 -0.9161  0.2722
   67SAPC   C21 5575   3.318   2.739   6.846  0.4420  0.2476 -0.0308
   67SAPC   O22 5576   3.203   2.782   6.851 -0.8042 -0.1792  0.4849
   67SAPC   C22 5577   3.435   2.780   6.937 -0.5825  0.1463  0.0191
   67SAPC   H2R 5578   3.473   2.688   6.985  0.9242  0.2217 -0.9853
   67SAPC   H2S 5579   3.525   2.807   6.878  1.4204 -2.3064  1.7535
   67SAPC    C3 5580   3.313   2.450   6.623  0.2824  0.4129 -0.0488
   67SAPC    HX 5581   3.411   2.457   6.571  0.2356  0.0694 -0.1836
   67SAPC    HY 5582   3.235   2.397   6.564  2.6353 -3.1830 -0.2565
   67SAPC   O31 5583   3.338   2.367   6.741 -0.5784 -0.5279  0.9339
   67SAPC   C31 5584   3.245   2.283   6.795  0.5115  0.1513 -0.0490
   67SAPC   O32 5585   3.130   2.282   6.761  0.7246 -0.6306 -1.3102
   67SAPC   C32 5586   3.311   2.192   6.901 -0.2321  0.9411 -0.1806
   67SAPC   H2X 5587   3.402   2.248   6.929  0.6440 -0.3873 -0.2864
   67SAPC   H2Y 5588   3.331   2.094   6.852  0.8616 -0.4787  2.8784
   67SAPC   C23 5589   3.405   2.891   7.040  0.2348 -0.4544 -0.1141
   67SAPC   H3R 5590   3.378   2.983   6.983  1.0480 -0.0808  0.0952
   67SAPC   H3S 5591   3.497   2.924   7.092  0.2479 -0.3156 -0.2250
   67SAPC   C24 5592   3.300   2.840   7.142 -0.6486 -0.6530 -0.7897
   67SAPC   H4R 5593   3.260   2.748   7.094 -0.7256 -0.5798 -0.8672
   67SAPC   H4S 5594   3.228   2.923   7.157  1.2260  0.7477  0.9491
   67SAPC   C25 5595   3.370   2.802   7.270  0.2063  0.6891  0.1981
   67SAPC   H5R 5596   3.447   2.868   7.313  1.8943 -2.4132  2.2818
   67SAPC   C26 5597   3.332   2.697   7.346 -0.9448 -0.2672 -0.0689
   67SAPC   H6R 5598   3.396   2.683   7.434 -0.7417  0.8532 -0.0256
   67SAPC   C27 5599   3.226   2.600   7.328  0.6569  0.2586 -0.2275
   67SAPC   H7R 5600   3.264   2.514   7.269 -0.6428  0.2433 -1.0864
   67SAPC   H7S 5601   3.150   2.652   7.266  0.1854 -0.8293 -0.5861
   67SAPC   C28 5602   3.152   2.553   7.449 -1.0081 -0.3230 -0.5901
   67SAPC   H8R 5603   3.178   2.453   7.486 -2.0642 -0.6992 -0.8419
   67SAPC   C29 5604   3.054   2.618   7.511 -0.9144 -0.3399 -0.1270
   67SAPC   H9R 5605   3.008   2.569   7.598  0.3896 -0.9064  0.2760
   67SAPC  C210 5606   2.999   2.754   7.485 -0.3879 -0.4277 -0.7021
   67SAPC  H10R 5607   2.890   2.759   7.464 -0.5487  0.9344  0.2584
   67SAPC  H10S 5608   3.046   2.784   7.389  1.8580 -1.3538  0.0328
   67SAPC  C211 5609   3.028   2.872   7.577  0.2034  0.5281  0.5325
   67SAPC  H11R 5610   3.068   2.955   7.517 -0.6659  0.3450 -0.3111
   67SAPC  C212 5611   3.016   2.877   7.711 -0.2094  0.3722 -0.2332
   67SAPC  H12R 5612   3.052   2.959   7.774 -0.5541 -0.2642  0.8036
   67SAPC  C213 5613   2.963   2.768   7.808 -0.1284 -0.0554  0.0428
   67SAPC  H13R 5614   2.877   2.719   7.757 -1.0900  0.4490  1.1351
   67SAPC  H13S 5615   2.920   2.813   7.900 -0.6423  1.2006 -0.7933
   67SAPC  C214 5616   3.072   2.665   7.839 -0.2473 -0.2099  0.2811
   67SAPC  H14R 5617   3.166   2.683   7.786 -1.5915  2.9026 -1.3629
   67SAPC  C215 5618   3.076   2.577   7.946  0.0818  0.4382  0.7243
   67SAPC  H15R 5619   3.168   2.521   7.967 -0.7984 -1.8926 -1.2360
   67SAPC  C216 5620   2.962   2.567   8.042  0.4576 -0.4977 -0.0468
   67SAPC  H16R 5621   2.863   2.588   7.996  1.0664 -0.9323 -1.6026
   67SAPC  H16S 5622   2.983   2.643   8.120  1.6496  0.2647 -1.0847
   67SAPC  C217 5623   2.933   2.425   8.104 -0.3420 -0.4498 -0.1645
   67SAPC  H17R 5624   3.027   2.399   8.157  0.3265  0.8926 -0.6558
   67SAPC  H17S 5625   2.915   2.351   8.023  3.0410  0.7068 -2.1362
   67SAPC  C218 5626   2.806   2.426   8.201 -0.3608 -0.2059  0.1497
   67SAPC  H18R 5627   2.723   2.470   8.141  0.6689 -0.3368 -1.4448
   67SAPC  H18S 5628   2.817   2.496   8.286 -0.7961 -0.2011  0.2071
   67SAPC  C219 5629   2.744   2.292   8.246 -0.6735 -0.4864 -0.0133
   67SAPC  H19R 5630   2.691   2.242   8.163 -2.0979 -1.7511  1.5938
   67SAPC  H19S 5631   2.669   2.323   8.322 -1.8936  1.1804 -1.8001
   67SAPC  C220 5632   2.841   2.197   8.324  0.0659 -0.2814  0.4209
   67SAPC  H20R 5633   2.934   2.172   8.269  1.0068  1.7193  0.9928
   67SAPC  H20S 5634   2.792   2.100   8.348  0.1780 -1.3309 -3.0203
   67SAPC  H20T 5635   2.865   2.245   8.421  0.5585 -1.6650  1.0029
   67SAPC   C33 5636   3.217   2.165   7.013  0.2830  0.1367  0.2693
   67SAPC   H3X 5637   3.122   2.109   6.994 -0.3407  1.0742  0.5315
   67SAPC   H3Y 5638   3.175   2.265   7.037 -2.5995 -0.7416 -0.6422
   67SAPC   C34 5639   3.291   2.097   7.133 -0.3926  0.8659  0.0530
   67SAPC   H4X 5640   3.394   2.139   7.143  1.1689 -2.2428 -1.5673
   67SAPC   H4Y 5641   3.310   1.991   7.105 -0.0054  1.4494 -2.0764
   67SAPC   C35 5642   3.233   2.108   7.273  0.5043 -0.4771  0.2998
   67SAPC   H5X 5643   3.138   2.050   7.281  0.6873 -1.1646 -1.7514
   67SAPC   H5Y 5644   3.204   2.212   7.295  1.1485 -0.1579 -0.3291
   67SAPC   C36 5645   3.329   2.042   7.374  0.3695  0.2815 -0.8625
   67SAPC   H6X 5646   3.431   2.085   7.380  0.7252 -0.6712  1.0041
   67SAPC   H6Y 5647   3.339   1.933   7.355  2.0378 -0.2068  2.1704
   67SAPC   C37 5648   3.270   2.064   7.513  0.4955  0.0805 -0.6395
   67SAPC   H7X 5649   3.312   1.982   7.575 -0.9901 -1.1849 -1.2475
   67SAPC   H7Y 5650   3.161   2.049   7.505  0.3522  1.0442 -0.6109
   67SAPC   C38 5651   3.296   2.193   7.579 -0.3317 -0.8391 -0.0620
   67SAPC   H8X 5652   3.258   2.270   7.508  1.0643 -1.1278 -1.1723
   67SAPC   H8Y 5653   3.406   2.203   7.584  0.1146 -4.2760 -0.0285
   67SAPC   C39 5654   3.236   2.223   7.715 -0.3436 -0.0526  0.5310
   67SAPC   H9X 5655   3.126   2.210   7.721 -0.3750  0.7247  2.4331
   67SAPC   H9Y 5656   3.270   2.324   7.745  3.0438 -1.3769  1.6536
   67SAPC  C310 5657   3.311   2.139   7.811  0.2374  0.1466  0.4114
   67SAPC  H10X 5658   3.421   2.158   7.806  0.0398  1.4448  0.6070
   67SAPC  H10Y 5659   3.309   2.033   7.780  0.1041  0.0210  0.8451
   67SAPC  C311 5660   3.249   2.154   7.954  0.3715  0.3034  0.0213
   67SAPC  H11X 5661   3.142   2.123   7.951  0.1947  0.8982 -3.3427
   67SAPC  H11Y 5662   3.265   2.263   7.971 -3.2387  1.1201 -0.9660
   67SAPC  C312 5663   3.313   2.089   8.069 -0.1522  0.4705  0.2576
   67SAPC  H12X 5664   3.407   2.143   8.091  0.8399 -2.1701  3.1996
   67SAPC  H12Y 5665   3.347   1.987   8.042  1.2806  1.3069 -1.2498
   67SAPC  C313 5666   3.224   2.089   8.198  0.0602 -0.4056 -0.1604
   67SAPC  H13X 5667   3.129   2.039   8.168 -1.2199  1.7321  0.1063
   67SAPC  H13Y 5668   3.207   2.195   8.226  1.6800 -0.4118  0.9487
   67SAPC  C314 5669   3.306   2.029   8.313 -0.5978  0.8782 -0.1583
   67SAPC  H14X 5670   3.404   2.081   8.314 -1.0175  1.7914  2.5188
   67SAPC  H14Y 5671   3.338   1.928   8.280 -1.0692  0.8952 -0.6884
   67SAPC  C315 5672   3.250   2.015   8.454  0.4793  0.2963 -0.0108
   67SAPC  H15X 5673   3.214   2.117   8.477  0.5874  0.5683 -1.0243
   67SAPC  H15Y 5674   3.334   1.990   8.523  0.6438 -1.1244 -0.6868
   67SAPC  C316 5675   3.142   1.912   8.485 -0.1463  0.3268 -0.1689
   67SAPC  H16X 5676   3.194   1.815   8.473  0.4197  0.6442 -0.3289
   67SAPC  H16Y 5677   3.071   1.920   8.400  0.0647 -1.3235 -0.5420
   67SAPC  C317 5678   3.066   1.933   8.620 -0.1985  0.9070 -0.0498
   67SAPC  H17X 5679   2.994   1.849   8.619  0.1913  0.5735  0.0472
   67SAPC  H17Y 5680   3.016   2.033   8.610 -2.4422 -0.1149  0.3602
   67SAPC  C318 5681   3.153   1.915   8.745 -0.2829  0.5748  0.4514
   67SAPC  H18X 5682   3.202   1.815   8.752  0.9558  1.1097 -0.2930
   67SAPC  H18Y 5683   3.087   1.915   8.834 -1.5470  1.0496 -0.4630
   67SAPC  H18Z 5684   3.224   2.001   8.744 -0.5769  0.8162  0.1121
   68SAPC     N 5685   0.963   0.339   5.980  0.0752 -0.5943 -0.5012
   68SAPC   C12 5686   1.086   0.338   5.898 -0.9199  0.0597 -0.1485
   68SAPC  H12A 5687   1.079   0.412   5.820  2.2527  1.7074  0.9542
   68SAPC  H12B 5688   1.099   0.242   5.849 -0.4881 -1.0586  2.0502
   68SAPC   C13 5689   0.938   0.471   6.046  0.1576  0.3895  0.7640
   68SAPC  H13A 5690   0.876   0.469   6.135 -1.7974  1.0140 -0.5405
   68SAPC  H13B 5691   1.033   0.513   6.075  0.0444 -0.2797  2.2171
   68SAPC  H13C 5692   0.886   0.527   5.970  0.2555 -2.1303 -1.2996
   68SAPC   C14 5693   0.841   0.308   5.902  0.1071 -0.6958 -0.0381
   68SAPC  H14A 5694   0.753   0.318   5.965 -0.3010 -0.7536 -0.5906
   68SAPC  H14B 5695   0.825   0.371   5.816  1.1954 -0.7680 -0.2962
   68SAPC  H14C 5696   0.844   0.205   5.869  0.1646 -1.0576  1.0453
   68SAPC   C15 5697   0.961   0.236   6.087 -0.0448  0.2921 -0.5957
   68SAPC  H15A 5698   0.901   0.250   6.175  0.8766 -0.1986  0.1214
   68SAPC  H15B 5699   0.948   0.136   6.048 -1.2254  0.3383 -0.3329
   68SAPC  H15C 5700   1.058   0.238   6.134 -0.5271  0.3375  0.4090
   68SAPC   C11 5701   1.216   0.378   5.975 -0.5253 -0.1110  0.4392
   68SAPC  H11A 5702   1.191   0.476   6.022 -2.4253 -0.9354  1.2398
   68SAPC  H11B 5703   1.299   0.391   5.903  1.5332 -3.4706  1.9532
   68SAPC     P 5704   1.320   0.149   6.058 -0.3315 -0.0710  0.2316
   68SAPC   O13 5705   1.242   0.063   6.149 -0.0132 -0.1981  0.0322
   68SAPC   O14 5706   1.320   0.109   5.917 -0.1873 -0.6677 -0.3670
   68SAPC   O12 5707   1.257   0.289   6.079 -0.6121 -0.2525 -0.1949
   68SAPC   O11 5708   1.477   0.155   6.114 -0.1654 -0.1482  0.0334
   68SAPC    C1 5709   1.517   0.285   6.171  0.2725  0.2269  0.1913
   68SAPC    HA 5710   1.544   0.350   6.085  0.5925  0.7481  0.6846
   68SAPC    HB 5711   1.437   0.339   6.226  1.9091  0.5373  2.3911
   68SAPC    C2 5712   1.635   0.275   6.257  0.8633 -0.1956  0.0091
   68SAPC    HS 5713   1.704   0.195   6.222  4.2240  1.0651  3.0031
   68SAPC   O21 5714   1.586   0.257   6.396  0.3120  0.7033 -1.0090
   68SAPC   C21 5715   1.595   0.134   6.442  0.1620 -0.6659 -0.5824
   68SAPC   O22 5716   1.641   0.045   6.375 -0.1771 -0.4828  0.2268
   68SAPC   C22 5717   1.509   0.124   6.568 -0.6052 -1.4584 -0.3977
   68SAPC   H2R 5718   1.494   0.226   6.609 -0.3109 -0.5015 -2.5053
   68SAPC   H2S 5719   1.414   0.081   6.528 -0.9655  1.1908 -2.7713
   68SAPC    C3 5720   1.733   0.396   6.258 -0.2729  0.2872  0.5986
   68SAPC    HX 5721   1.768   0.409   6.153 -2.0720  0.7227  0.0312
   68SAPC    HY 5722   1.811   0.370   6.333  0.8307  1.0834 -0.2308
   68SAPC   O31 5723   1.663   0.513   6.294 -0.0404 -0.4738 -0.6024
   68SAPC   C31 5724   1.743   0.623   6.302  0.4263 -0.4690  0.1961
   68SAPC   O32 5725   1.852   0.630   6.249 -0.8968 -0.3041 -0.5681
   68SAPC   C32 5726   1.676   0.733   6.375  0.0578  0.6548  0.1832
   68SAPC   H2X 5727   1.623   0.686   6.461  1.0225  1.3275  1.1778
   68SAPC   H2Y 5728   1.605   0.783   6.307  0.8901  0.8934 -0.5300
   68SAPC   C23 5729   1.558   0.032   6.679 -0.0346  1.1413 -0.3030
   68SAPC   H3R 5730   1.574  -0.070   6.637  1.9955  0.3416  2.2045
   68SAPC   H3S 5731   1.480   0.018   6.757  1.6163 -0.0907  1.2083
   68SAPC   C24 5732   1.702   0.064   6.741  0.0745  0.1731 -0.5083
   68SAPC   H4R 5733   1.790   0.049   6.674  0.5119  2.7570 -0.5999
   68SAPC   H4S 5734   1.719  -0.001   6.829  0.5986 -1.7918 -1.9860
   68SAPC   C25 5735   1.718   0.204   6.790  0.0672  0.1866 -1.2999
   68SAPC   H5R 5736   1.740   0.278   6.711  0.8962  1.4880  0.0973
   68SAPC   C26 5737   1.710   0.248   6.914  0.2139  0.1349 -0.2054
   68SAPC   H6R 5738   1.738   0.353   6.935 -0.2287  0.0759  0.7362
   68SAPC   C27 5739   1.676   0.165   7.040  0.4593  0.1086 -0.2651
   68SAPC   H7R 5740   1.607   0.085   7.005  0.6602 -0.3476  0.3638
   68SAPC   H7S 5741   1.610   0.212   7.116 -0.7255 -0.7554 -0.7363
   68SAPC   C28 5742   1.797   0.108   7.103  0.5826  0.4947 -0.0135
   68SAPC   H8R 5743   1.875   0.060   7.043  1.5368 -0.4883  1.9253
   68SAPC   C29 5744   1.842   0.126   7.228  0.7530  0.0246 -0.3006
   68SAPC   H9R 5745   1.933   0.068   7.251  1.1165  0.4106 -0.7469
   68SAPC  C210 5746   1.774   0.207   7.333  0.0705 -0.3475  0.7240
   68SAPC  H10R 5747   1.739   0.145   7.418  0.2330  1.7230  2.4022
   68SAPC  H10S 5748   1.681   0.252   7.292  0.4813 -0.0306  0.1236
   68SAPC  C211 5749   1.852   0.323   7.385 -0.5231 -0.0342  0.3731
   68SAPC  H11R 5750   1.957   0.339   7.357  0.0306  0.9558  2.7560
   68SAPC  C212 5751   1.795   0.411   7.473  0.0694 -0.1735  0.2006
   68SAPC  H12R 5752   1.846   0.507   7.492 -1.1718  0.4231  0.6597
   68SAPC  C213 5753   1.651   0.412   7.516 -0.3481 -0.7910  0.4092
   68SAPC  H13R 5754   1.637   0.354   7.610 -0.7034  1.4336  1.8245
   68SAPC  H13S 5755   1.587   0.357   7.444 -0.6577 -1.3411  1.0980
   68SAPC  C214 5756   1.595   0.550   7.551 -0.2040 -0.3045  0.0700
   68SAPC  H14R 5757   1.605   0.568   7.659 -2.9507 -1.1413  0.5256
   68SAPC  C215 5758   1.526   0.632   7.473 -0.1365 -0.1616  0.3982
   68SAPC  H15R 5759   1.485   0.724   7.517  1.4750  2.0620 -2.3963
   68SAPC  C216 5760   1.502   0.624   7.325  0.3078 -0.0040 -0.1082
   68SAPC  H16R 5761   1.403   0.579   7.302 -0.0984  0.4956  0.6288
   68SAPC  H16S 5762   1.575   0.550   7.284 -0.1174 -1.1901  1.1947
   68SAPC  C217 5763   1.539   0.757   7.256 -0.1666 -0.5081  0.0989
   68SAPC  H17R 5764   1.647   0.775   7.272 -0.0138 -0.5592 -0.8169
   68SAPC  H17S 5765   1.463   0.819   7.309 -2.0187 -3.5050  1.2058
   68SAPC  C218 5766   1.502   0.759   7.101  0.5885 -0.5813 -1.0389
   68SAPC  H18R 5767   1.512   0.859   7.055 -1.2845  0.1828  0.1115
   68SAPC  H18S 5768   1.396   0.730   7.089  0.1892 -0.3812  1.4577
   68SAPC  C219 5769   1.578   0.663   7.015 -0.1057 -0.4271 -0.4857
   68SAPC  H19R 5770   1.555   0.558   7.042  1.5237 -0.5096  0.6947
   68SAPC  H19S 5771   1.683   0.688   7.039 -0.4386  1.1770 -0.5991
   68SAPC  C220 5772   1.547   0.694   6.870  0.2966 -0.0448  0.4506
   68SAPC  H20R 5773   1.440   0.699   6.841  0.5764 -1.7113 -1.0540
   68SAPC  H20S 5774   1.608   0.629   6.803  2.4064  3.1652 -1.0048
   68SAPC  H20T 5775   1.581   0.793   6.832  1.1316 -0.7114 -0.6470
   68SAPC   C33 5776   1.780   0.826   6.445  0.1909  0.1315  0.1547
   68SAPC   H3X 5777   1.842   0.870   6.364 -0.1825 -2.1968 -1.4908
   68SAPC   H3Y 5778   1.843   0.765   6.513 -1.1309  0.5109  1.7809
   68SAPC   C34 5779   1.705   0.939   6.525  0.2920  0.5688  0.6831
   68SAPC   H4X 5780   1.643   0.892   6.604  0.8749 -2.4875 -0.5467
   68SAPC   H4Y 5781   1.635   0.982   6.450  1.4488  0.2699 -0.6095
   68SAPC   C35 5782   1.796   1.042   6.576 -1.1680  0.1220 -0.2437
   68SAPC   H5X 5783   1.817   1.116   6.496  1.1130  0.0869  0.2404
   68SAPC   H5Y 5784   1.891   0.984   6.581 -1.4653 -0.3799 -0.3761
   68SAPC   C36 5785   1.775   1.096   6.718 -0.3240  0.5281 -0.5001
   68SAPC   H6X 5786   1.772   1.008   6.786  1.6029  0.5977 -0.2712
   68SAPC   H6Y 5787   1.678   1.148   6.731  1.0379  2.9960  0.4293
   68SAPC   C37 5788   1.893   1.188   6.751  0.2496 -0.0364  0.3217
   68SAPC   H7X 5789   1.906   1.272   6.680  2.4708 -0.4854  0.1401
   68SAPC   H7Y 5790   1.993   1.142   6.737  0.7991  1.5995 -1.4657
   68SAPC   C38 5791   1.903   1.241   6.891  0.3678 -0.2277 -0.5342
   68SAPC   H8X 5792   1.899   1.155   6.962 -0.9806 -0.0268 -0.3387
   68SAPC   H8Y 5793   1.829   1.314   6.931 -0.6258 -1.5169  0.0587
   68SAPC   C39 5794   2.041   1.314   6.919  0.4899  0.0991  0.4164
   68SAPC   H9X 5795   2.053   1.402   6.853  1.3739  0.1348  0.6181
   68SAPC   H9Y 5796   2.120   1.239   6.896 -0.7271 -0.6111 -1.7290
   68SAPC  C310 5797   2.064   1.355   7.060  0.5378 -0.9961  0.1565
   68SAPC  H10X 5798   2.021   1.279   7.128 -1.7598  0.7597  0.7957
   68SAPC  H10Y 5799   2.012   1.451   7.076  2.0751 -0.1478  0.2077
   68SAPC  C311 5800   2.209   1.392   7.087 -0.6421 -0.4871  0.4238
   68SAPC  H11X 5801   2.261   1.294   7.086  1.7766  0.7287  0.4551
   68SAPC  H11Y 5802   2.220   1.432   7.190  0.9792 -1.7614  0.7770
   68SAPC  C312 5803   2.274   1.493   6.982  1.0664  0.0804  0.8176
   68SAPC  H12X 5804   2.214   1.586   6.991  1.2799  0.3503 -0.3345
   68SAPC  H12Y 5805   2.250   1.445   6.884 -0.1244 -0.2706  1.2666
   68SAPC  C313 5806   2.421   1.535   7.006 -0.1886 -0.2015 -1.0389
   68SAPC  H13X 5807   2.446   1.607   6.925 -2.1418 -0.5025 -1.9743
   68SAPC  H13Y 5808   2.483   1.443   7.011 -2.0138 -1.4111  2.8513
   68SAPC  C314 5809   2.435   1.589   7.151  0.1159 -0.3518 -0.3312
   68SAPC  H14X 5810   2.416   1.510   7.228 -0.4184  1.2703  1.2738
   68SAPC  H14Y 5811   2.353   1.663   7.158 -1.3344 -1.6544 -2.3662
   68SAPC  C315 5812   2.567   1.651   7.177  0.0679 -0.8087 -0.4505
   68SAPC  H15X 5813   2.654   1.582   7.177 -0.5169 -1.8771  4.0605
   68SAPC  H15Y 5814   2.568   1.706   7.274  2.7926  1.1387 -1.4579
   68SAPC  C316 5815   2.604   1.767   7.075 -0.2131  0.3494 -0.0661
   68SAPC  H16X 5816   2.530   1.850   7.062 -1.5064 -0.9747 -1.5609
   68SAPC  H16Y 5817   2.626   1.719   6.977  0.8591  0.3987  0.1362
   68SAPC  C317 5818   2.732   1.836   7.129  0.1885  0.1636 -0.1041
   68SAPC  H17X 5819   2.799   1.756   7.167 -1.5194  0.0466  2.9980
   68SAPC  H17Y 5820   2.707   1.883   7.226 -0.7022  0.0009 -0.2495
   68SAPC  C318 5821   2.814   1.924   7.030  0.0251  0.1868 -0.1823
   68SAPC  H18X 5822   2.758   2.015   7.003 -0.7335 -0.1892  0.0916
   68SAPC  H18Y 5823   2.837   1.865   6.939  0.5762 -0.3261  0.2723
   68SAPC  H18Z 5824   2.908   1.954   7.081  0.3628 -1.3548  0.1711
   69SLPC     N 5825   0.411   0.858  10.923 -0.0473  0.0067  0.2717
   69SLPC   C13 5826   0.509   0.773  10.852 -0.2048  0.2207  0.5282
   69SLPC  H13A 5827   0.524   0.822  10.756 -1.7902 -0.0476  0.1162
   69SLPC  H13B 5828   0.600   0.769  10.909  0.4912  0.1781 -0.5397
   69SLPC  H13C 5829   0.470   0.673  10.851  0.3873 -0.0213 -0.8663
   69SLPC   C14 5830   0.472   0.993  10.929 -0.3611  0.3351  0.5647
   69SLPC  H14A 5831   0.504   1.040  10.837  1.0053  0.0192  0.8542
   69SLPC  H14B 5832   0.417   1.069  10.983  1.7484 -0.1717  3.7151
   69SLPC  H14C 5833   0.564   0.987  10.986 -0.7284 -0.1176  1.1289
   69SLPC   C15 5834   0.408   0.811  11.063  0.0106  0.2926  0.0993
   69SLPC  H15A 5835   0.360   0.881  11.130 -1.8581 -0.6461 -0.1974
   69SLPC  H15B 5836   0.355   0.717  11.070  0.8564 -0.1226  1.6630
   69SLPC  H15C 5837   0.509   0.789  11.097  1.1107  1.5913 -2.1273
   69SLPC   C12 5838   0.275   0.866  10.855  0.2707 -0.5853 -0.3670
   69SLPC  H12A 5839   0.293   0.906  10.757 -0.4345 -2.0138 -1.1130
   69SLPC  H12B 5840   0.223   0.943  10.910  1.0897  1.0815 -1.8065
   69SLPC   C11 5841   0.189   0.739  10.848  0.5555 -0.1852 -0.3512
   69SLPC  H11A 5842   0.247   0.673  10.781  3.2585 -0.3087  1.9585
   69SLPC  H11B 5843   0.096   0.783  10.805  1.8898  1.1125 -2.0059
   69SLPC     P 5844   0.114   0.528  10.979 -0.5379 -0.0347  0.2284
   69SLPC   O13 5845   0.223   0.441  10.920  0.3197 -0.2231  0.6432
   69SLPC   O14 5846   0.067   0.490  11.115  0.0158  0.2120  0.3090
   69SLPC   O12 5847   0.156   0.679  10.978  0.1610 -0.2381  0.0345
   69SLPC   O11 5848  -0.011   0.528  10.877 -0.7451 -0.3171 -0.3679
   69SLPC    C1 5849  -0.039   0.404  10.806  0.3489 -0.4773  0.5876
   69SLPC    HA 5850  -0.054   0.317  10.873  2.2363 -1.3828 -0.1200
   69SLPC    HB 5851  -0.147   0.414  10.779 -0.2550 -0.0662  2.9250
   69SLPC    C2 5852   0.054   0.374  10.685 -0.0241 -0.4185 -0.0416
   69SLPC    HS 5853   0.152   0.344  10.730  0.6276 -0.1151 -1.2270
   69SLPC   O21 5854   0.050   0.497  10.601 -1.0311  0.0871 -0.3178
   69SLPC   C21 5855   0.166   0.519  10.540 -1.1523 -0.4127  0.9262
   69SLPC   O22 5856   0.271   0.455  10.549  0.2801 -0.0758  0.6929
   69SLPC   C22 5857   0.147   0.637  10.446 -0.1991  0.2885 -0.0604
   69SLPC   H2R 5858   0.042   0.667  10.463 -0.4339 -1.3840  1.7550
   69SLPC   H2S 5859   0.208   0.720  10.487 -1.2140  1.4431 -0.8176
   69SLPC    C3 5860  -0.009   0.250  10.605  0.5910  0.0276 -0.1430
   69SLPC    HX 5861  -0.106   0.283  10.563  1.4897  1.6845 -1.0647
   69SLPC    HY 5862  -0.020   0.164  10.674  3.1410 -1.0155 -0.9146
   69SLPC   O31 5863   0.089   0.206  10.504 -0.1319 -0.1094  0.4644
   69SLPC   C31 5864   0.051   0.231  10.376  0.6007  0.2887  0.3558
   69SLPC   O32 5865  -0.037   0.307  10.345  0.3998  0.3565 -0.2343
   69SLPC   C32 5866   0.148   0.157  10.275 -0.0464 -0.2739  0.4205
   69SLPC   H2X 5867   0.159   0.051  10.304 -0.4091 -0.0555  1.4152
   69SLPC   H2Y 5868   0.245   0.212  10.269 -0.8297  1.1256  0.0118
   69SLPC   C23 5869   0.167   0.614  10.295 -0.0466  0.8755 -0.2608
   69SLPC   H3R 5870   0.095   0.537  10.261 -0.0316  1.3545 -1.4301
   69SLPC   H3S 5871   0.267   0.574  10.268  0.1834  1.5918 -0.5035
   69SLPC   C24 5872   0.137   0.732  10.201 -0.0418 -0.3466  0.5720
   69SLPC   H4R 5873   0.227   0.797  10.197  0.4125 -1.0214 -0.6016
   69SLPC   H4S 5874   0.063   0.799  10.250  0.3429  0.0659  0.5979
   69SLPC   C25 5875   0.091   0.697  10.060 -0.0287 -0.0016 -0.0010
   69SLPC   H5R 5876  -0.005   0.644  10.078 -0.7597  1.1456 -0.4155
   69SLPC   H5S 5877   0.158   0.623  10.011 -0.5363 -1.5350  1.4936
   69SLPC   C26 5878   0.057   0.812   9.970 -0.0709  0.2736  0.0021
   69SLPC   H6R 5879  -0.006   0.893  10.014 -0.5025 -0.9535  1.7209
   69SLPC   H6S 5880  -0.005   0.773   9.887  0.5065  0.6416 -0.6176
   69SLPC   C27 5881   0.179   0.878   9.907 -0.3097 -0.5336 -0.7163
   69SLPC   H7R 5882   0.231   0.815   9.832  0.3802  1.7018 -2.2290
   69SLPC   H7S 5883   0.257   0.895   9.985 -1.7926  2.6951  0.2600
   69SLPC   C28 5884   0.151   1.013   9.834  0.6277  0.1979  0.4743
   69SLPC   H8R 5885   0.096   1.091   9.890  1.0616  0.6786  0.2273
   69SLPC   H8S 5886   0.086   0.993   9.746 -0.4726 -0.8635  1.4863
   69SLPC   C29 5887   0.280   1.073   9.793 -0.3576  0.0671 -0.6995
   69SLPC   H9R 5888   0.365   1.084   9.862  0.1609 -2.3941 -0.8539
   69SLPC  C210 5889   0.306   1.112   9.670 -0.3020  0.0273  0.1108
   69SLPC  H10R 5890   0.404   1.157   9.649 -0.1877  0.3592  1.2299
   69SLPC  C211 5891   0.212   1.105   9.551  0.4078  0.2435  0.0206
   69SLPC  H11R 5892   0.252   1.176   9.476  0.6377  0.4080  0.2985
   69SLPC  H11S 5893   0.112   1.133   9.591 -0.0367 -2.6655  1.2399
   69SLPC  C212 5894   0.202   0.965   9.493 -0.1221  0.5137 -0.2212
   69SLPC  H12R 5895   0.262   0.888   9.544 -0.3528  0.8994  0.6480
   69SLPC  C213 5896   0.140   0.932   9.377 -0.7499 -0.2892  0.0715
   69SLPC  H13R 5897   0.143   0.830   9.334  0.1645  0.4710 -1.7810
   69SLPC  C214 5898   0.068   1.031   9.297  0.4542 -0.5493  0.0139
   69SLPC  H14R 5899   0.129   1.119   9.270 -0.8327  0.3120 -0.1873
   69SLPC  H14S 5900  -0.017   1.078   9.350  0.3527 -1.2977  0.5320
   69SLPC  C215 5901   0.023   0.963   9.174 -0.3300 -0.0448  0.5922
   69SLPC  H15R 5902  -0.041   1.022   9.105  0.2908  1.0895  0.9600
   69SLPC  H15S 5903  -0.035   0.874   9.208 -1.2198 -0.0835 -0.9395
   69SLPC  C216 5904   0.138   0.910   9.085  0.1977 -0.5139 -0.1707
   69SLPC  H16R 5905   0.087   0.852   9.004 -2.1468 -0.2153  1.0077
   69SLPC  H16S 5906   0.209   0.838   9.130  0.6645  0.2657  0.3472
   69SLPC  C217 5907   0.212   1.019   9.003  0.6943 -0.0097 -0.5195
   69SLPC  H17R 5908   0.279   1.066   9.079  1.0289 -1.2601 -0.0163
   69SLPC  H17S 5909   0.131   1.087   8.971 -0.8118 -1.7068 -0.4917
   69SLPC  C218 5910   0.284   0.976   8.876  0.1215  0.7739 -0.3763
   69SLPC  H18R 5911   0.350   0.887   8.887 -0.7928  0.2572  1.4792
   69SLPC  H18S 5912   0.344   1.061   8.839  1.2778 -0.7352 -2.1216
   69SLPC  H18T 5913   0.211   0.943   8.799 -0.9556  0.4943  0.7231
   69SLPC   C33 5914   0.088   0.158  10.130 -1.0270  0.1807 -0.7559
   69SLPC   H3X 5915  -0.017   0.122  10.130 -0.4192 -1.7373 -1.9805
   69SLPC   H3Y 5916   0.135   0.075  10.073 -1.3553 -0.1316 -0.5823
   69SLPC   C34 5917   0.109   0.297  10.066  0.3643  0.4858 -0.1104
   69SLPC   H4X 5918   0.216   0.324  10.061  0.3985  0.1204 -1.9120
   69SLPC   H4Y 5919   0.052   0.374  10.122 -0.4218 -0.3664  0.3099
   69SLPC   C35 5920   0.067   0.292   9.920  0.8981  0.3731  0.1176
   69SLPC   H5X 5921  -0.039   0.262   9.910  1.6110 -2.3785  0.1636
   69SLPC   H5Y 5922   0.126   0.208   9.879 -0.2760  0.9459 -3.0024
   69SLPC   C36 5923   0.106   0.412   9.835 -0.6484 -0.5769  0.0277
   69SLPC   H6X 5924   0.216   0.433   9.837 -1.0690  2.6474 -2.3044
   69SLPC   H6Y 5925   0.065   0.504   9.882  1.0304  0.0181  0.4245
   69SLPC   C37 5926   0.068   0.412   9.682 -0.5152  0.1797  0.1623
   69SLPC   H7X 5927  -0.042   0.404   9.679 -0.4655 -0.7999  0.4459
   69SLPC   H7Y 5928   0.124   0.329   9.634  0.0202 -0.6411  2.1038
   69SLPC   C38 5929   0.110   0.547   9.624  0.8879 -0.9036 -0.3564
   69SLPC   H8X 5930   0.200   0.577   9.681  0.3032  0.2297  0.0010
   69SLPC   H8Y 5931   0.031   0.622   9.648  1.4435 -0.4568  0.1062
   69SLPC   C39 5932   0.116   0.540   9.468 -0.2285  0.0175 -0.1057
   69SLPC   H9X 5933   0.201   0.482   9.426  1.1941  2.9820 -1.6507
   69SLPC   H9Y 5934   0.140   0.644   9.438 -0.4107  0.6293  1.7234
   69SLPC  C310 5935  -0.017   0.485   9.415  0.2261  0.6320  0.2003
   69SLPC  H10X 5936  -0.110   0.522   9.464  0.4823 -1.4318  2.4484
   69SLPC  H10Y 5937  -0.022   0.377   9.443 -2.7072  0.4703 -0.6745
   69SLPC  C311 5938  -0.027   0.501   9.263 -0.0934  0.2543 -0.6807
   69SLPC  H11X 5939   0.057   0.447   9.215  0.8365  2.3422 -1.4853
   69SLPC  H11Y 5940  -0.018   0.610   9.247  2.0546  0.4119  1.1065
   69SLPC  C312 5941  -0.158   0.431   9.204  0.1542  0.4149 -0.3673
   69SLPC  H12X 5942  -0.248   0.470   9.255 -0.1187  0.8137 -1.1453
   69SLPC  H12Y 5943  -0.147   0.326   9.240 -1.8582  0.5915  0.9053
   69SLPC  C313 5944  -0.178   0.433   9.054  0.2305 -0.9085  0.2858
   69SLPC  H13X 5945  -0.269   0.377   9.022  0.2068  0.0641 -1.4628
   69SLPC  H13Y 5946  -0.086   0.382   9.019  0.2122 -0.7358 -0.0139
   69SLPC  C314 5947  -0.179   0.577   8.991  0.1991  1.3487  0.0562
   69SLPC  H14X 5948  -0.078   0.618   9.012  0.6426 -0.6430  2.2038
   69SLPC  H14Y 5949  -0.261   0.632   9.042 -0.7638 -0.6831  0.8034
   69SLPC  C315 5950  -0.197   0.563   8.844  0.5346  0.1566  0.5673
   69SLPC  H15X 5951  -0.301   0.533   8.818  0.6944  0.6435 -0.7025
   69SLPC  H15Y 5952  -0.136   0.482   8.798 -1.7701 -0.5562 -1.3921
   69SLPC  C316 5953  -0.167   0.687   8.766 -0.5796 -0.1805  0.2675
   69SLPC  H16X 5954  -0.058   0.709   8.776 -0.5675 -0.5738  1.1220
   69SLPC  H16Y 5955  -0.215   0.778   8.808  0.5194  0.5812 -0.0749
   69SLPC  C317 5956  -0.204   0.678   8.615  0.3233 -0.0483  0.2910
   69SLPC  H17X 5957  -0.211   0.782   8.576  0.5518 -0.6054 -1.2840
   69SLPC  H17Y 5958  -0.308   0.639   8.614  0.4750 -0.4784  0.8530
   69SLPC  C318 5959  -0.121   0.598   8.514  0.3575 -0.1076 -0.7780
   69SLPC  H18X 5960  -0.187   0.554   8.435  1.4561  1.3108 -2.5697
   69SLPC  H18Y 5961  -0.074   0.513   8.568 -0.2098  0.1556  0.1453
   69SLPC  H18Z 5962  -0.039   0.661   8.473  0.3458  0.1297 -0.4390
   70SLPC     N 5963   1.382   2.679  10.810  0.0727  0.8030  0.1318
   70SLPC   C13 5964   1.492   2.709  10.912  0.6991  0.7646  0.1220
   70SLPC  H13A 5965   1.564   2.629  10.920  0.0531  0.1422 -0.1458
   70SLPC  H13B 5966   1.543   2.792  10.866  1.0545  0.3461 -0.2435
   70SLPC  H13C 5967   1.444   2.741  11.003 -0.7349 -1.0578  0.0581
   70SLPC   C14 5968   1.319   2.556  10.875 -0.4135 -0.1700 -0.5589
   70SLPC  H14A 5969   1.253   2.503  10.808 -0.1406 -1.6141  0.2822
   70SLPC  H14B 5970   1.390   2.479  10.900 -0.5438 -0.2011 -0.2800
   70SLPC  H14C 5971   1.262   2.578  10.964 -1.5207 -0.9726 -1.0391
   70SLPC   C15 5972   1.434   2.634  10.678  0.1459 -0.0291  0.2338
   70SLPC  H15A 5973   1.353   2.594  10.618 -1.2584 -1.2040  2.7447
   70SLPC  H15B 5974   1.478   2.713  10.619 -1.6838 -0.2762 -1.5729
   70SLPC  H15C 5975   1.512   2.559  10.687  1.5942  0.7173 -3.7971
   70SLPC   C12 5976   1.288   2.794  10.805 -0.2788 -0.2179 -0.7263
   70SLPC  H12A 5977   1.264   2.815  10.908 -0.8819 -1.8886 -0.4867
   70SLPC  H12B 5978   1.198   2.756  10.761 -0.7815 -2.8327  2.1625
   70SLPC   C11 5979   1.342   2.924  10.750  0.3071  0.2490  0.1640
   70SLPC  H11A 5980   1.272   3.004  10.780  1.2595  1.0797  0.2149
   70SLPC  H11B 5981   1.337   2.904  10.641 -0.8571 -0.1104  0.2698
   70SLPC     P 5982   1.593   3.005  10.724  0.5218  0.2868 -0.0500
   70SLPC   O13 5983   1.686   3.061  10.818  0.0403 -0.3436 -0.4180
   70SLPC   O14 5984   1.633   2.888  10.637  0.0814 -0.2603 -0.2690
   70SLPC   O12 5985   1.463   2.958  10.806  0.1143 -0.1838 -0.3485
   70SLPC   O11 5986   1.528   3.119  10.629 -0.0998 -0.1158 -0.4204
   70SLPC    C1 5987   1.533   3.095  10.492  0.9360 -0.5349  0.6290
   70SLPC    HA 5988   1.633   3.053  10.464  1.4067  0.4834  0.7425
   70SLPC    HB 5989   1.454   3.029  10.451  0.5192  1.5108 -2.1002
   70SLPC    C2 5990   1.546   3.231  10.419 -0.0411 -0.5500  0.4898
   70SLPC    HS 5991   1.450   3.286  10.432  1.0809  1.1528  2.1243
   70SLPC   O21 5992   1.580   3.213  10.281  0.4349  0.1081  0.7547
   70SLPC   C21 5993   1.486   3.171  10.204 -0.1163  0.1983 -0.2536
   70SLPC   O22 5994   1.366   3.155  10.226  0.1937 -0.9403 -0.1111
   70SLPC   C22 5995   1.555   3.129  10.067  0.3031  0.3086 -0.2848
   70SLPC   H2R 5996   1.574   3.226  10.017 -0.7451  1.0242  0.6519
   70SLPC   H2S 5997   1.641   3.063  10.091 -1.8506 -1.8868  2.0652
   70SLPC    C3 5998   1.657   3.321  10.477  0.4795  0.1987 -0.9708
   70SLPC    HX 5999   1.747   3.261  10.503  2.9074  2.8735 -2.6662
   70SLPC    HY 6000   1.624   3.351  10.579 -1.1655 -0.7587 -1.1812
   70SLPC   O31 6001   1.694   3.439  10.398 -0.2770  0.2090 -0.0999
   70SLPC   C31 6002   1.610   3.534  10.411  0.2066  0.0311  0.4337
   70SLPC   O32 6003   1.504   3.534  10.474  0.1953 -0.3560 -0.1209
   70SLPC   C32 6004   1.664   3.645  10.322  0.7451  0.5546 -0.2898
   70SLPC   H2X 6005   1.775   3.651  10.322  0.6987  1.6527 -0.5084
   70SLPC   H2Y 6006   1.629   3.740  10.368 -0.5105 -0.4447  0.9191
   70SLPC   C23 6007   1.450   3.054   9.987  0.3023 -0.1221 -0.4593
   70SLPC   H3R 6008   1.350   3.101   9.990 -0.3389 -1.4388 -0.7105
   70SLPC   H3S 6009   1.442   2.952  10.030  1.5699  0.1706  0.5391
   70SLPC   C24 6010   1.480   3.041   9.840 -0.3779  0.8557  0.6013
   70SLPC   H4R 6011   1.431   2.948   9.806  0.9700  0.6721 -0.9530
   70SLPC   H4S 6012   1.591   3.036   9.841 -0.4392 -1.0693  0.1031
   70SLPC   C25 6013   1.436   3.162   9.741 -0.0270  0.0616 -0.3799
   70SLPC   H5R 6014   1.493   3.253   9.769  0.4373 -0.3290 -0.0391
   70SLPC   H5S 6015   1.333   3.193   9.765  0.8071  0.5622  3.1542
   70SLPC   C26 6016   1.451   3.118   9.593  0.1750 -0.5735 -0.0230
   70SLPC   H6R 6017   1.405   3.018   9.575  0.1139 -0.6935  0.7368
   70SLPC   H6S 6018   1.557   3.112   9.562  0.6573 -1.0310  1.6110
   70SLPC   C27 6019   1.387   3.219   9.493  0.3001 -0.0221 -0.2123
   70SLPC   H7R 6020   1.432   3.320   9.507  1.2279 -0.2722 -1.2531
   70SLPC   H7S 6021   1.286   3.237   9.535  1.6126  2.5877  2.1765
   70SLPC   C28 6022   1.390   3.154   9.354 -0.0647  0.0139 -0.0486
   70SLPC   H8R 6023   1.324   3.065   9.352 -0.4018  0.2618 -0.0317
   70SLPC   H8S 6024   1.491   3.119   9.322 -0.4699 -0.5763 -0.7140
   70SLPC   C29 6025   1.324   3.240   9.246  0.4970  0.7036 -0.0923
   70SLPC   H9R 6026   1.215   3.253   9.259  0.5616  0.5457  0.6140
   70SLPC  C210 6027   1.385   3.301   9.146 -0.0063  0.2877  0.6829
   70SLPC  H10R 6028   1.328   3.344   9.062  1.0706  3.5997  1.5091
   70SLPC  C211 6029   1.532   3.287   9.123  0.3043  0.2445 -0.1474
   70SLPC  H11R 6030   1.559   3.183   9.092  0.5173  0.6279 -1.3288
   70SLPC  H11S 6031   1.578   3.303   9.223  0.4380  1.9228 -0.4404
   70SLPC  C212 6032   1.594   3.382   9.025  0.7746  0.2922  0.7785
   70SLPC  H12R 6033   1.669   3.452   9.066 -0.0354  0.8186  1.4165
   70SLPC  C213 6034   1.581   3.385   8.894  0.5195 -0.1129 -0.2858
   70SLPC  H13R 6035   1.664   3.432   8.838  0.7563  1.7421  1.5221
   70SLPC  C214 6036   1.500   3.282   8.820 -0.8213 -0.9349  0.0422
   70SLPC  H14R 6037   1.447   3.210   8.885  1.7287 -2.4328  0.5943
   70SLPC  H14S 6038   1.573   3.220   8.764  0.4526  1.7473 -1.4609
   70SLPC  C215 6039   1.396   3.345   8.727  0.1183  0.4741 -0.2628
   70SLPC  H15R 6040   1.321   3.393   8.794  0.6099 -1.1735  1.5504
   70SLPC  H15S 6041   1.343   3.258   8.684  1.9409 -0.0730 -1.4825
   70SLPC  C216 6042   1.445   3.433   8.614  0.2677 -0.0911  0.2361
   70SLPC  H16R 6043   1.532   3.383   8.567  0.8754  2.1177 -1.1207
   70SLPC  H16S 6044   1.492   3.519   8.667 -0.2661  1.4611 -1.6696
   70SLPC  C217 6045   1.344   3.487   8.507 -0.5537 -0.6662  0.1775
   70SLPC  H17R 6046   1.400   3.560   8.444  0.3935 -0.1471  1.5406
   70SLPC  H17S 6047   1.265   3.545   8.559  1.9040  1.6030  1.7275
   70SLPC  C218 6048   1.295   3.373   8.410 -0.1821 -0.2043  0.0195
   70SLPC  H18R 6049   1.275   3.282   8.471 -1.8092 -0.7657 -1.2761
   70SLPC  H18S 6050   1.377   3.348   8.340 -1.1631 -0.3138 -1.1154
   70SLPC  H18T 6051   1.204   3.403   8.354 -0.9078  3.7023  2.8665
   70SLPC   C33 6052   1.602   3.629  10.178  0.0067 -0.1046  0.2170
   70SLPC   H3X 6053   1.503   3.676  10.195 -0.4674 -1.1301  0.4013
   70SLPC   H3Y 6054   1.587   3.524  10.143 -0.4659  0.7501 -2.3868
   70SLPC   C34 6055   1.686   3.692  10.070  0.1697 -0.1147  0.7301
   70SLPC   H4X 6056   1.776   3.631  10.046  0.0364 -0.0695  0.0820
   70SLPC   H4Y 6057   1.721   3.791  10.104 -1.4858  0.7562  0.0303
   70SLPC   C35 6058   1.606   3.720   9.941  0.3329 -0.6188  0.7846
   70SLPC   H5X 6059   1.517   3.786   9.951  0.2480 -0.7567  0.9417
   70SLPC   H5Y 6060   1.566   3.624   9.902  0.2428 -0.9600  1.6800
   70SLPC   C36 6061   1.699   3.763   9.825 -0.3799 -1.1852 -0.5306
   70SLPC   H6X 6062   1.772   3.683   9.801  2.1439  0.7401  0.2924
   70SLPC   H6Y 6063   1.764   3.850   9.847  1.6680 -3.0465  1.1666
   70SLPC   C37 6064   1.628   3.799   9.694  0.5505 -0.0158  0.6969
   70SLPC   H7X 6065   1.688   3.850   9.616 -3.5908  2.8059 -1.0221
   70SLPC   H7Y 6066   1.539   3.860   9.721 -1.0982 -2.0380  0.0575
   70SLPC   C38 6067   1.560   3.680   9.624  0.9419  0.3805 -0.3076
   70SLPC   H8X 6068   1.472   3.646   9.684 -0.7554  0.8086 -2.4123
   70SLPC   H8Y 6069   1.625   3.591   9.606  0.2594 -0.1405 -0.2553
   70SLPC   C39 6070   1.495   3.722   9.492  0.0748 -0.2613 -0.0520
   70SLPC   H9X 6071   1.570   3.769   9.425 -1.3968  0.9576 -0.9283
   70SLPC   H9Y 6072   1.420   3.799   9.520 -0.5109 -1.6738  2.5299
   70SLPC  C310 6073   1.413   3.611   9.422 -0.1627 -0.0087 -0.0384
   70SLPC  H10X 6074   1.334   3.577   9.492  1.1843  0.3236  1.7064
   70SLPC  H10Y 6075   1.487   3.532   9.397 -0.6230 -1.1313  1.9252
   70SLPC  C311 6076   1.344   3.650   9.284  0.4103 -0.3105 -0.5845
   70SLPC  H11X 6077   1.250   3.591   9.281  1.1006 -1.4389 -0.6147
   70SLPC  H11Y 6078   1.408   3.607   9.204  2.1621 -0.0345  0.6071
   70SLPC  C312 6079   1.326   3.801   9.273 -0.1978 -0.1393  0.6001
   70SLPC  H12X 6080   1.421   3.857   9.258 -0.1405  0.5747  3.1550
   70SLPC  H12Y 6081   1.283   3.835   9.369  1.2570 -2.3695  2.1200
   70SLPC  C313 6082   1.233   3.825   9.152 -0.3607  0.3922 -0.4496
   70SLPC  H13X 6083   1.204   3.932   9.161 -0.2941  0.4334 -0.7041
   70SLPC  H13Y 6084   1.139   3.771   9.173  1.5757 -4.1804 -2.1549
   70SLPC  C314 6085   1.277   3.807   9.006 -0.6948  0.0669 -0.0815
   70SLPC  H14X 6086   1.261   3.699   8.981  3.4712 -0.8942  0.6774
   70SLPC  H14Y 6087   1.388   3.808   9.013 -0.7209 -1.4586  1.2404
   70SLPC  C315 6088   1.206   3.899   8.906 -0.9001 -0.1410 -0.4548
   70SLPC  H15X 6089   1.229   4.006   8.927  0.8447  0.0069 -2.7483
   70SLPC  H15Y 6090   1.097   3.877   8.911 -0.7371 -0.8085  0.5439
   70SLPC  C316 6091   1.258   3.851   8.771 -0.2034 -0.3222 -1.2000
   70SLPC  H16X 6092   1.221   3.747   8.756 -3.4149  0.7207 -1.4138
   70SLPC  H16Y 6093   1.368   3.850   8.782 -0.4504  1.1594  2.8370
   70SLPC  C317 6094   1.191   3.935   8.662  0.7014 -0.0406  1.2823
   70SLPC  H17X 6095   1.206   4.044   8.678  0.1112 -0.1946  3.1005
   70SLPC  H17Y 6096   1.081   3.916   8.667  0.5523  0.5171  0.3621
   70SLPC  C318 6097   1.233   3.893   8.518 -0.5071 -0.3256  0.1093
   70SLPC  H18X 6098   1.228   3.968   8.436  0.9840 -0.8849 -0.5383
   70SLPC  H18Y 6099   1.171   3.806   8.487 -1.3343 -0.6679  2.5200
   70SLPC  H18Z 6100   1.341   3.866   8.521 -0.4292 -0.0150  0.1986
   71SLPC     N 6101   0.592   2.284  10.943  0.7295 -0.1622  0.0126
   71SLPC   C13 6102   0.603   2.167  10.851 -0.0724 -0.5055 -0.4907
   71SLPC  H13A 6103   0.506   2.146  10.808 -0.4175  1.1734 -0.6042
   71SLPC  H13B 6104   0.669   2.163  10.765 -0.5993 -5.7539 -0.9947
   71SLPC  H13C 6105   0.633   2.079  10.905 -0.1699 -0.9888 -1.2028
   71SLPC   C14 6106   0.729   2.309  11.006  0.1434  0.1247 -0.2636
   71SLPC  H14A 6107   0.806   2.340  10.937 -0.3843  3.4921  0.4928
   71SLPC  H14B 6108   0.715   2.380  11.086  1.7969  1.2681 -0.9314
   71SLPC  H14C 6109   0.764   2.220  11.057 -1.8287 -0.6592 -0.1846
   71SLPC   C15 6110   0.496   2.239  11.050 -0.1045  0.2175  0.7891
   71SLPC  H15A 6111   0.476   2.327  11.109  1.6970  1.8637 -0.9057
   71SLPC  H15B 6112   0.413   2.186  11.005 -0.8007  2.0068 -0.1337
   71SLPC  H15C 6113   0.536   2.166  11.119 -1.2136 -0.6784  0.5261
   71SLPC   C12 6114   0.539   2.415  10.886 -0.1589  0.0501  0.4718
   71SLPC  H12A 6115   0.533   2.486  10.966  0.4309  1.7340 -0.9236
   71SLPC  H12B 6116   0.435   2.400  10.861 -0.3108  2.7372 -0.8689
   71SLPC   C11 6117   0.620   2.482  10.767  0.0407  0.4697 -0.3566
   71SLPC  H11A 6118   0.713   2.519  10.815  0.1788 -0.8893  0.4835
   71SLPC  H11B 6119   0.556   2.571  10.749 -0.1691  0.3712 -0.1228
   71SLPC     P 6120   0.774   2.398  10.579  0.0506 -0.0978  0.0859
   71SLPC   O13 6121   0.872   2.366  10.687  0.3478  0.1858 -0.2535
   71SLPC   O14 6122   0.769   2.304  10.466  0.1572 -0.5600 -0.5062
   71SLPC   O12 6123   0.632   2.401  10.644 -0.1613 -0.2660  0.0761
   71SLPC   O11 6124   0.797   2.544  10.518  0.0159 -0.0913 -0.1984
   71SLPC    C1 6125   0.685   2.627  10.479  0.0622 -0.5405 -0.0838
   71SLPC    HA 6126   0.611   2.641  10.560  1.1600 -0.0169  0.8575
   71SLPC    HB 6127   0.723   2.729  10.455 -1.8613  0.3132  0.2989
   71SLPC    C2 6128   0.610   2.572  10.354 -0.4978  0.6017 -0.2698
   71SLPC    HS 6129   0.577   2.469  10.378 -2.2706  1.2189  0.0923
   71SLPC   O21 6130   0.700   2.585  10.242  0.2047 -0.6898  0.1857
   71SLPC   C21 6131   0.703   2.489  10.153  0.5098 -0.2478  0.4335
   71SLPC   O22 6132   0.646   2.381  10.156  0.0268 -0.2839  0.2314
   71SLPC   C22 6133   0.773   2.540  10.024 -0.5234  0.4433  0.0589
   71SLPC   H2R 6134   0.767   2.650  10.019 -0.8574  0.4218 -0.0671
   71SLPC   H2S 6135   0.878   2.504  10.022 -0.0826  1.7338 -0.2354
   71SLPC    C3 6136   0.485   2.647  10.327  0.3803 -0.0680  0.2256
   71SLPC    HX 6137   0.511   2.754  10.316  0.1643  0.4503  3.5928
   71SLPC    HY 6138   0.429   2.647  10.423 -1.4594  0.4505 -0.8161
   71SLPC   O31 6139   0.420   2.590  10.214  0.3160 -0.7023 -0.5624
   71SLPC   C31 6140   0.347   2.476  10.242 -0.6507  0.3036  0.6037
   71SLPC   O32 6141   0.337   2.427  10.355  0.2232 -0.2597  0.0949
   71SLPC   C32 6142   0.291   2.417  10.112 -0.0352  0.3421  1.0152
   71SLPC   H2X 6143   0.374   2.431  10.039 -0.7635 -1.4770 -0.2336
   71SLPC   H2Y 6144   0.206   2.482  10.083 -0.3038  0.1244  1.3170
   71SLPC   C23 6145   0.689   2.497   9.902 -0.1976 -0.2463  0.1136
   71SLPC   H3R 6146   0.587   2.540   9.913  0.4219  1.5348 -0.7952
   71SLPC   H3S 6147   0.689   2.386   9.891  1.5398 -0.1887 -0.8591
   71SLPC   C24 6148   0.742   2.557   9.766  0.1577  0.7255  0.0348
   71SLPC   H4R 6149   0.743   2.668   9.767 -0.0344  0.7308  0.9839
   71SLPC   H4S 6150   0.674   2.508   9.693 -1.4380  0.4668  1.6229
   71SLPC   C25 6151   0.892   2.520   9.737 -0.2525  0.7241  0.1802
   71SLPC   H5R 6152   0.895   2.409   9.737 -0.9216  0.6501  2.7325
   71SLPC   H5S 6153   0.963   2.557   9.814 -0.8895  0.0639  1.0961
   71SLPC   C26 6154   0.944   2.572   9.598 -0.1250 -0.5257  0.0679
   71SLPC   H6R 6155   1.053   2.555   9.594 -0.2910 -1.7807  0.5321
   71SLPC   H6S 6156   0.926   2.682   9.594  1.3193 -0.3207 -1.8288
   71SLPC   C27 6157   0.879   2.524   9.472  0.4104 -0.2274 -0.4785
   71SLPC   H7R 6158   0.775   2.565   9.466  0.7125  0.6446  0.0452
   71SLPC   H7S 6159   0.870   2.415   9.489  1.5996 -0.0018  1.9212
   71SLPC   C28 6160   0.950   2.551   9.337 -0.1614  0.0705 -0.0777
   71SLPC   H8R 6161   1.054   2.511   9.348 -0.3612 -0.2351  0.7421
   71SLPC   H8S 6162   0.960   2.662   9.331  0.0744  0.2245  2.2282
   71SLPC   C29 6163   0.870   2.493   9.220 -0.4757 -0.1879 -0.1656
   71SLPC   H9R 6164   0.871   2.383   9.224 -0.8783 -0.1759  2.9977
   71SLPC  C210 6165   0.804   2.554   9.122 -0.2714 -0.6306 -0.5734
   71SLPC  H10R 6166   0.771   2.505   9.029  1.3190 -0.3873 -1.2895
   71SLPC  C211 6167   0.813   2.707   9.113 -0.5984 -0.8482 -0.5796
   71SLPC  H11R 6168   0.922   2.715   9.092 -0.4579  2.3532  0.8657
   71SLPC  H11S 6169   0.791   2.761   9.207  0.7700  0.2687 -0.8581
   71SLPC  C212 6170   0.721   2.766   9.006 -0.0339  0.1784  0.2937
   71SLPC  H12R 6171   0.613   2.773   9.027 -0.2812  0.6815 -1.0641
   71SLPC  C213 6172   0.773   2.826   8.889  0.2395 -0.1564 -0.4137
   71SLPC  H13R 6173   0.706   2.866   8.812  0.3296 -1.9853 -1.5139
   71SLPC  C214 6174   0.917   2.834   8.858  0.5497  0.1171  0.7709
   71SLPC  H14R 6175   0.959   2.734   8.834 -0.5876 -0.2066  0.0511
   71SLPC  H14S 6176   0.971   2.844   8.954 -0.4200 -1.8291  1.5625
   71SLPC  C215 6177   0.961   2.935   8.745  0.2601 -0.1204  0.9630
   71SLPC  H15R 6178   1.072   2.932   8.747  0.2957  1.2094  2.2504
   71SLPC  H15S 6179   0.926   3.040   8.751  3.3784  1.0252  0.6495
   71SLPC  C216 6180   0.914   2.873   8.608  0.7120  0.3421  0.1577
   71SLPC  H16R 6181   0.804   2.864   8.598  0.7370 -1.2515  1.0195
   71SLPC  H16S 6182   0.969   2.777   8.603  2.8419  1.5463 -1.3240
   71SLPC  C217 6183   0.957   2.958   8.483  0.6428  0.3302 -0.2269
   71SLPC  H17R 6184   1.068   2.954   8.485  0.6342 -3.5765  1.1046
   71SLPC  H17S 6185   0.911   3.058   8.501 -0.5593 -0.1415 -0.6325
   71SLPC  C218 6186   0.915   2.896   8.349 -0.3197  0.7584  0.7607
   71SLPC  H18R 6187   0.805   2.885   8.339 -0.3778  1.9617 -0.1414
   71SLPC  H18S 6188   0.966   2.801   8.323  0.5385  1.5379 -0.4862
   71SLPC  H18T 6189   0.952   2.960   8.267  4.8787 -2.5896  0.0494
   71SLPC   C33 6190   0.249   2.273  10.123 -0.0735  1.1727 -0.6461
   71SLPC   H3X 6191   0.139   2.258  10.122  0.1677 -0.6818 -1.3175
   71SLPC   H3Y 6192   0.273   2.226  10.221 -1.7198  1.8248  0.1024
   71SLPC   C34 6193   0.316   2.182  10.022  0.4543 -0.0455 -0.0356
   71SLPC   H4X 6194   0.277   2.078  10.029 -0.0507  0.1385 -0.0894
   71SLPC   H4Y 6195   0.426   2.194  10.037  0.0925  0.3078  2.7370
   71SLPC   C35 6196   0.265   2.224   9.876 -0.1352  0.0667 -0.2812
   71SLPC   H5X 6197   0.338   2.300   9.840 -0.1951  0.3425  0.1639
   71SLPC   H5Y 6198   0.166   2.271   9.897 -0.4025  1.1230 -3.4554
   71SLPC   C36 6199   0.242   2.116   9.774 -0.1236  0.4501 -0.1759
   71SLPC   H6X 6200   0.176   2.042   9.825  1.4704  0.2669  1.7536
   71SLPC   H6Y 6201   0.330   2.049   9.762 -0.0573  0.3142  0.9708
   71SLPC   C37 6202   0.181   2.178   9.648 -0.3750 -0.0882 -0.4205
   71SLPC   H7X 6203   0.239   2.262   9.604 -0.7597 -0.7243 -2.2342
   71SLPC   H7Y 6204   0.079   2.217   9.665 -0.0941  1.2101 -1.5254
   71SLPC   C38 6205   0.164   2.073   9.539 -0.0181 -0.3153 -0.1785
   71SLPC   H8X 6206   0.097   2.123   9.465  0.2849  0.7355  0.2388
   71SLPC   H8Y 6207   0.111   1.980   9.567 -0.5892 -0.1258 -0.6068
   71SLPC   C39 6208   0.293   2.032   9.477  0.7084  0.8430  0.4008
   71SLPC   H9X 6209   0.348   1.969   9.549 -1.5241 -0.3600  1.1706
   71SLPC   H9Y 6210   0.355   2.124   9.469  0.9053  0.7666  1.0164
   71SLPC  C310 6211   0.288   1.957   9.345  0.0770 -0.2047  0.3545
   71SLPC  H10X 6212   0.216   1.874   9.356  0.4910 -0.9657 -1.9705
   71SLPC  H10Y 6213   0.391   1.927   9.316  0.0681  0.4816 -0.4248
   71SLPC  C311 6214   0.236   2.039   9.225  0.5246 -0.4698 -0.9356
   71SLPC  H11X 6215   0.302   2.128   9.216 -2.1610  1.9979  2.0608
   71SLPC  H11Y 6216   0.139   2.085   9.252  0.4557 -0.5348 -1.0695
   71SLPC  C312 6217   0.238   1.957   9.097 -0.6084 -0.4362  0.5324
   71SLPC  H12X 6218   0.157   1.881   9.091  0.9496 -2.3497  2.1256
   71SLPC  H12Y 6219   0.328   1.893   9.106 -0.2685  0.2115  2.1418
   71SLPC  C313 6220   0.237   2.042   8.970 -0.7356 -0.0124  0.6495
   71SLPC  H13X 6221   0.329   2.104   8.959 -1.4210  0.7931 -0.9546
   71SLPC  H13Y 6222   0.150   2.111   8.970 -2.3575 -1.9562  1.5836
   71SLPC  C314 6223   0.234   1.953   8.847  0.0004 -0.0017  0.0740
   71SLPC  H14X 6224   0.237   2.011   8.753  1.4065 -2.1043 -1.2726
   71SLPC  H14Y 6225   0.139   1.896   8.842  0.6271 -1.2451  1.2763
   71SLPC  C315 6226   0.352   1.854   8.835 -0.0669  0.0740  1.3590
   71SLPC  H15X 6227   0.363   1.793   8.927  0.1598  0.0529  1.3189
   71SLPC  H15Y 6228   0.448   1.910   8.825 -0.2579  0.5683  2.1749
   71SLPC  C316 6229   0.338   1.748   8.715  0.5991 -0.3718 -0.3255
   71SLPC  H16X 6230   0.245   1.694   8.741 -0.7467  2.6581  1.7432
   71SLPC  H16Y 6231   0.428   1.682   8.717  1.3072  0.5380  2.2772
   71SLPC  C317 6232   0.327   1.817   8.586 -0.2341  0.2174 -0.2729
   71SLPC  H17X 6233   0.431   1.843   8.558 -0.3525 -0.2270 -1.1581
   71SLPC  H17Y 6234   0.264   1.908   8.594  3.2287  2.8784 -0.7921
   71SLPC  C318 6235   0.258   1.743   8.476  0.4466 -0.0148  0.2809
   71SLPC  H18X 6236   0.283   1.635   8.488  2.1741  0.2934 -0.2618
   71SLPC  H18Y 6237   0.298   1.777   8.378  0.5394  0.5178  0.4982
   71SLPC  H18Z 6238   0.149   1.764   8.484  0.6880  1.2691  0.3369
   72SLPC     N 6239   2.757   0.332  10.890  0.2853 -0.0278  0.4801
   72SLPC   C13 6240   2.873   0.403  10.832  0.1023  0.1092 -0.4395
   72SLPC  H13A 6241   2.847   0.475  10.756 -2.3146  0.1163  0.2952
   72SLPC  H13B 6242   2.935   0.446  10.909 -0.8287 -3.1884  2.4238
   72SLPC  H13C 6243   2.933   0.324  10.790 -1.1729 -1.5327  0.7181
   72SLPC   C14 6244   2.662   0.443  10.938 -0.3397  1.0142  0.6219
   72SLPC  H14A 6245   2.638   0.512  10.859 -2.3040  0.7023  0.8976
   72SLPC  H14B 6246   2.563   0.403  10.957  0.2192  0.2650  2.1564
   72SLPC  H14C 6247   2.695   0.486  11.031 -1.5774 -0.2374  1.6833
   72SLPC   C15 6248   2.788   0.241  11.005  0.3688  0.1473  0.1752
   72SLPC  H15A 6249   2.851   0.292  11.076  0.6438 -0.9993  0.7681
   72SLPC  H15B 6250   2.693   0.211  11.047  0.2840 -1.2537 -0.9627
   72SLPC  H15C 6251   2.838   0.148  10.986 -2.6764 -0.9120 -4.3210
   72SLPC   C12 6252   2.691   0.246  10.788 -0.0095  0.0168  0.2026
   72SLPC  H12A 6253   2.769   0.186  10.743 -0.8308  1.1199 -3.0140
   72SLPC  H12B 6254   2.651   0.318  10.718  1.3695  0.0212 -0.6249
   72SLPC   C11 6255   2.569   0.163  10.821  0.2163  0.4353  0.3017
   72SLPC  H11A 6256   2.590   0.085  10.898  3.1468  0.6563 -0.1385
   72SLPC  H11B 6257   2.548   0.101  10.731  0.3807  1.9998 -0.8502
   72SLPC     P 6258   2.366   0.324  10.779  0.0093 -0.2226 -0.8315
   72SLPC   O13 6259   2.252   0.236  10.744 -0.6734  0.1697 -0.0633
   72SLPC   O14 6260   2.327   0.446  10.853  0.4216  0.2662  0.1511
   72SLPC   O12 6261   2.462   0.246  10.873 -0.2071 -0.2933  0.0927
   72SLPC   O11 6262   2.443   0.371  10.652  0.1640  1.0732 -0.0085
   72SLPC    C1 6263   2.457   0.295  10.533  0.1566  0.9745 -0.1767
   72SLPC    HA 6264   2.553   0.331  10.489  0.9713  0.5598  1.2005
   72SLPC    HB 6265   2.464   0.186  10.554  1.2678  1.0458 -0.0866
   72SLPC    C2 6266   2.346   0.316  10.425 -0.7692 -0.1884 -0.0191
   72SLPC    HS 6267   2.254   0.271  10.466 -1.4179  0.8716 -0.2535
   72SLPC   O21 6268   2.393   0.256  10.293 -0.0891  0.0684 -0.3493
   72SLPC   C21 6269   2.377   0.127  10.287 -0.2382  0.0687  0.1037
   72SLPC   O22 6270   2.329   0.053  10.374 -0.0469 -0.0412  0.1222
   72SLPC   C22 6271   2.422   0.084  10.147 -0.9198 -0.1527 -0.8558
   72SLPC   H2R 6272   2.371   0.152  10.075 -1.3653 -0.1792 -0.5684
   72SLPC   H2S 6273   2.529   0.110  10.132 -1.8027  3.8731 -1.2695
   72SLPC    C3 6274   2.333   0.475  10.413  0.7232  0.3560 -0.1221
   72SLPC    HX 6275   2.433   0.522  10.399  0.8123  0.1191 -0.2883
   72SLPC    HY 6276   2.289   0.517  10.506 -1.3754  0.2115 -0.9813
   72SLPC   O31 6277   2.247   0.507  10.298  0.4249 -0.1413  0.0901
   72SLPC   C31 6278   2.123   0.550  10.316 -0.5382  0.9808 -0.7135
   72SLPC   O32 6279   2.068   0.563  10.425 -1.0797 -0.2343  0.7573
   72SLPC   C32 6280   2.062   0.593  10.187 -1.0501 -0.3985 -0.2665
   72SLPC   H2X 6281   2.138   0.606  10.107 -2.0832 -1.1142 -1.3987
   72SLPC   H2Y 6282   2.022   0.693  10.214 -0.0561  0.1741 -0.8648
   72SLPC   C23 6283   2.390  -0.064  10.112  0.3442  0.8135 -0.5991
   72SLPC   H3R 6284   2.307  -0.100  10.175  1.6658 -1.5196 -0.0529
   72SLPC   H3S 6285   2.477  -0.121  10.152 -0.1117  2.6752  3.5640
   72SLPC   C24 6286   2.371  -0.092   9.961 -0.3000  0.2706  0.3103
   72SLPC   H4R 6287   2.283  -0.033   9.927 -1.9121 -1.9162  0.4595
   72SLPC   H4S 6288   2.359  -0.201   9.946 -0.2892  0.5507 -2.1656
   72SLPC   C25 6289   2.502  -0.042   9.889  0.5266 -0.6913 -0.7204
   72SLPC   H5R 6290   2.596  -0.097   9.908  1.1818  0.7167  0.3405
   72SLPC   H5S 6291   2.526   0.062   9.921 -0.1961 -1.1265  1.3888
   72SLPC   C26 6292   2.489  -0.038   9.737  0.9899  0.3814 -0.9672
   72SLPC   H6R 6293   2.401   0.024   9.710  1.5156  1.5020 -0.1970
   72SLPC   H6S 6294   2.464  -0.144   9.720  0.6362  0.4691 -0.9992
   72SLPC   C27 6295   2.620  -0.004   9.665  0.2857  0.4199 -0.4867
   72SLPC   H7R 6296   2.693  -0.082   9.694 -1.5994 -2.3401 -2.6803
   72SLPC   H7S 6297   2.654   0.098   9.693  1.1966  0.6331 -2.2500
   72SLPC   C28 6298   2.613  -0.000   9.511 -0.0323 -0.3369  0.3799
   72SLPC   H8R 6299   2.693   0.067   9.473  0.1011  1.3079  3.2766
   72SLPC   H8S 6300   2.516   0.051   9.492  0.1887  0.1827  0.6393
   72SLPC   C29 6301   2.603  -0.135   9.437  0.1131 -0.1370  0.1771
   72SLPC   H9R 6302   2.550  -0.214   9.493 -1.4161  0.7583  0.0416
   72SLPC  C210 6303   2.645  -0.168   9.314  0.1854  0.0704  0.3276
   72SLPC  H10R 6304   2.648  -0.274   9.285  0.7603  0.6484 -1.8929
   72SLPC  C211 6305   2.709  -0.078   9.217 -0.1489  0.8603  0.2741
   72SLPC  H11R 6306   2.791  -0.127   9.160 -0.1986 -0.2965  1.1698
   72SLPC  H11S 6307   2.765  -0.001   9.273  0.2241  2.7876 -2.5040
   72SLPC  C212 6308   2.609  -0.005   9.126 -0.0450  0.2246 -0.5079
   72SLPC  H12R 6309   2.542   0.067   9.174 -0.9088 -0.5423 -0.5361
   72SLPC  C213 6310   2.606  -0.024   8.986 -0.0484 -0.4100 -0.0359
   72SLPC  H13R 6311   2.539   0.046   8.934  0.9411  0.3256 -0.3434
   72SLPC  C214 6312   2.689  -0.114   8.901 -0.0837 -0.2531  0.1804
   72SLPC  H14R 6313   2.775  -0.160   8.955  1.1708  1.2486 -0.4762
   72SLPC  H14S 6314   2.731  -0.058   8.815  0.6703 -0.0106  0.6856
   72SLPC  C215 6315   2.605  -0.235   8.856 -0.7377  0.8341 -0.0544
   72SLPC  H15R 6316   2.512  -0.199   8.806 -0.0149  0.2135 -1.9644
   72SLPC  H15S 6317   2.570  -0.301   8.938 -1.5402  2.0672  0.6280
   72SLPC  C216 6318   2.677  -0.323   8.748  0.4046 -0.6500  0.9545
   72SLPC  H16R 6319   2.770  -0.350   8.802 -0.2465 -1.3570  1.7561
   72SLPC  H16S 6320   2.691  -0.261   8.657 -1.1891 -1.4569  0.1112
   72SLPC  C217 6321   2.609  -0.450   8.702  1.0181 -0.0342  0.4411
   72SLPC  H17R 6322   2.499  -0.434   8.698  0.6580 -2.1688  0.4652
   72SLPC  H17S 6323   2.612  -0.517   8.791 -0.9966 -0.6631  0.1056
   72SLPC  C218 6324   2.667  -0.529   8.586 -0.5236  0.2632  0.5536
   72SLPC  H18R 6325   2.633  -0.635   8.584 -0.2940  0.1688  1.5483
   72SLPC  H18S 6326   2.777  -0.532   8.599 -0.7144 -0.5073  2.1833
   72SLPC  H18T 6327   2.643  -0.480   8.489 -0.7318 -1.1387 -0.1283
   72SLPC   C33 6328   1.957   0.502  10.127  0.5646  0.6841  0.4197
   72SLPC   H3X 6329   1.901   0.551  10.044  0.6025 -0.2516 -0.1844
   72SLPC   H3Y 6330   1.884   0.469  10.204 -0.5357  0.1917 -0.7847
   72SLPC   C34 6331   2.013   0.369  10.072 -0.1164  0.3954 -0.1072
   72SLPC   H4X 6332   2.081   0.312  10.139  1.9734 -0.0146 -2.4166
   72SLPC   H4Y 6333   2.073   0.387   9.980 -0.4353 -2.2193 -0.9319
   72SLPC   C35 6334   1.896   0.273  10.035 -0.0156  0.4879 -0.5346
   72SLPC   H5X 6335   1.838   0.326   9.956  1.3857  0.5979 -1.5197
   72SLPC   H5Y 6336   1.835   0.263  10.127 -1.0832 -3.8073 -1.5045
   72SLPC   C36 6337   1.924   0.130   9.977 -0.9467 -0.8276  0.5216
   72SLPC   H6X 6338   1.822   0.086   9.967 -1.4386  0.0928  1.3104
   72SLPC   H6Y 6339   1.979   0.063  10.046 -2.5810 -1.2499  1.4571
   72SLPC   C37 6340   2.001   0.131   9.848 -0.1610 -0.2765 -0.2114
   72SLPC   H7X 6341   1.990   0.032   9.797  1.4707 -0.2132 -0.7461
   72SLPC   H7Y 6342   2.110   0.143   9.865  0.0627 -0.5533 -1.3279
   72SLPC   C38 6343   1.949   0.232   9.741  0.0678  0.3146  0.3066
   72SLPC   H8X 6344   1.960   0.339   9.769 -0.9542  0.2304  1.0866
   72SLPC   H8Y 6345   1.840   0.212   9.740 -0.3020  1.7079  3.2320
   72SLPC   C39 6346   2.008   0.218   9.603  0.0480  0.5756 -0.5138
   72SLPC   H9X 6347   1.996   0.110   9.576 -1.2181  0.2314  1.2455
   72SLPC   H9Y 6348   2.113   0.253   9.607 -0.2409  1.6086 -1.4131
   72SLPC  C310 6349   1.945   0.312   9.498  0.4571 -0.5085  0.3598
   72SLPC  H10X 6350   2.016   0.316   9.413 -0.1560  0.7215 -0.1184
   72SLPC  H10Y 6351   1.931   0.414   9.540 -2.2258 -0.5110 -0.3313
   72SLPC  C311 6352   1.801   0.264   9.462  0.1983 -0.1702 -0.2477
   72SLPC  H11X 6353   1.735   0.274   9.551  1.2138 -1.4796  0.6875
   72SLPC  H11Y 6354   1.809   0.159   9.428 -0.0541  0.0726 -1.0959
   72SLPC  C312 6355   1.742   0.342   9.341  0.2361  0.6871 -0.0919
   72SLPC  H12X 6356   1.775   0.448   9.342  1.5321  0.3100 -0.6564
   72SLPC  H12Y 6357   1.631   0.343   9.349  0.3411  2.7040  3.0938
   72SLPC  C313 6358   1.777   0.288   9.200  0.4005  0.0414 -0.2303
   72SLPC  H13X 6359   1.719   0.193   9.191  1.0651 -0.3413 -0.5492
   72SLPC  H13Y 6360   1.881   0.250   9.188  0.0042 -0.9656 -0.5580
   72SLPC  C314 6361   1.750   0.388   9.090 -0.3058 -0.3434  0.8210
   72SLPC  H14X 6362   1.851   0.424   9.059 -0.3109 -0.1987  0.9713
   72SLPC  H14Y 6363   1.688   0.476   9.119 -1.0342 -0.2368 -0.9447
   72SLPC  C315 6364   1.683   0.317   8.969 -0.0512  0.1897  0.5115
   72SLPC  H15X 6365   1.586   0.278   9.007  0.5139 -0.2676  1.5192
   72SLPC  H15Y 6366   1.736   0.230   8.925  0.7419  1.7300 -1.8079
   72SLPC  C316 6367   1.642   0.414   8.857 -0.6736 -0.7425  0.6883
   72SLPC  H16X 6368   1.734   0.460   8.815 -0.8279 -0.0666  1.0725
   72SLPC  H16Y 6369   1.587   0.501   8.898 -2.1799 -0.1989 -2.1837
   72SLPC  C317 6370   1.560   0.351   8.738 -0.4112  0.4778 -0.2351
   72SLPC  H17X 6371   1.489   0.279   8.784  0.7260  0.5964  1.8698
   72SLPC  H17Y 6372   1.629   0.293   8.674 -0.2489  0.6356 -0.2058
   72SLPC  C318 6373   1.495   0.454   8.649 -0.0632 -0.6876 -0.1601
   72SLPC  H18X 6374   1.580   0.513   8.608 -0.9470 -0.4134 -1.6645
   72SLPC  H18Y 6375   1.431   0.525   8.705 -0.7045  1.2479 -3.1449
   72SLPC  H18Z 6376   1.435   0.401   8.572 -0.9333 -0.1634  0.1445
   73SLPC     N 6377   2.222   5.598  11.154 -0.0604 -0.1117 -1.0422
   73SLPC   C13 6378   2.335   5.541  11.222 -0.5675  0.2719  0.3686
   73SLPC  H13A 6379   2.327   5.558  11.328 -2.0796  1.5447  0.0895
   73SLPC  H13B 6380   2.362   5.441  11.190 -1.9406 -0.1376  0.4088
   73SLPC  H13C 6381   2.408   5.610  11.185 -1.6733  3.2691  3.2685
   73SLPC   C14 6382   2.195   5.743  11.198 -0.5474  0.4261  0.7223
   73SLPC  H14A 6383   2.162   5.758  11.300  2.0581  2.6677  1.3653
   73SLPC  H14B 6384   2.279   5.811  11.196 -0.9642  0.9260 -0.7727
   73SLPC  H14C 6385   2.121   5.782  11.131 -0.9183  0.9738  1.4342
   73SLPC   C15 6386   2.098   5.516  11.196  0.4221 -0.8794  0.3404
   73SLPC  H15A 6387   2.108   5.496  11.301  1.2563 -1.0474  0.2358
   73SLPC  H15B 6388   2.010   5.567  11.159  0.7380 -0.9814 -0.5705
   73SLPC  H15C 6389   2.094   5.414  11.160 -1.7527 -1.0345  0.8443
   73SLPC   C12 6390   2.246   5.594  11.001  0.4267 -0.6132 -0.7972
   73SLPC  H12A 6391   2.283   5.496  10.978 -0.8334 -2.2850  3.3479
   73SLPC  H12B 6392   2.328   5.659  10.975 -1.7087  1.8708 -1.8523
   73SLPC   C11 6393   2.128   5.634  10.902  0.2893 -0.0438  0.0596
   73SLPC  H11A 6394   2.047   5.562  10.928 -0.0465  0.0787 -0.6282
   73SLPC  H11B 6395   2.151   5.603  10.798 -1.6263 -1.1205 -0.0962
   73SLPC     P 6396   2.176   5.883  10.844  0.2204  0.2763 -0.1089
   73SLPC   O13 6397   2.113   6.013  10.876 -0.1844  0.3458  0.7946
   73SLPC   O14 6398   2.319   5.876  10.875 -0.6739  0.0280  0.0562
   73SLPC   O12 6399   2.082   5.768  10.911  0.2687 -0.0503 -0.0262
   73SLPC   O11 6400   2.163   5.848  10.689 -0.7856  0.4206 -0.1085
   73SLPC    C1 6401   2.038   5.828  10.633  0.1192 -0.4020 -0.7185
   73SLPC    HA 6402   1.966   5.777  10.701  1.9601 -0.4665  1.2822
   73SLPC    HB 6403   1.994   5.928  10.612 -0.9890 -0.2451  1.9784
   73SLPC    C2 6404   2.040   5.744  10.503 -0.3336 -0.2220  0.3857
   73SLPC    HS 6405   2.073   5.642  10.531  0.4555 -0.2468 -0.6008
   73SLPC   O21 6406   2.127   5.812  10.406  0.4936 -0.0784  0.1628
   73SLPC   C21 6407   2.155   5.736  10.309 -1.0527 -0.2307  0.3912
   73SLPC   O22 6408   2.115   5.620  10.299  0.1499 -0.8094 -0.0056
   73SLPC   C22 6409   2.255   5.807  10.204  0.2286 -0.1702 -0.4466
   73SLPC   H2R 6410   2.198   5.876  10.138 -1.7411 -0.2025  1.1234
   73SLPC   H2S 6411   2.323   5.871  10.265 -1.1640  1.5569 -0.6238
   73SLPC    C3 6412   1.893   5.732  10.449  0.7227 -0.8179  0.3219
   73SLPC    HX 6413   1.830   5.673  10.519 -0.1210  0.3388  0.5719
   73SLPC    HY 6414   1.885   5.674  10.354 -0.0349 -1.1845  0.5996
   73SLPC   O31 6415   1.839   5.868  10.440 -0.1285 -0.4329 -0.3847
   73SLPC   C31 6416   1.858   5.921  10.316 -0.1141 -0.0114  0.1016
   73SLPC   O32 6417   1.907   5.857  10.226  0.2633 -0.7076  0.4591
   73SLPC   C32 6418   1.807   6.067  10.313 -0.1084  0.6146  0.7437
   73SLPC   H2X 6419   1.892   6.130  10.346 -1.1423  1.5769  1.6594
   73SLPC   H2Y 6420   1.729   6.074  10.392 -1.0638  1.1417 -0.2333
   73SLPC   C23 6421   2.323   5.696  10.116  0.4234 -0.1699 -0.4455
   73SLPC   H3R 6422   2.241   5.642  10.062 -0.0955  1.3154 -1.1832
   73SLPC   H3S 6423   2.389   5.624  10.169 -1.2117 -1.4849 -0.1136
   73SLPC   C24 6424   2.405   5.767  10.005  0.4995  0.0938 -0.1179
   73SLPC   H4R 6425   2.488   5.823  10.053  0.2408 -0.8651  1.5266
   73SLPC   H4S 6426   2.337   5.834   9.948 -0.7806 -0.0107  1.2071
   73SLPC   C25 6427   2.465   5.663   9.904 -0.2787 -0.4700 -0.4491
   73SLPC   H5R 6428   2.383   5.593   9.877 -1.0867  0.4136 -0.3210
   73SLPC   H5S 6429   2.554   5.617   9.952  0.3774 -0.0224 -1.2190
   73SLPC   C26 6430   2.524   5.741   9.785  0.1155 -0.1040  0.5554
   73SLPC   H6R 6431   2.576   5.838   9.796  1.0008 -0.3745 -0.9496
   73SLPC   H6S 6432   2.435   5.766   9.723  0.7012  0.1095 -0.2136
   73SLPC   C27 6433   2.613   5.658   9.696 -1.1653 -0.0843  0.2006
   73SLPC   H7R 6434   2.585   5.551   9.708  0.5755 -0.5636  0.2815
   73SLPC   H7S 6435   2.718   5.674   9.728 -1.6293  3.2179  0.3936
   73SLPC   C28 6436   2.605   5.696   9.553 -0.0219  0.2000  0.5726
   73SLPC   H8R 6437   2.680   5.633   9.501  0.4064  1.1251  0.0509
   73SLPC   H8S 6438   2.646   5.798   9.541 -1.2912  0.4720 -2.1492
   73SLPC   C29 6439   2.474   5.688   9.481 -0.1151  0.0200  0.1298
   73SLPC   H9R 6440   2.393   5.647   9.542 -0.3172  0.2738  0.0320
   73SLPC  C210 6441   2.454   5.715   9.346 -0.3761 -0.1467 -1.1719
   73SLPC  H10R 6442   2.352   5.726   9.308 -0.3903  1.2276 -0.8160
   73SLPC  C211 6443   2.567   5.739   9.257 -0.2540 -0.5848 -0.0417
   73SLPC  H11R 6444   2.662   5.691   9.288  1.6884  2.7858 -0.2688
   73SLPC  H11S 6445   2.584   5.849   9.267 -2.3892  0.1154 -2.8097
   73SLPC  C212 6446   2.545   5.711   9.107  0.0322 -0.2824  0.1489
   73SLPC  H12R 6447   2.566   5.611   9.067  0.7187 -0.7490  1.6136
   73SLPC  C213 6448   2.495   5.790   9.014  0.2642 -0.5650  0.1753
   73SLPC  H13R 6449   2.474   5.757   8.912  0.6040  2.3098 -0.9064
   73SLPC  C214 6450   2.449   5.937   9.045 -0.7053 -0.0866  0.5813
   73SLPC  H14R 6451   2.518   6.016   9.008 -0.1726 -0.5990  0.4652
   73SLPC  H14S 6452   2.424   5.952   9.152 -2.3737 -2.2455  0.5698
   73SLPC  C215 6453   2.318   5.957   8.965  0.6273  0.1876 -0.5108
   73SLPC  H15R 6454   2.284   6.061   8.983  2.1392  0.8871 -1.5232
   73SLPC  H15S 6455   2.240   5.899   9.019  0.1179 -0.7932 -2.2200
   73SLPC  C216 6456   2.318   5.921   8.818 -0.7279 -0.2091 -0.1883
   73SLPC  H16R 6457   2.221   5.957   8.777  0.1299  1.8959 -0.5086
   73SLPC  H16S 6458   2.323   5.811   8.802 -2.8370 -0.0489 -2.4178
   73SLPC  C217 6459   2.410   6.004   8.735 -0.2873 -0.4303 -0.4737
   73SLPC  H17R 6460   2.515   5.991   8.766  0.0280  0.7417 -0.9596
   73SLPC  H17S 6461   2.381   6.110   8.751  0.2725  0.0876 -2.5246
   73SLPC  C218 6462   2.381   5.979   8.589 -0.7273 -0.9615  0.2343
   73SLPC  H18R 6463   2.444   6.047   8.528 -1.3995 -1.2247 -0.7816
   73SLPC  H18S 6464   2.276   6.007   8.567 -0.2199 -0.3117 -1.5339
   73SLPC  H18T 6465   2.406   5.877   8.551  1.2760 -1.6482  3.1347
   73SLPC   C33 6466   1.752   6.112  10.176  0.0375 -0.2089  0.1934
   73SLPC   H3X 6467   1.824   6.085  10.097  1.3177  2.6109  0.2658
   73SLPC   H3Y 6468   1.736   6.221  10.161 -1.7769 -0.5868 -0.9171
   73SLPC   C34 6469   1.615   6.044  10.134 -0.6030  0.0279 -0.2447
   73SLPC   H4X 6470   1.549   6.064  10.221  1.5373  3.0236  0.8769
   73SLPC   H4Y 6471   1.635   5.935  10.136 -1.2454 -0.1545 -2.2735
   73SLPC   C35 6472   1.556   6.112  10.016 -0.5494  0.6959  0.0039
   73SLPC   H5X 6473   1.532   6.219  10.037  1.8995  1.7355 -1.9605
   73SLPC   H5Y 6474   1.454   6.070  10.000  0.6174 -1.3159 -3.1264
   73SLPC   C36 6475   1.625   6.103   9.888 -0.8010  0.6468  0.2106
   73SLPC   H6X 6476   1.653   5.997   9.874 -0.1935  0.8854 -0.4841
   73SLPC   H6Y 6477   1.716   6.165   9.872  0.1075 -0.1087  2.0660
   73SLPC   C37 6478   1.545   6.138   9.765 -0.1280 -0.5998 -0.0050
   73SLPC   H7X 6479   1.525   6.247   9.765 -1.0671 -0.7546 -1.1092
   73SLPC   H7Y 6480   1.448   6.083   9.757 -1.6616  2.1313 -1.7532
   73SLPC   C38 6481   1.618   6.098   9.632  0.1849 -0.9870 -0.5257
   73SLPC   H8X 6482   1.552   6.084   9.544 -1.3740  1.4498  0.1485
   73SLPC   H8Y 6483   1.669   6.001   9.649  3.6787  0.4065 -2.0047
   73SLPC   C39 6484   1.724   6.193   9.590 -0.3676  0.3248  0.5334
   73SLPC   H9X 6485   1.789   6.143   9.515 -0.8680 -0.8962  0.8940
   73SLPC   H9Y 6486   1.787   6.198   9.682 -0.6029 -0.2037  0.7257
   73SLPC  C310 6487   1.683   6.326   9.532 -0.2905 -0.1427 -0.0731
   73SLPC  H10X 6488   1.663   6.397   9.615 -2.0037 -0.2099 -0.3836
   73SLPC  H10Y 6489   1.583   6.324   9.482 -0.1176  0.5868 -0.4577
   73SLPC  C311 6490   1.790   6.383   9.439  0.6633  0.5623  0.4668
   73SLPC  H11X 6491   1.793   6.310   9.355 -0.7194 -1.2956  1.9637
   73SLPC  H11Y 6492   1.889   6.378   9.490  0.1812  0.3631  1.3939
   73SLPC  C312 6493   1.761   6.522   9.384 -1.0849  0.6107  0.4381
   73SLPC  H12X 6494   1.784   6.600   9.459  0.2977  0.4847  0.1756
   73SLPC  H12Y 6495   1.651   6.534   9.377 -1.5086 -2.0307  1.1838
   73SLPC  C313 6496   1.828   6.551   9.251 -0.6052  0.2374 -0.0894
   73SLPC  H13X 6497   1.785   6.487   9.172 -1.2118 -1.6066  1.6704
   73SLPC  H13Y 6498   1.939   6.554   9.263 -0.7529  0.8131  1.3942
   73SLPC  C314 6499   1.784   6.697   9.224 -0.1446  0.5108 -0.1772
   73SLPC  H14X 6500   1.863   6.751   9.280 -0.4956  0.1315  0.6993
   73SLPC  H14Y 6501   1.686   6.731   9.263 -0.0282  0.3599  0.2541
   73SLPC  C315 6502   1.801   6.732   9.078  0.5160 -0.6870  0.4347
   73SLPC  H15X 6503   1.900   6.718   9.030 -0.2053  1.9890 -2.1337
   73SLPC  H15Y 6504   1.784   6.842   9.074  2.4354 -0.4005 -1.4378
   73SLPC  C316 6505   1.701   6.658   8.978 -0.0821 -0.4193 -0.1888
   73SLPC  H16X 6506   1.594   6.676   9.003  0.1405  0.7594 -0.0394
   73SLPC  H16Y 6507   1.734   6.552   8.966  2.0275  0.0511  1.0679
   73SLPC  C317 6508   1.717   6.712   8.840 -0.2134 -0.0935  0.2475
   73SLPC  H17X 6509   1.820   6.692   8.804 -1.1993 -1.5136 -2.0152
   73SLPC  H17Y 6510   1.700   6.820   8.858 -1.6690 -0.0689 -1.0246
   73SLPC  C318 6511   1.622   6.653   8.736  0.7491  0.4908 -0.3078
   73SLPC  H18X 6512   1.587   6.721   8.656  0.4726  0.1871 -0.4492
   73SLPC  H18Y 6513   1.531   6.610   8.785  1.1720 -0.9449 -0.7135
   73SLPC  H18Z 6514   1.662   6.563   8.685  0.5727  0.1651  0.1180
   74SLPC     N 6515   1.972   1.352  10.560 -0.6356 -0.1022 -0.1314
   74SLPC   C13 6516   1.843   1.416  10.588  0.4339  0.0942  0.1273
   74SLPC  H13A 6517   1.779   1.434  10.503 -0.7514 -0.0750  0.9509
   74SLPC  H13B 6518   1.793   1.354  10.661  1.2836 -0.2672  0.4164
   74SLPC  H13C 6519   1.861   1.517  10.622  0.4210 -0.2564  1.2044
   74SLPC   C14 6520   2.050   1.318  10.684 -0.6904  0.5042 -0.0932
   74SLPC  H14A 6521   2.071   1.415  10.728  3.5312 -0.1697 -0.1948
   74SLPC  H14B 6522   1.990   1.261  10.753  1.1362  0.9515  1.9749
   74SLPC  H14C 6523   2.143   1.264  10.674 -0.8350 -0.9931  4.4631
   74SLPC   C15 6524   2.058   1.447  10.472 -0.4473 -0.3180 -0.1705
   74SLPC  H15A 6525   2.097   1.527  10.533 -0.1150 -1.3682  1.0608
   74SLPC  H15B 6526   2.143   1.385  10.446 -0.2034  0.5259 -1.4491
   74SLPC  H15C 6527   2.011   1.474  10.379  0.4876 -1.4005 -0.9958
   74SLPC   C12 6528   1.944   1.221  10.485 -0.1590  1.1132 -0.4487
   74SLPC  H12A 6529   1.884   1.233  10.396  1.5982 -1.8842 -2.1866
   74SLPC  H12B 6530   1.872   1.179  10.555  1.3739  3.8045  3.0675
   74SLPC   C11 6531   2.066   1.135  10.462  0.4428  0.5556  0.2192
   74SLPC  H11A 6532   2.037   1.041  10.410 -2.4025 -0.0039  2.5232
   74SLPC  H11B 6533   2.099   1.106  10.564  0.5721 -0.5036 -0.1099
   74SLPC     P 6534   2.318   1.196  10.429 -0.3801 -0.1603  0.4749
   74SLPC   O13 6535   2.408   1.269  10.333 -0.4062  0.1320  0.5652
   74SLPC   O14 6536   2.339   1.235  10.574  0.1972 -0.1801 -0.6511
   74SLPC   O12 6537   2.163   1.209  10.392  0.1259 -0.1792 -0.2946
   74SLPC   O11 6538   2.341   1.042  10.410  0.5276  0.0174  0.6233
   74SLPC    C1 6539   2.300   0.971  10.299 -0.2184 -0.5405 -0.0114
   74SLPC    HA 6540   2.240   0.885  10.335  0.0611 -0.6899  0.0982
   74SLPC    HB 6541   2.234   1.023  10.226  2.2681 -0.4712 -2.3320
   74SLPC    C2 6542   2.423   0.924  10.221 -0.4482  0.0016 -0.3048
   74SLPC    HS 6543   2.472   1.009  10.169 -0.6694 -0.4388 -1.2488
   74SLPC   O21 6544   2.373   0.826  10.128 -0.5386 -0.2589 -0.4763
   74SLPC   C21 6545   2.450   0.803  10.021 -0.5745  0.5092 -0.7007
   74SLPC   O22 6546   2.548   0.864   9.984 -0.0067 -0.2294 -0.1162
   74SLPC   C22 6547   2.380   0.689   9.952 -0.5028 -0.9123 -0.2481
   74SLPC   H2R 6548   2.344   0.613  10.025 -2.2924  0.0099 -0.1229
   74SLPC   H2S 6549   2.293   0.735   9.901  0.3140  2.2863  0.9995
   74SLPC    C3 6550   2.519   0.858  10.324  0.1013  0.2803 -0.1456
   74SLPC    HX 6551   2.465   0.791  10.393 -0.2013  1.7569  1.1145
   74SLPC    HY 6552   2.568   0.928  10.396 -0.1265 -1.4574  1.7652
   74SLPC   O31 6553   2.622   0.786  10.260  0.1165  0.2813  0.4658
   74SLPC   C31 6554   2.732   0.846  10.226 -0.9509 -0.1511  0.5541
   74SLPC   O32 6555   2.765   0.962  10.256 -0.3313 -0.2830 -0.4273
   74SLPC   C32 6556   2.819   0.744  10.153  0.1233 -0.0013  0.2919
   74SLPC   H2X 6557   2.753   0.697  10.077  1.0769 -1.2121  0.1710
   74SLPC   H2Y 6558   2.842   0.661  10.223  0.0671  1.3490  1.9587
   74SLPC   C23 6559   2.461   0.601   9.853  0.8025 -0.3611  0.0321
   74SLPC   H3R 6560   2.558   0.568   9.895  1.5092  0.1957 -1.0916
   74SLPC   H3S 6561   2.482   0.662   9.762  0.3385  0.0697  0.2108
   74SLPC   C24 6562   2.388   0.472   9.806  0.8798 -0.1981 -1.1321
   74SLPC   H4R 6563   2.287   0.488   9.763  0.4964 -1.5288 -0.7430
   74SLPC   H4S 6564   2.373   0.404   9.892  1.1893 -0.1884 -1.0681
   74SLPC   C25 6565   2.472   0.391   9.699  0.0582 -0.1805 -0.2170
   74SLPC   H5R 6566   2.437   0.286   9.694 -1.0841  0.0190  2.1709
   74SLPC   H5S 6567   2.577   0.394   9.736 -0.7866  0.7033  2.2954
   74SLPC   C26 6568   2.439   0.453   9.560 -0.3959  0.9167  0.0814
   74SLPC   H6R 6569   2.426   0.564   9.561  0.9623  1.0937  1.4039
   74SLPC   H6S 6570   2.340   0.415   9.526  0.0808 -1.2448  0.9615
   74SLPC   C27 6571   2.533   0.399   9.451 -0.1959  0.4359 -0.1585
   74SLPC   H7R 6572   2.490   0.303   9.414  1.1070 -0.0024 -0.5735
   74SLPC   H7S 6573   2.634   0.386   9.496 -0.4364  1.6000  0.7498
   74SLPC   C28 6574   2.565   0.495   9.331  0.6075  0.3101  0.4510
   74SLPC   H8R 6575   2.628   0.580   9.368  1.0551  0.5316 -0.7880
   74SLPC   H8S 6576   2.471   0.534   9.287  0.8071  1.8842  1.3372
   74SLPC   C29 6577   2.653   0.422   9.232  0.4595 -1.0576 -1.0301
   74SLPC   H9R 6578   2.717   0.347   9.281  1.7167  0.1500 -0.7378
   74SLPC  C210 6579   2.640   0.421   9.099 -0.1862 -0.0626  0.6370
   74SLPC  H10R 6580   2.719   0.371   9.040 -1.1675  0.7594 -1.4696
   74SLPC  C211 6581   2.535   0.488   9.016 -0.3919  0.3546  0.1533
   74SLPC  H11R 6582   2.573   0.585   8.976 -1.0195 -0.3194 -2.2909
   74SLPC  H11S 6583   2.450   0.519   9.080  1.2705  0.6850  2.3152
   74SLPC  C212 6584   2.476   0.403   8.906  0.3510  0.7959  0.7684
   74SLPC  H12R 6585   2.416   0.322   8.949 -0.5670  0.6614 -0.7358
   74SLPC  C213 6586   2.486   0.420   8.770 -0.0388 -0.1984  0.0234
   74SLPC  H13R 6587   2.456   0.336   8.706  2.8404  0.4212 -2.3878
   74SLPC  C214 6588   2.547   0.538   8.700 -0.2226  0.3077  0.0430
   74SLPC  H14R 6589   2.565   0.623   8.768  1.7404 -0.3352  0.3850
   74SLPC  H14S 6590   2.487   0.575   8.615 -0.6439 -2.0358 -0.7662
   74SLPC  C215 6591   2.679   0.520   8.629 -0.1297  0.3646 -1.1470
   74SLPC  H15R 6592   2.672   0.449   8.544 -0.2350  0.0674 -0.8915
   74SLPC  H15S 6593   2.754   0.487   8.704 -0.9451  5.3128  2.3864
   74SLPC  C216 6594   2.735   0.652   8.562 -0.4953  0.0680 -0.0170
   74SLPC  H16R 6595   2.728   0.728   8.643 -0.8282  0.6626 -0.6015
   74SLPC  H16S 6596   2.662   0.677   8.482  0.8689 -1.9002 -1.9727
   74SLPC  C217 6597   2.877   0.638   8.518 -0.6585 -0.6961  0.4580
   74SLPC  H17R 6598   2.885   0.555   8.444  1.6443 -0.9193  0.8830
   74SLPC  H17S 6599   2.936   0.608   8.606 -0.0158 -2.0003 -0.3801
   74SLPC  C218 6600   2.906   0.777   8.447 -0.3335  0.2313 -0.8289
   74SLPC  H18R 6601   2.888   0.858   8.521  0.6640 -0.3735  0.1073
   74SLPC  H18S 6602   2.828   0.801   8.372  0.6302  0.0871 -1.9081
   74SLPC  H18T 6603   3.011   0.785   8.411  0.2150 -2.5928 -0.1392
   74SLPC   C33 6604   2.939   0.809  10.082 -0.7713  0.1193  0.5773
   74SLPC   H3X 6605   3.022   0.735  10.072 -1.7471 -0.9497  0.1618
   74SLPC   H3Y 6606   2.995   0.889  10.135 -0.1270  0.5706 -0.7401
   74SLPC   C34 6607   2.914   0.884   9.950  0.3522  0.0913 -0.1254
   74SLPC   H4X 6608   2.995   0.953   9.918  1.4953 -1.5378 -0.8757
   74SLPC   H4Y 6609   2.828   0.952   9.965  1.8598  1.4470  3.6585
   74SLPC   C35 6610   2.885   0.785   9.840  0.1381  0.4576  0.1301
   74SLPC   H5X 6611   2.805   0.715   9.873  2.7865 -1.0265  4.2923
   74SLPC   H5Y 6612   2.976   0.726   9.815  0.8207  1.1912  0.8391
   74SLPC   C36 6613   2.857   0.839   9.701  0.3626  0.1440 -0.9976
   74SLPC   H6X 6614   2.841   0.749   9.638  0.2677  0.3366 -1.2546
   74SLPC   H6Y 6615   2.946   0.895   9.666  0.3467  0.5598 -0.3914
   74SLPC   C37 6616   2.733   0.924   9.692  1.0680  0.3080  0.5239
   74SLPC   H7X 6617   2.722   0.984   9.785 -1.4529  0.9627 -0.1026
   74SLPC   H7Y 6618   2.641   0.864   9.672  2.1739 -0.7610 -1.7418
   74SLPC   C38 6619   2.751   1.026   9.567 -0.0004 -0.1919  0.0139
   74SLPC   H8X 6620   2.845   1.083   9.582  0.9161 -1.6901  0.2083
   74SLPC   H8Y 6621   2.658   1.084   9.581 -1.3521 -2.7853  3.0105
   74SLPC   C39 6622   2.751   0.952   9.432 -0.2858 -0.1343 -0.1167
   74SLPC   H9X 6623   2.821   0.866   9.439 -0.0964 -0.1567 -1.9127
   74SLPC   H9Y 6624   2.789   1.034   9.367 -0.1169 -0.8469 -0.9366
   74SLPC  C310 6625   2.607   0.925   9.383 -0.5723  0.1282 -0.2058
   74SLPC  H10X 6626   2.549   1.020   9.380  0.5477  0.8657  0.5015
   74SLPC  H10Y 6627   2.560   0.862   9.462  1.8090  1.3257  2.3306
   74SLPC  C311 6628   2.601   0.841   9.252 -1.5631 -0.4384  0.0239
   74SLPC  H11X 6629   2.502   0.820   9.207 -1.6994  1.2592 -0.5501
   74SLPC  H11Y 6630   2.653   0.745   9.268 -2.6379 -1.1688 -0.7507
   74SLPC  C312 6631   2.682   0.907   9.141 -0.1689  0.1939 -0.1142
   74SLPC  H12X 6632   2.700   0.826   9.067  0.1444 -0.3675  0.5651
   74SLPC  H12Y 6633   2.781   0.924   9.187 -0.3921  0.9495  0.1003
   74SLPC  C313 6634   2.626   1.035   9.089 -0.5560 -0.4555 -0.6962
   74SLPC  H13X 6635   2.699   1.087   9.023  1.5844  1.1707  2.6878
   74SLPC  H13Y 6636   2.626   1.113   9.168 -3.2966  0.3882 -1.4027
   74SLPC  C314 6637   2.491   1.023   9.009 -0.0179  0.2056  0.2820
   74SLPC  H14X 6638   2.418   1.048   9.090 -0.1807 -1.4916  0.6947
   74SLPC  H14Y 6639   2.472   0.925   8.961  0.9685 -0.8038  1.8604
   74SLPC  C315 6640   2.476   1.119   8.894  0.1721 -0.2128  0.2322
   74SLPC  H15X 6641   2.550   1.085   8.818  0.3174 -0.3498  0.4333
   74SLPC  H15Y 6642   2.518   1.216   8.928  0.6805 -0.7302  1.1467
   74SLPC  C316 6643   2.337   1.134   8.847  0.5719  0.5742 -0.3562
   74SLPC  H16X 6644   2.335   1.235   8.801 -1.2809  1.9528  2.4714
   74SLPC  H16Y 6645   2.265   1.135   8.931  0.2792 -0.3669 -0.5869
   74SLPC  C317 6646   2.306   1.031   8.733  0.1913  0.2567  0.4652
   74SLPC  H17X 6647   2.292   0.930   8.777 -0.8409  0.1183 -0.1390
   74SLPC  H17Y 6648   2.395   1.033   8.667 -1.5461 -0.2093 -2.0684
   74SLPC  C318 6649   2.181   1.067   8.648  0.1694 -0.5083  0.3121
   74SLPC  H18X 6650   2.085   1.063   8.705 -0.3807  2.0252 -0.3142
   74SLPC  H18Y 6651   2.168   0.995   8.565  2.0317 -1.0127  0.4144
   74SLPC  H18Z 6652   2.200   1.168   8.605 -0.3964 -1.7158 -3.0666
   75SLPC     N 6653   5.537   4.345   6.307 -0.4712  0.4412 -0.0849
   75SLPC   C13 6654   5.642   4.247   6.356 -0.5971  0.1670 -0.1119
   75SLPC  H13A 6655   5.614   4.148   6.326  3.3378 -0.4578 -2.4566
   75SLPC  H13B 6656   5.743   4.267   6.322  0.1829 -0.4068  1.7584
   75SLPC  H13C 6657   5.639   4.250   6.464  1.4937 -0.4593  0.0047
   75SLPC   C14 6658   5.413   4.324   6.384 -0.2922 -0.0737 -0.3204
   75SLPC  H14A 6659   5.377   4.222   6.377  1.4211 -0.6240 -2.0554
   75SLPC  H14B 6660   5.421   4.345   6.489 -0.3562 -1.8593  0.0878
   75SLPC  H14C 6661   5.337   4.396   6.361  0.6864  1.7789  1.8904
   75SLPC   C15 6662   5.512   4.307   6.165  0.5362 -0.4947 -0.6431
   75SLPC  H15A 6663   5.434   4.367   6.121 -1.7853 -2.9091 -0.0741
   75SLPC  H15B 6664   5.600   4.307   6.102  1.9500 -0.3593  1.2706
   75SLPC  H15C 6665   5.468   4.209   6.168  1.5105 -0.9174  0.5245
   75SLPC   C12 6666   5.586   4.490   6.316 -0.2270 -0.5118 -0.4889
   75SLPC  H12A 6667   5.513   4.554   6.269 -1.1844 -1.2418 -0.0279
   75SLPC  H12B 6668   5.678   4.504   6.262 -0.2726  1.4167 -0.1183
   75SLPC   C11 6669   5.600   4.549   6.463  0.3800  0.3109 -0.2112
   75SLPC  H11A 6670   5.499   4.546   6.510 -0.0828 -2.8737 -1.1481
   75SLPC  H11B 6671   5.614   4.659   6.460  0.2688  0.4485  2.1422
   75SLPC     P 6672   5.860   4.504   6.515  0.3219  0.4860  0.3150
   75SLPC   O13 6673   5.933   4.380   6.473  0.6116 -0.1685  0.1661
   75SLPC   O14 6674   5.867   4.610   6.420 -0.2969 -0.0662 -1.3818
   75SLPC   O12 6675   5.698   4.476   6.543 -0.3994 -0.3471  0.4404
   75SLPC   O11 6676   5.926   4.561   6.651  0.3289  0.4139 -0.2772
   75SLPC    C1 6677   5.858   4.560   6.773  0.2745 -0.1324 -0.9607
   75SLPC    HA 6678   5.908   4.630   6.844 -2.6728 -0.7146  1.9929
   75SLPC    HB 6679   5.758   4.609   6.767  2.0656  4.1214  0.2047
   75SLPC    C2 6680   5.868   4.425   6.838  0.1066 -0.8554 -0.6271
   75SLPC    HS 6681   5.815   4.354   6.771  0.9827 -1.4676 -0.6787
   75SLPC   O21 6682   5.812   4.431   6.975 -0.2970 -0.6922  0.3511
   75SLPC   C21 6683   5.780   4.321   7.027  0.1328  0.7669 -0.0941
   75SLPC   O22 6684   5.786   4.209   6.979  0.2250  0.6552  0.2253
   75SLPC   C22 6685   5.703   4.354   7.157 -0.5329 -0.3823 -0.2983
   75SLPC   H2R 6686   5.713   4.462   7.177  0.1747 -0.3722 -0.6879
   75SLPC   H2S 6687   5.596   4.326   7.145 -1.5225  3.1120 -0.6931
   75SLPC    C3 6688   6.018   4.392   6.857 -0.0491 -0.5047 -0.3106
   75SLPC    HX 6689   6.065   4.383   6.757  0.7442 -0.4682  0.0576
   75SLPC    HY 6690   6.042   4.291   6.895  1.5845 -0.2439 -0.5950
   75SLPC   O31 6691   6.082   4.497   6.937 -0.2445 -0.2971 -0.1953
   75SLPC   C31 6692   6.111   4.481   7.057  0.6189  0.2718 -0.1879
   75SLPC   O32 6693   6.095   4.379   7.120 -0.6389 -0.0697  0.3915
   75SLPC   C32 6694   6.187   4.603   7.092 -0.3757 -0.2411  0.5281
   75SLPC   H2X 6695   6.137   4.692   7.048 -2.2308 -0.5022  1.9979
   75SLPC   H2Y 6696   6.290   4.609   7.049 -0.0226 -1.8988  1.0794
   75SLPC   C23 6697   5.760   4.276   7.276 -0.2445 -0.3524  0.1785
   75SLPC   H3R 6698   5.871   4.275   7.276 -0.1940  0.1293  2.3860
   75SLPC   H3S 6699   5.742   4.168   7.257 -0.0569 -0.1952 -0.9895
   75SLPC   C24 6700   5.694   4.317   7.409  0.1592 -0.1207 -0.7930
   75SLPC   H4R 6701   5.583   4.316   7.413  0.1207  2.3132  2.0385
   75SLPC   H4S 6702   5.715   4.426   7.420 -1.7711  0.1229  0.9531
   75SLPC   C25 6703   5.761   4.242   7.532  0.5334  0.5177 -0.7860
   75SLPC   H5R 6704   5.871   4.225   7.525  0.4488 -2.4359  2.3795
   75SLPC   H5S 6705   5.726   4.137   7.532 -0.1418  0.7345 -0.3225
   75SLPC   C26 6706   5.727   4.305   7.666 -0.5475 -0.4722 -0.0954
   75SLPC   H6R 6707   5.775   4.405   7.678 -0.8831 -0.3396  0.1413
   75SLPC   H6S 6708   5.783   4.239   7.735 -0.2811  0.9226  1.0783
   75SLPC   C27 6709   5.577   4.325   7.684  0.1760  0.0489 -0.1328
   75SLPC   H7R 6710   5.518   4.232   7.669 -0.1435  0.4995 -1.7821
   75SLPC   H7S 6711   5.542   4.399   7.609 -2.8721 -0.0552  1.0352
   75SLPC   C28 6712   5.554   4.384   7.830 -0.1889 -0.4769  0.5379
   75SLPC   H8R 6713   5.464   4.449   7.826 -1.8211 -2.7019 -0.6383
   75SLPC   H8S 6714   5.636   4.453   7.859  0.5079 -1.3826  0.7485
   75SLPC   C29 6715   5.528   4.287   7.941  0.1404 -0.1526 -0.6341
   75SLPC   H9R 6716   5.459   4.206   7.912  1.2017 -1.5803  0.6026
   75SLPC  C210 6717   5.580   4.293   8.069  1.1726 -0.7297  0.2044
   75SLPC  H10R 6718   5.555   4.211   8.138  0.0867  0.3674  1.1502
   75SLPC  C211 6719   5.684   4.380   8.124  0.3547  0.0076  0.4740
   75SLPC  H11R 6720   5.728   4.440   8.040 -1.8111 -1.5009 -1.8795
   75SLPC  H11S 6721   5.765   4.313   8.159  2.1363  1.5463 -0.4669
   75SLPC  C212 6722   5.625   4.471   8.229 -0.3479 -0.0029  0.2049
   75SLPC  H12R 6723   5.539   4.523   8.183 -1.0655  0.0097  1.5167
   75SLPC  C213 6724   5.667   4.508   8.351 -0.0989  0.0506 -0.9586
   75SLPC  H13R 6725   5.599   4.578   8.401  0.2287 -2.2267  3.1227
   75SLPC  C214 6726   5.776   4.454   8.437 -1.1458 -0.0148 -1.1972
   75SLPC  H14R 6727   5.847   4.387   8.384 -1.1331 -1.1890  0.2565
   75SLPC  H14S 6728   5.731   4.391   8.516 -1.0521  1.1338 -0.2017
   75SLPC  C215 6729   5.859   4.567   8.500  0.4917 -0.0815 -0.6223
   75SLPC  H15R 6730   5.786   4.646   8.531  0.1873 -0.6768  0.2158
   75SLPC  H15S 6731   5.932   4.594   8.420  0.7412 -0.9727 -0.6983
   75SLPC  C216 6732   5.954   4.515   8.616  0.1380 -0.4349  0.4659
   75SLPC  H16R 6733   6.004   4.430   8.565 -1.4075 -0.0262 -1.8625
   75SLPC  H16S 6734   5.882   4.472   8.688 -0.3315 -0.6322 -0.1180
   75SLPC  C217 6735   6.048   4.617   8.671 -0.2516  0.4390  1.0171
   75SLPC  H17R 6736   6.104   4.658   8.585 -1.4093 -1.3614 -0.6879
   75SLPC  H17S 6737   6.118   4.573   8.746  1.5777  0.5563 -0.5547
   75SLPC  C218 6738   5.973   4.723   8.741  0.0136 -0.2332  0.3035
   75SLPC  H18R 6739   5.910   4.773   8.664  1.9770  0.0676 -1.1975
   75SLPC  H18S 6740   6.038   4.809   8.771 -1.1228  0.4283  0.9324
   75SLPC  H18T 6741   5.919   4.686   8.831  0.6677 -0.3843  0.6385
   75SLPC   C33 6742   6.209   4.609   7.244 -0.2057  0.2239 -0.2214
   75SLPC   H3X 6743   6.265   4.517   7.274 -2.0500 -0.7237  0.4581
   75SLPC   H3Y 6744   6.279   4.690   7.274 -0.3249 -0.8935  3.6011
   75SLPC   C34 6745   6.082   4.629   7.322 -0.3550 -0.0330  0.4430
   75SLPC   H4X 6746   6.008   4.547   7.307  1.8373 -2.0108  0.0126
   75SLPC   H4Y 6747   6.032   4.725   7.296  2.7151  2.6133  3.3825
   75SLPC   C35 6748   6.115   4.634   7.469 -0.5450  0.2609 -0.8820
   75SLPC   H5X 6749   6.209   4.688   7.493 -1.0426  0.7756 -0.0229
   75SLPC   H5Y 6750   6.120   4.527   7.500 -3.2963 -0.4870 -2.6864
   75SLPC   C36 6751   5.994   4.672   7.551  0.2474 -0.2118  0.6415
   75SLPC   H6X 6752   5.925   4.585   7.547  0.5195 -0.4283  0.5952
   75SLPC   H6Y 6753   5.946   4.764   7.509 -0.4733 -0.7390  0.2865
   75SLPC   C37 6754   6.039   4.703   7.699 -0.2517 -0.4813  0.0640
   75SLPC   H7X 6755   6.098   4.797   7.706  0.5924 -0.7962 -2.0222
   75SLPC   H7Y 6756   6.110   4.622   7.727  1.0346  0.5657 -0.0826
   75SLPC   C38 6757   5.924   4.695   7.807  0.3652  0.0851 -0.2651
   75SLPC   H8X 6758   5.965   4.691   7.910  0.0177  2.3025  0.0148
   75SLPC   H8Y 6759   5.872   4.599   7.789 -0.4346  0.2834  0.8736
   75SLPC   C39 6760   5.816   4.807   7.796  0.9155  0.0416 -0.3681
   75SLPC   H9X 6761   5.800   4.829   7.689 -0.6190 -2.1881 -0.6500
   75SLPC   H9Y 6762   5.867   4.898   7.835  0.1055 -0.4383  2.0321
   75SLPC  C310 6763   5.687   4.777   7.871  0.0920 -0.1712 -0.0006
   75SLPC  H10X 6764   5.636   4.691   7.823  0.0084  1.2116 -2.5317
   75SLPC  H10Y 6765   5.620   4.865   7.861  1.8787  1.4682  1.6430
   75SLPC  C311 6766   5.696   4.750   8.020 -0.4074 -0.2852 -0.2122
   75SLPC  H11X 6767   5.771   4.673   8.049  0.7277 -0.2655 -2.8314
   75SLPC  H11Y 6768   5.595   4.710   8.044  0.6661 -2.6427  0.6254
   75SLPC  C312 6769   5.727   4.881   8.095  0.6472  0.0017  0.2296
   75SLPC  H12X 6770   5.656   4.960   8.065  1.5682  0.9004  0.3536
   75SLPC  H12Y 6771   5.832   4.904   8.066 -0.0988 -0.7683 -3.5788
   75SLPC  C313 6772   5.705   4.868   8.248 -0.3862  0.2996  0.2863
   75SLPC  H13X 6773   5.781   4.801   8.293 -2.3027 -0.7851  2.0622
   75SLPC  H13Y 6774   5.606   4.820   8.261  0.3220 -1.3695 -0.2293
   75SLPC  C314 6775   5.711   5.001   8.322 -0.0687 -0.0162  0.4025
   75SLPC  H14X 6776   5.616   5.053   8.297  1.1539  0.4823 -4.0421
   75SLPC  H14Y 6777   5.803   5.058   8.296  0.6247 -0.2562  2.1235
   75SLPC  C315 6778   5.726   4.988   8.473 -0.4703 -0.4906 -0.1057
   75SLPC  H15X 6779   5.761   5.084   8.517 -0.6166 -0.6517  0.3695
   75SLPC  H15Y 6780   5.800   4.908   8.491 -1.4051 -1.3132  0.1924
   75SLPC  C316 6781   5.604   4.939   8.545 -0.2821  0.1370  0.2888
   75SLPC  H16X 6782   5.603   4.828   8.552  1.7959  0.0779  0.3332
   75SLPC  H16Y 6783   5.512   4.977   8.497 -1.2434  1.1039  2.7492
   75SLPC  C317 6784   5.603   4.996   8.691  1.0787  0.2557  0.6376
   75SLPC  H17X 6785   5.506   4.960   8.731 -0.7756  2.9994 -1.0425
   75SLPC  H17Y 6786   5.599   5.107   8.687  0.9695  0.2120 -1.9653
   75SLPC  C318 6787   5.712   4.942   8.792 -0.4440 -0.2542 -0.4871
   75SLPC  H18X 6788   5.812   4.954   8.745 -0.6726  2.2836 -0.4496
   75SLPC  H18Y 6789   5.688   4.834   8.806  1.1109 -0.4537  1.1809
   75SLPC  H18Z 6790   5.710   5.002   8.885  3.9122 -1.1093  0.3911
   76SLPC     N 6791   1.942   2.463   6.079 -0.6647  1.0751 -0.5645
   76SLPC   C13 6792   2.011   2.490   5.949 -0.0254 -0.1590 -0.4469
   76SLPC  H13A 6793   1.950   2.535   5.872  1.7069  0.2997 -1.6222
   76SLPC  H13B 6794   2.095   2.555   5.969 -0.8501  0.4274  1.2557
   76SLPC  H13C 6795   2.043   2.400   5.897  0.2724  1.0986 -2.5978
   76SLPC   C14 6796   1.905   2.587   6.149  0.1051 -0.3177  0.1877
   76SLPC  H14A 6797   1.879   2.569   6.253 -0.0865  0.7233  0.3272
   76SLPC  H14B 6798   1.984   2.660   6.159 -0.3114 -0.0583  1.9076
   76SLPC  H14C 6799   1.814   2.630   6.110  0.6196  0.1030 -0.5735
   76SLPC   C15 6800   2.038   2.377   6.160 -0.0116 -0.3967  0.3292
   76SLPC  H15A 6801   2.036   2.274   6.129  0.8826 -0.4234  0.3215
   76SLPC  H15B 6802   2.140   2.410   6.146  0.4596 -1.8743  0.1576
   76SLPC  H15C 6803   2.012   2.388   6.265  1.1065 -0.1334  0.5902
   76SLPC   C12 6804   1.826   2.373   6.064 -0.3184  0.4879  0.1881
   76SLPC  H12A 6805   1.750   2.440   6.027  0.2506  0.1463 -1.6739
   76SLPC  H12B 6806   1.799   2.331   6.160  0.3320 -2.8618 -0.9488
   76SLPC   C11 6807   1.838   2.248   5.967  0.4248  0.3110  0.1175
   76SLPC  H11A 6808   1.881   2.289   5.874  0.7060 -0.4425 -0.0895
   76SLPC  H11B 6809   1.744   2.192   5.946  0.6153  0.5031 -1.3421
   76SLPC     P 6810   1.887   2.044   6.131  0.0073 -0.4542  0.4008
   76SLPC   O13 6811   1.764   1.979   6.078  0.1709 -0.3417 -0.0591
   76SLPC   O14 6812   2.007   1.965   6.160 -0.1927 -0.2868  0.1419
   76SLPC   O12 6813   1.933   2.148   6.018  0.3710  0.2338 -0.5092
   76SLPC   O11 6814   1.853   2.145   6.251  0.5394  0.6158 -0.1394
   76SLPC    C1 6815   1.742   2.108   6.336 -0.5842 -0.3299 -0.1527
   76SLPC    HA 6816   1.683   2.201   6.349  0.8320  0.5124  0.4869
   76SLPC    HB 6817   1.673   2.030   6.299  0.9472 -1.5236 -0.5678
   76SLPC    C2 6818   1.788   2.054   6.478  0.1309 -0.4153 -0.6318
   76SLPC    HS 6819   1.700   2.008   6.528  0.7966 -0.1222  0.8623
   76SLPC   O21 6820   1.831   2.167   6.556 -0.4071 -0.2294 -0.0871
   76SLPC   C21 6821   1.816   2.161   6.690 -0.1327 -0.2415 -0.3585
   76SLPC   O22 6822   1.746   2.085   6.751 -0.0891  0.1086 -0.9431
   76SLPC   C22 6823   1.929   2.249   6.751  0.9572  0.2499 -0.1165
   76SLPC   H2R 6824   1.990   2.305   6.677  0.7370 -0.2303 -0.6617
   76SLPC   H2S 6825   1.878   2.322   6.818 -0.0844  0.0621 -0.6782
   76SLPC    C3 6826   1.904   1.953   6.463 -0.6624  0.1154 -0.7486
   76SLPC    HX 6827   1.992   2.010   6.426 -1.3213  1.7307  0.0606
   76SLPC    HY 6828   1.876   1.888   6.377 -0.6158  0.2294 -0.8505
   76SLPC   O31 6829   1.937   1.880   6.584  0.1468 -0.5705  0.3400
   76SLPC   C31 6830   1.850   1.786   6.603 -0.0291  0.3370 -0.3597
   76SLPC   O32 6831   1.755   1.762   6.526 -0.1885  0.0351 -0.6102
   76SLPC   C32 6832   1.876   1.714   6.733 -0.2228  0.3244 -0.2505
   76SLPC   H2X 6833   1.972   1.660   6.716  0.8677  2.0541  0.1253
   76SLPC   H2Y 6834   1.792   1.643   6.745  0.3736 -0.6452 -1.6063
   76SLPC   C23 6835   2.024   2.170   6.844 -0.5459 -0.2359  0.2459
   76SLPC   H3R 6836   2.109   2.134   6.782  0.7150  0.3733  1.5829
   76SLPC   H3S 6837   1.976   2.086   6.898 -0.9370  0.3607  0.8371
   76SLPC   C24 6838   2.078   2.258   6.957  0.0972 -0.5087  0.5836
   76SLPC   H4R 6839   1.993   2.281   7.025  0.4615 -1.0856  1.2523
   76SLPC   H4S 6840   2.122   2.348   6.909 -0.3908 -0.7832 -0.4097
   76SLPC   C25 6841   2.180   2.200   7.052 -0.6978  1.0804  0.4569
   76SLPC   H5R 6842   2.266   2.159   6.995 -0.6927 -0.3555  1.4428
   76SLPC   H5S 6843   2.126   2.118   7.104  3.3134 -0.5428  2.5101
   76SLPC   C26 6844   2.217   2.300   7.167  0.8613 -0.0683  0.6777
   76SLPC   H6R 6845   2.126   2.324   7.224  0.6176  0.3130  0.1319
   76SLPC   H6S 6846   2.262   2.392   7.124  1.0343 -1.4449 -2.3813
   76SLPC   C27 6847   2.318   2.250   7.266 -0.3571  0.0859 -0.2024
   76SLPC   H7R 6848   2.360   2.334   7.326  1.4867 -2.0764  1.7089
   76SLPC   H7S 6849   2.402   2.193   7.222 -1.3939 -2.1972  0.5933
   76SLPC   C28 6850   2.248   2.153   7.361 -0.0815  0.0036 -0.4784
   76SLPC   H8R 6851   2.213   2.218   7.444 -1.4599  0.5771 -1.4844
   76SLPC   H8S 6852   2.163   2.103   7.310 -0.5638 -0.6374  0.8946
   76SLPC   C29 6853   2.339   2.035   7.407 -0.5246  0.1731 -0.1783
   76SLPC   H9R 6854   2.398   1.977   7.334 -0.5469 -1.7938  1.2765
   76SLPC  C210 6855   2.361   1.994   7.531 -0.2299 -0.0375  0.3845
   76SLPC  H10R 6856   2.428   1.908   7.549 -0.0721 -0.4055 -1.6467
   76SLPC  C211 6857   2.292   2.050   7.649 -0.4755  0.4453 -0.2581
   76SLPC  H11R 6858   2.224   1.966   7.673  0.6893 -0.1839  1.0048
   76SLPC  H11S 6859   2.224   2.137   7.640 -1.0525  0.1595  1.0441
   76SLPC  C212 6860   2.387   2.064   7.769 -0.3561 -0.0317 -0.3537
   76SLPC  H12R 6861   2.463   2.143   7.759  1.2586 -1.5856 -1.0949
   76SLPC  C213 6862   2.401   1.989   7.875 -0.8085  0.2092  0.0187
   76SLPC  H13R 6863   2.479   2.017   7.947 -0.6459  1.8058 -0.7230
   76SLPC  C214 6864   2.324   1.864   7.925  0.0501 -0.1465  0.1481
   76SLPC  H14R 6865   2.220   1.870   7.886  0.2095 -0.5677 -0.3511
   76SLPC  H14S 6866   2.325   1.874   8.035  1.4629  0.8065  0.0841
   76SLPC  C215 6867   2.390   1.728   7.893 -0.2294 -0.1818 -0.3209
   76SLPC  H15R 6868   2.322   1.654   7.941 -0.4815 -0.3426 -0.9098
   76SLPC  H15S 6869   2.490   1.722   7.939 -0.9449 -0.4202  1.2742
   76SLPC  C216 6870   2.387   1.717   7.739  0.0586  0.0118  0.5971
   76SLPC  H16R 6871   2.469   1.776   7.693  0.6585 -0.7045  0.7194
   76SLPC  H16S 6872   2.291   1.757   7.701  0.9771  0.5326 -1.2786
   76SLPC  C217 6873   2.395   1.580   7.680 -0.1256 -0.1785 -0.5314
   76SLPC  H17R 6874   2.298   1.528   7.699 -0.0662 -0.3072 -0.5806
   76SLPC  H17S 6875   2.480   1.534   7.734  0.8226  0.2320 -1.6278
   76SLPC  C218 6876   2.425   1.563   7.532  0.2724 -0.6515  0.2355
   76SLPC  H18R 6877   2.355   1.634   7.483 -2.1202 -1.2693  2.5365
   76SLPC  H18S 6878   2.410   1.460   7.494 -3.7953 -0.4078  0.8071
   76SLPC  H18T 6879   2.527   1.601   7.506  0.3781 -2.3681 -2.1236
   76SLPC   C33 6880   1.886   1.806   6.854 -0.3082  0.4037 -0.5286
   76SLPC   H3X 6881   1.798   1.872   6.866 -0.0138  0.7319 -0.1627
   76SLPC   H3Y 6882   1.968   1.879   6.839 -0.8971  1.1136 -0.3181
   76SLPC   C34 6883   1.910   1.735   6.989  0.4520 -0.1315  0.7898
   76SLPC   H4X 6884   2.001   1.672   6.972 -1.7478 -3.6530  1.0649
   76SLPC   H4Y 6885   1.820   1.675   7.016  0.3724  1.0254  3.3476
   76SLPC   C35 6886   1.951   1.833   7.099  0.4853 -0.8399 -0.4003
   76SLPC   H5X 6887   1.866   1.904   7.103  1.0357 -0.0983 -1.4485
   76SLPC   H5Y 6888   2.043   1.883   7.062  0.1240 -0.6066 -1.0097
   76SLPC   C36 6889   1.975   1.760   7.233 -0.3556  0.3880 -0.4554
   76SLPC   H6X 6890   2.073   1.708   7.230  0.3970  1.8126 -2.1374
   76SLPC   H6Y 6891   1.888   1.694   7.253  0.0751 -0.1960 -0.4741
   76SLPC   C37 6892   1.992   1.860   7.347  0.0109  0.6697 -0.0394
   76SLPC   H7X 6893   1.892   1.905   7.361 -1.4845 -2.8371  1.9461
   76SLPC   H7Y 6894   2.059   1.937   7.304  1.1379 -1.1706 -1.7783
   76SLPC   C38 6895   2.054   1.788   7.468  1.1060  0.2412  0.3743
   76SLPC   H8X 6896   2.126   1.852   7.524  1.9906 -1.1775  0.8895
   76SLPC   H8Y 6897   2.123   1.707   7.437  2.0391  0.4134  1.8819
   76SLPC   C39 6898   1.950   1.732   7.565  0.0357  0.0079 -0.3711
   76SLPC   H9X 6899   1.895   1.651   7.512  2.9873 -0.9360 -2.2500
   76SLPC   H9Y 6900   1.881   1.813   7.594  0.0287 -0.1568  0.0845
   76SLPC  C310 6901   2.005   1.672   7.696  0.4569 -0.3735 -1.1796
   76SLPC  H10X 6902   2.062   1.749   7.753 -0.1638 -0.3471 -0.5798
   76SLPC  H10Y 6903   2.076   1.590   7.670  0.9438  0.5740 -3.0542
   76SLPC  C311 6904   1.894   1.617   7.785  0.1393 -0.1642 -0.1858
   76SLPC  H11X 6905   1.833   1.541   7.732 -0.6876  0.1639  0.2919
   76SLPC  H11Y 6906   1.828   1.700   7.816  0.1825 -0.4485  0.7129
   76SLPC  C312 6907   1.954   1.556   7.917 -0.1369 -0.4370 -0.1307
   76SLPC  H12X 6908   1.989   1.645   7.974 -0.9550  0.3848 -0.8643
   76SLPC  H12Y 6909   2.044   1.495   7.898  0.1681  0.3955 -1.4864
   76SLPC  C313 6910   1.839   1.501   7.999 -0.8533 -0.3293  0.1685
   76SLPC  H13X 6911   1.815   1.399   7.961 -2.0170  0.2487 -0.6818
   76SLPC  H13Y 6912   1.751   1.569   7.996 -0.3862  0.2874  0.3684
   76SLPC  C314 6913   1.861   1.488   8.153  0.4352  0.1306  0.6276
   76SLPC  H14X 6914   1.863   1.588   8.201  2.8636  0.8415 -0.7584
   76SLPC  H14Y 6915   1.958   1.446   8.187 -0.5072 -0.7610  2.3288
   76SLPC  C315 6916   1.762   1.395   8.220  0.2363  0.3174  0.2135
   76SLPC  H15X 6917   1.799   1.386   8.325  3.0713 -0.6824 -0.7626
   76SLPC  H15Y 6918   1.759   1.302   8.159 -1.8731 -0.4399  1.3728
   76SLPC  C316 6919   1.620   1.447   8.207  0.6668  0.2860 -0.0636
   76SLPC  H16X 6920   1.578   1.443   8.105 -0.9741 -0.3349  0.5990
   76SLPC  H16Y 6921   1.622   1.554   8.240  4.0429  0.1822  0.3511
   76SLPC  C317 6922   1.524   1.367   8.287  0.7225 -0.7933  0.3715
   76SLPC  H17X 6923   1.562   1.373   8.391 -0.9177  0.5047  0.9337
   76SLPC  H17Y 6924   1.534   1.261   8.254  0.3758 -1.3252  1.9229
   76SLPC  C318 6925   1.377   1.417   8.284 -0.2791  0.0561  0.3270
   76SLPC  H18X 6926   1.335   1.386   8.185 -1.0855 -1.1989  1.0343
   76SLPC  H18Y 6927   1.368   1.528   8.294 -0.9733  0.0220  0.1732
   76SLPC  H18Z 6928   1.316   1.375   8.366 -1.8659 -1.8199 -1.6799
   77SLPC     N 6929   3.271   1.759   6.381  0.1080  0.0784  0.3427
   77SLPC   C13 6930   3.267   1.623   6.448 -0.4559  0.5820 -0.0566
   77SLPC  H13A 6931   3.208   1.613   6.538  0.4635 -1.7830  0.3514
   77SLPC  H13B 6932   3.234   1.552   6.373  1.5371 -0.9055  0.3871
   77SLPC  H13C 6933   3.367   1.592   6.474 -0.3276  0.8335 -0.2516
   77SLPC   C14 6934   3.130   1.810   6.370  0.1064 -0.5346  0.3778
   77SLPC  H14A 6935   3.088   1.831   6.467 -1.6214  0.1515 -0.4841
   77SLPC  H14B 6936   3.129   1.908   6.325  0.6076  0.0177  1.5138
   77SLPC  H14C 6937   3.068   1.748   6.308  0.3968 -0.1199 -0.3414
   77SLPC   C15 6938   3.333   1.749   6.248  0.1430  0.0841  0.1064
   77SLPC  H15A 6939   3.431   1.703   6.253 -1.2001 -2.8725  1.4438
   77SLPC  H15B 6940   3.278   1.690   6.176  1.9699 -0.8863 -0.5689
   77SLPC  H15C 6941   3.358   1.847   6.211 -0.6261 -0.3735 -1.7537
   77SLPC   C12 6942   3.352   1.849   6.469 -0.2755 -0.2606 -0.3462
   77SLPC  H12A 6943   3.457   1.832   6.454 -0.4830  0.0334 -2.2878
   77SLPC  H12B 6944   3.344   1.830   6.575  2.8474  1.7924  0.3797
   77SLPC   C11 6945   3.345   2.005   6.452 -0.2748  0.6566  0.2413
   77SLPC  H11A 6946   3.411   2.049   6.530 -2.0296 -0.4215  2.4371
   77SLPC  H11B 6947   3.242   2.031   6.484 -0.5672 -0.5324  0.3234
   77SLPC     P 6948   3.518   2.090   6.279  0.2655  0.2968  0.2723
   77SLPC   O13 6949   3.584   1.982   6.202  0.0274  0.0849  0.3682
   77SLPC   O14 6950   3.496   2.217   6.206 -0.0147  0.1124  0.4827
   77SLPC   O12 6951   3.374   2.042   6.318 -0.4315  0.1743  0.0499
   77SLPC   O11 6952   3.600   2.112   6.411 -0.8355 -0.5955 -0.3057
   77SLPC    C1 6953   3.591   2.243   6.476  0.1217  0.4182 -0.9180
   77SLPC    HA 6954   3.508   2.311   6.447  1.3134  1.2051 -2.5605
   77SLPC    HB 6955   3.570   2.222   6.584 -2.7468  2.1188 -1.0299
   77SLPC    C2 6956   3.725   2.327   6.466  0.1226  0.1184 -0.0000
   77SLPC    HS 6957   3.743   2.348   6.358 -1.1995  1.4952  0.0171
   77SLPC   O21 6958   3.837   2.254   6.527 -0.0451 -0.3199 -0.5275
   77SLPC   C21 6959   3.957   2.303   6.516  0.5907 -0.2943  0.6279
   77SLPC   O22 6960   3.981   2.401   6.451 -0.1308 -0.1406  0.3002
   77SLPC   C22 6961   4.056   2.228   6.599 -0.6040 -0.5502  0.2984
   77SLPC   H2R 6962   4.045   2.122   6.565 -1.6369 -0.2861 -0.2293
   77SLPC   H2S 6963   4.156   2.260   6.564 -0.5400 -0.2196  0.7711
   77SLPC    C3 6964   3.708   2.466   6.535 -0.8554  0.0403 -0.4037
   77SLPC    HX 6965   3.633   2.529   6.482 -0.3172  1.5975  0.6072
   77SLPC    HY 6966   3.802   2.525   6.528  0.0860 -1.1261  1.5268
   77SLPC   O31 6967   3.659   2.436   6.670 -0.1051 -0.0842 -0.1215
   77SLPC   C31 6968   3.705   2.522   6.761  0.5411 -0.1935  0.7039
   77SLPC   O32 6969   3.765   2.622   6.736 -0.3119 -0.8228  0.6495
   77SLPC   C32 6970   3.653   2.488   6.902 -0.3822  0.1614 -0.1362
   77SLPC   H2X 6971   3.543   2.474   6.905 -0.7196  1.9581 -2.0558
   77SLPC   H2Y 6972   3.667   2.579   6.965  0.7296 -0.2980  0.3147
   77SLPC   C23 6973   4.054   2.245   6.751 -0.2037  0.4537  0.3432
   77SLPC   H3R 6974   3.957   2.203   6.784 -0.0035  0.3845  0.8447
   77SLPC   H3S 6975   4.060   2.352   6.781 -1.4951  0.7115 -0.2574
   77SLPC   C24 6976   4.171   2.164   6.807  0.5016 -0.3064 -0.5273
   77SLPC   H4R 6977   4.268   2.212   6.783  0.2818 -0.3486 -1.5023
   77SLPC   H4S 6978   4.174   2.071   6.748 -2.3967  0.0134 -1.3342
   77SLPC   C25 6979   4.165   2.119   6.955  0.1119  0.2146 -0.2247
   77SLPC   H5R 6980   4.204   2.195   7.026  0.7519 -0.3357  0.0214
   77SLPC   H5S 6981   4.244   2.041   6.952 -0.6875 -0.6636  0.7535
   77SLPC   C26 6982   4.037   2.045   7.004  0.2967 -0.6486 -0.2629
   77SLPC   H6R 6983   4.038   1.949   6.947  1.8733 -1.0168  0.3240
   77SLPC   H6S 6984   3.945   2.103   6.982  1.0722  0.7484  0.0527
   77SLPC   C27 6985   4.033   2.027   7.153 -0.1856 -0.0452  0.0197
   77SLPC   H7R 6986   4.120   1.971   7.195 -1.8586 -0.4460  3.2771
   77SLPC   H7S 6987   3.947   1.958   7.164  2.1975 -3.2050  0.1129
   77SLPC   C28 6988   4.015   2.148   7.240  0.1385  0.3325 -0.2922
   77SLPC   H8R 6989   3.959   2.222   7.180  0.2055 -0.4399 -1.3277
   77SLPC   H8S 6990   4.116   2.189   7.258  0.9617 -2.1543  1.2986
   77SLPC   C29 6991   3.957   2.134   7.379  0.5155  0.0010  0.6095
   77SLPC   H9R 6992   3.853   2.168   7.390  0.9264  1.5864 -0.0532
   77SLPC  C210 6993   4.017   2.106   7.498 -0.2843 -0.1390 -0.4029
   77SLPC  H10R 6994   3.955   2.092   7.588  0.0744  1.0526  0.0526
   77SLPC  C211 6995   4.155   2.057   7.516 -0.5427 -0.1348  0.0754
   77SLPC  H11R 6996   4.213   2.110   7.595  0.4804 -0.9404 -0.1128
   77SLPC  H11S 6997   4.227   2.065   7.432 -0.6760 -0.2877 -0.0512
   77SLPC  C212 6998   4.148   1.908   7.554 -0.4572 -0.4153 -0.1448
   77SLPC  H12R 6999   4.099   1.850   7.473  1.1056 -0.6436 -0.9739
   77SLPC  C213 7000   4.182   1.855   7.672  0.3153  0.2922 -0.5383
   77SLPC  H13R 7001   4.162   1.749   7.697  0.3745  0.8225  2.1239
   77SLPC  C214 7002   4.249   1.941   7.785  0.1648  0.1620 -0.0100
   77SLPC  H14R 7003   4.200   2.040   7.793  1.7353  1.1390 -1.7533
   77SLPC  H14S 7004   4.353   1.952   7.748 -0.9059 -0.7338 -3.7165
   77SLPC  C215 7005   4.226   1.875   7.925  0.0177 -0.5004 -0.2721
   77SLPC  H15R 7006   4.284   1.781   7.935 -0.3636 -0.5567  2.2977
   77SLPC  H15S 7007   4.117   1.859   7.939 -0.2671  1.3938 -0.1080
   77SLPC  C216 7008   4.272   1.975   8.032  0.5623  0.3094  0.8632
   77SLPC  H16R 7009   4.235   1.932   8.127 -1.8284 -0.6547 -0.3883
   77SLPC  H16S 7010   4.220   2.073   8.034 -0.2893 -0.1375  1.3415
   77SLPC  C217 7011   4.414   2.012   8.045  0.0215 -0.8045 -0.6738
   77SLPC  H17R 7012   4.454   2.064   7.956 -0.7620  2.0017  0.5106
   77SLPC  H17S 7013   4.480   1.923   8.057  1.3530 -0.0112 -1.7750
   77SLPC  C218 7014   4.440   2.101   8.164 -0.5368  0.9788 -0.2310
   77SLPC  H18R 7015   4.548   2.120   8.180 -0.4323 -1.7044  3.6452
   77SLPC  H18S 7016   4.399   2.052   8.255  0.2241  2.2678  0.8299
   77SLPC  H18T 7017   4.385   2.198   8.158 -3.7225 -0.6026  0.7423
   77SLPC   C33 7018   3.720   2.362   6.955  0.4422  0.6493  0.1129
   77SLPC   H3X 7019   3.827   2.360   6.925  0.7032 -1.0121  1.0387
   77SLPC   H3Y 7020   3.685   2.268   6.908  1.3368 -0.5193  1.6686
   77SLPC   C34 7021   3.725   2.349   7.107 -0.7217  0.0909  0.1183
   77SLPC   H4X 7022   3.789   2.426   7.156 -0.5380  0.0135  0.0003
   77SLPC   H4Y 7023   3.773   2.251   7.126  2.6372  1.6851  0.6444
   77SLPC   C35 7024   3.580   2.339   7.165 -0.1198  0.0545 -0.1492
   77SLPC   H5X 7025   3.583   2.229   7.180  1.3336  0.2553  1.3172
   77SLPC   H5Y 7026   3.508   2.360   7.083 -0.1501  0.0983 -0.1117
   77SLPC   C36 7027   3.544   2.413   7.292 -0.5799  0.3138 -0.2589
   77SLPC   H6X 7028   3.444   2.384   7.331 -1.0135  0.6192 -1.1162
   77SLPC   H6Y 7029   3.550   2.522   7.274  2.3593  0.0968 -1.0732
   77SLPC   C37 7030   3.640   2.372   7.412 -0.0924  0.3385  0.5831
   77SLPC   H7X 7031   3.746   2.401   7.393 -0.0795 -0.3470 -0.4960
   77SLPC   H7Y 7032   3.645   2.262   7.429  0.2648  0.2215 -0.2381
   77SLPC   C38 7033   3.591   2.443   7.540  1.6157  0.7244 -0.5059
   77SLPC   H8X 7034   3.490   2.404   7.564  0.8865  2.5366 -0.4650
   77SLPC   H8Y 7035   3.578   2.553   7.536  0.2233  0.5808 -0.6225
   77SLPC   C39 7036   3.661   2.412   7.673 -0.2592  0.7911  0.1267
   77SLPC   H9X 7037   3.753   2.473   7.671  0.1924  0.1120 -1.3006
   77SLPC   H9Y 7038   3.703   2.310   7.687  0.8521  1.2138 -0.0162
   77SLPC  C310 7039   3.586   2.452   7.794  0.5615 -0.1259 -0.4460
   77SLPC  H10X 7040   3.636   2.402   7.880  2.1711  0.8231 -0.7867
   77SLPC  H10Y 7041   3.489   2.398   7.787  0.9963 -1.4610  2.4732
   77SLPC  C311 7042   3.562   2.605   7.812  0.4536 -0.0839  0.2704
   77SLPC  H11X 7043   3.532   2.644   7.713  0.8379  0.7275  0.4640
   77SLPC  H11Y 7044   3.661   2.650   7.835  0.4874 -0.4314  0.8575
   77SLPC  C312 7045   3.464   2.637   7.932 -0.0647  0.4496 -0.3904
   77SLPC  H12X 7046   3.355   2.622   7.916  0.0227 -0.5170 -0.1283
   77SLPC  H12Y 7047   3.466   2.746   7.951 -1.0219  0.7053 -1.6549
   77SLPC  C313 7048   3.512   2.557   8.055 -0.4882  0.6246 -0.3712
   77SLPC  H13X 7049   3.620   2.579   8.062 -0.1391 -0.8017 -0.9988
   77SLPC  H13Y 7050   3.500   2.447   8.051 -0.5411  0.4857  2.1014
   77SLPC  C314 7051   3.445   2.607   8.187  0.2866  0.1415 -0.0902
   77SLPC  H14X 7052   3.333   2.608   8.187  0.2756  1.3924 -0.9924
   77SLPC  H14Y 7053   3.478   2.712   8.200 -1.0048  0.6134 -0.3763
   77SLPC  C315 7054   3.485   2.539   8.315  0.0192 -0.5850 -0.4126
   77SLPC  H15X 7055   3.594   2.522   8.300 -0.0677 -0.5414 -1.1093
   77SLPC  H15Y 7056   3.434   2.440   8.315  0.6405 -0.9341  0.9510
   77SLPC  C316 7057   3.457   2.612   8.447  0.5737  0.4476 -0.7051
   77SLPC  H16X 7058   3.347   2.622   8.461  0.8453 -0.0876  2.3860
   77SLPC  H16Y 7059   3.505   2.712   8.443 -1.7034  1.6065 -0.8755
   77SLPC  C317 7060   3.505   2.529   8.570  0.1756 -0.9106  0.5096
   77SLPC  H17X 7061   3.460   2.431   8.546  0.0884 -0.3015 -2.2436
   77SLPC  H17Y 7062   3.474   2.584   8.661  2.4515  2.2925 -0.4243
   77SLPC  C318 7063   3.656   2.517   8.575 -0.3922  0.2640  0.2393
   77SLPC  H18X 7064   3.686   2.464   8.483 -0.8916  0.1431  0.1414
   77SLPC  H18Y 7065   3.683   2.463   8.669 -0.2279  1.7579  1.0832
   77SLPC  H18Z 7066   3.715   2.611   8.572  0.8524 -0.5071  0.1306
   78SLPC     N 7067   6.699   3.723   5.914 -0.0007 -0.6445 -0.4777
   78SLPC   C13 7068   6.837   3.732   5.852  0.3247  0.2385 -0.1802
   78SLPC  H13A 7069   6.894   3.641   5.862  1.2808  1.0467  3.3491
   78SLPC  H13B 7070   6.842   3.768   5.751  2.7178  0.6447  0.0327
   78SLPC  H13C 7071   6.898   3.803   5.906  1.4341 -2.1811  1.9152
   78SLPC   C14 7072   6.629   3.599   5.872 -0.4541  0.2108 -0.4077
   78SLPC  H14A 7073   6.699   3.518   5.856 -0.5503 -0.1863  1.0381
   78SLPC  H14B 7074   6.562   3.559   5.947  0.2079 -1.2584 -0.5587
   78SLPC  H14C 7075   6.582   3.611   5.776 -3.3679  0.0822  0.9059
   78SLPC   C15 7076   6.614   3.848   5.871 -0.2796 -0.0089  0.3516
   78SLPC  H15A 7077   6.519   3.862   5.921 -0.0656  0.5052  0.6181
   78SLPC  H15B 7078   6.666   3.942   5.880 -1.9225  1.2484 -2.0293
   78SLPC  H15C 7079   6.609   3.830   5.764 -0.4619 -2.0911  0.6648
   78SLPC   C12 7080   6.720   3.722   6.070  0.1169 -0.0243 -0.3234
   78SLPC  H12A 7081   6.769   3.814   6.099 -0.7091  0.0656  0.8569
   78SLPC  H12B 7082   6.794   3.646   6.087 -0.0436 -0.2722 -0.7080
   78SLPC   C11 7083   6.587   3.710   6.153  0.1601  0.0096  0.5809
   78SLPC  H11A 7084   6.519   3.787   6.111 -3.2189 -1.6121  2.6507
   78SLPC  H11B 7085   6.611   3.741   6.258  1.8955 -1.7016  0.7375
   78SLPC     P 7086   6.565   3.461   6.249  0.3672 -0.3709  0.3613
   78SLPC   O13 7087   6.483   3.345   6.215  0.3609  0.0339 -0.6007
   78SLPC   O14 7088   6.707   3.431   6.249 -0.0292 -0.4510 -0.3664
   78SLPC   O12 7089   6.535   3.579   6.144  0.8229  0.1389  0.0072
   78SLPC   O11 7090   6.520   3.514   6.391 -0.1439  0.5252  0.3997
   78SLPC    C1 7091   6.514   3.420   6.494  0.0012  0.1766  0.3933
   78SLPC    HA 7092   6.489   3.318   6.457 -1.9651  1.6672 -2.8485
   78SLPC    HB 7093   6.617   3.411   6.534  0.2199 -2.7770 -0.5884
   78SLPC    C2 7094   6.447   3.471   6.624  0.1830 -0.6248  0.7798
   78SLPC    HS 7095   6.475   3.405   6.709 -4.6567 -2.9750  0.8530
   78SLPC   O21 7096   6.306   3.479   6.613 -0.3417  0.0822  0.5854
   78SLPC   C21 7097   6.251   3.349   6.608 -0.2188 -0.3393 -0.8147
   78SLPC   O22 7098   6.322   3.251   6.626  0.1030 -1.0766 -0.0669
   78SLPC   C22 7099   6.095   3.358   6.606  0.8249  0.0361 -0.1282
   78SLPC   H2R 7100   6.069   3.464   6.587  0.7941  0.0541  0.0153
   78SLPC   H2S 7101   6.057   3.303   6.517 -0.8990  2.9848 -1.3447
   78SLPC    C3 7102   6.505   3.614   6.657 -0.1648 -0.0730  0.3401
   78SLPC    HX 7103   6.500   3.684   6.570 -2.4727  0.5054  0.8546
   78SLPC    HY 7104   6.612   3.602   6.683 -0.3795  0.1214  1.3510
   78SLPC   O31 7105   6.438   3.667   6.769 -0.1514  0.1619 -0.6624
   78SLPC   C31 7106   6.335   3.747   6.741 -0.0187 -0.6693 -0.5328
   78SLPC   O32 7107   6.295   3.769   6.626  0.4483  0.2050  0.1709
   78SLPC   C32 7108   6.268   3.794   6.869 -0.3066  0.9407  0.3477
   78SLPC   H2X 7109   6.344   3.857   6.921 -1.9424  3.6810 -0.3438
   78SLPC   H2Y 7110   6.265   3.697   6.922  3.4073 -0.2821 -1.3698
   78SLPC   C23 7111   6.028   3.294   6.731  0.1455  0.7534  1.1847
   78SLPC   H3R 7112   6.063   3.189   6.738  0.8103  0.8037 -0.6879
   78SLPC   H3S 7113   5.921   3.299   6.700  0.2816  0.9230  0.7197
   78SLPC   C24 7114   6.059   3.369   6.859  0.7313  0.5036 -0.5581
   78SLPC   H4R 7115   5.996   3.460   6.859  1.7229  1.2484 -2.1872
   78SLPC   H4S 7116   6.166   3.401   6.858  1.2883 -1.2434 -0.7967
   78SLPC   C25 7117   6.023   3.274   6.974  0.1232 -0.5477 -0.5543
   78SLPC   H5R 7118   6.087   3.185   6.955  0.5634 -0.6522  1.2604
   78SLPC   H5S 7119   5.918   3.242   6.957  0.3726 -0.6916 -1.8995
   78SLPC   C26 7120   6.050   3.340   7.110  0.1569  0.3407  0.0734
   78SLPC   H6R 7121   6.159   3.359   7.123  0.3627 -0.5686 -0.2456
   78SLPC   H6S 7122   6.037   3.262   7.188  1.9091 -0.5713 -0.4912
   78SLPC   C27 7123   5.961   3.460   7.149 -0.3055  0.1259  0.2503
   78SLPC   H7R 7124   5.856   3.429   7.133 -0.2385  0.5759 -1.2276
   78SLPC   H7S 7125   5.982   3.545   7.080 -2.4430 -0.0701 -0.7182
   78SLPC   C28 7126   5.981   3.502   7.299 -0.0353 -0.3088 -0.2970
   78SLPC   H8R 7127   5.953   3.416   7.364 -0.4557 -1.6527 -2.1792
   78SLPC   H8S 7128   5.915   3.586   7.328  0.9279  0.7067 -0.9622
   78SLPC   C29 7129   6.128   3.545   7.320 -0.9798  0.8850  0.1922
   78SLPC   H9R 7130   6.162   3.610   7.238 -2.2693  3.3304  1.4755
   78SLPC  C210 7131   6.218   3.500   7.415 -0.0334 -0.5030  0.1422
   78SLPC  H10R 7132   6.323   3.530   7.404  0.2122 -1.8567 -1.9881
   78SLPC  C211 7133   6.188   3.402   7.524 -0.4476  0.4447 -1.1825
   78SLPC  H11R 7134   6.078   3.391   7.535 -0.4723  2.2025  1.0800
   78SLPC  H11S 7135   6.217   3.441   7.624  0.3431 -1.7009 -0.5127
   78SLPC  C212 7136   6.239   3.258   7.489 -0.8484 -0.1071 -1.1552
   78SLPC  H12R 7137   6.169   3.194   7.432  1.3554 -2.5816 -1.2501
   78SLPC  C213 7138   6.364   3.209   7.527  0.4798  0.4102  0.1944
   78SLPC  H13R 7139   6.383   3.101   7.516 -0.6038  0.1404  0.8281
   78SLPC  C214 7140   6.472   3.278   7.607 -0.0314  0.5772  0.1992
   78SLPC  H14R 7141   6.505   3.376   7.567 -1.6084  0.5848 -1.1692
   78SLPC  H14S 7142   6.561   3.211   7.610  1.3716  2.3314 -0.7343
   78SLPC  C215 7143   6.433   3.287   7.761 -0.3358 -1.0256  0.7604
   78SLPC  H15R 7144   6.420   3.185   7.803  0.8053 -1.6092 -0.2347
   78SLPC  H15S 7145   6.335   3.338   7.758  0.2316  0.0688 -0.6234
   78SLPC  C216 7146   6.541   3.349   7.841  0.1635 -0.2879 -0.4325
   78SLPC  H16R 7147   6.633   3.293   7.813 -0.7162 -1.5730 -0.8451
   78SLPC  H16S 7148   6.520   3.325   7.947 -1.2507 -1.4625 -0.9397
   78SLPC  C217 7149   6.576   3.503   7.827  0.6987 -0.1030 -0.2312
   78SLPC  H17R 7150   6.631   3.516   7.732 -0.8166  1.5780 -0.9607
   78SLPC  H17S 7151   6.641   3.546   7.906 -0.8908  1.1412  0.4686
   78SLPC  C218 7152   6.456   3.605   7.818 -0.0814 -0.4576 -0.0903
   78SLPC  H18R 7153   6.425   3.616   7.711 -2.6794  0.5597  0.6728
   78SLPC  H18S 7154   6.481   3.711   7.840 -0.6304 -0.2308 -0.5099
   78SLPC  H18T 7155   6.370   3.566   7.876  0.0637 -0.5403  0.0681
   78SLPC   C33 7156   6.130   3.860   6.851 -0.1010 -0.3400 -0.3722
   78SLPC   H3X 7157   6.062   3.785   6.807 -0.6501 -0.5314  0.7664
   78SLPC   H3Y 7158   6.134   3.948   6.783 -2.2814  1.5841  1.8291
   78SLPC   C34 7159   6.056   3.910   6.979 -0.0551 -0.3801  0.2210
   78SLPC   H4X 7160   6.053   3.814   7.036  0.4697 -1.6655 -1.8040
   78SLPC   H4Y 7161   5.952   3.936   6.953  0.0732 -0.4805 -0.3970
   78SLPC   C35 7162   6.117   4.014   7.069 -0.6349 -1.1434 -0.0459
   78SLPC   H5X 7163   6.132   4.114   7.023  1.5182 -0.3459  2.1339
   78SLPC   H5Y 7164   6.214   3.968   7.099 -0.6045 -0.0510  1.7274
   78SLPC   C36 7165   6.047   4.033   7.201 -0.0194 -0.5233  0.0206
   78SLPC   H6X 7166   5.937   4.038   7.187 -0.0285 -1.3735 -0.2357
   78SLPC   H6Y 7167   6.087   4.126   7.246 -1.0207  0.5293 -1.1630
   78SLPC   C37 7168   6.065   3.918   7.301 -0.3042  0.3869  0.4983
   78SLPC   H7X 7169   6.161   3.935   7.354 -1.1408  0.3668  2.0882
   78SLPC   H7Y 7170   6.077   3.819   7.252  0.9282  0.0653  1.4013
   78SLPC   C38 7171   5.970   3.924   7.421 -0.1665 -0.8118 -0.0201
   78SLPC   H8X 7172   5.870   3.888   7.390  0.8265 -1.4542 -2.7213
   78SLPC   H8Y 7173   5.961   4.032   7.446 -0.6154 -0.7045 -0.6234
   78SLPC   C39 7174   6.008   3.840   7.549 -0.2192 -0.5489  0.7528
   78SLPC   H9X 7175   6.027   3.734   7.519 -3.2988 -1.3896  1.4085
   78SLPC   H9Y 7176   5.923   3.843   7.621 -0.8419  0.0881  0.0090
   78SLPC  C310 7177   6.132   3.899   7.622  0.6127 -0.4412  0.3055
   78SLPC  H10X 7178   6.128   4.009   7.641  1.9114 -0.1205 -1.1057
   78SLPC  H10Y 7179   6.224   3.884   7.561  0.2449  2.3928 -1.0954
   78SLPC  C311 7180   6.142   3.819   7.752 -0.4055  0.1187  0.0590
   78SLPC  H11X 7181   6.240   3.774   7.779  0.0523  1.0308 -0.0298
   78SLPC  H11Y 7182   6.072   3.734   7.750  0.4667 -0.6029 -0.3720
   78SLPC  C312 7183   6.105   3.904   7.866  0.5385  0.2400 -0.3336
   78SLPC  H12X 7184   5.998   3.935   7.860  0.5687  0.3188 -0.4572
   78SLPC  H12Y 7185   6.165   3.998   7.867  0.7232  0.1511  1.5295
   78SLPC  C313 7186   6.117   3.826   7.995 -0.4574  0.3695  1.0777
   78SLPC  H13X 7187   6.224   3.794   7.996  0.5221  2.8097 -2.6890
   78SLPC  H13Y 7188   6.058   3.732   7.995  0.4595 -0.2447  2.4664
   78SLPC  C314 7189   6.086   3.905   8.123  0.5123 -0.6069  0.8216
   78SLPC  H14X 7190   6.163   3.985   8.127  1.3650 -1.4159  0.8371
   78SLPC  H14Y 7191   6.098   3.834   8.208  0.3304 -0.9604  0.5529
   78SLPC  C315 7192   5.939   3.948   8.125 -1.1376 -0.7233 -0.0026
   78SLPC  H15X 7193   5.911   4.016   8.042 -1.8048 -0.2017  0.6341
   78SLPC  H15Y 7194   5.930   4.009   8.218 -0.7022 -0.8798  0.1442
   78SLPC  C316 7195   5.837   3.833   8.150  0.5840 -0.3139  0.0867
   78SLPC  H16X 7196   5.884   3.783   8.238 -0.4215 -0.2232  0.6847
   78SLPC  H16Y 7197   5.831   3.766   8.061 -1.8002 -0.8125  0.5520
   78SLPC  C317 7198   5.687   3.881   8.167  0.2315 -0.9687 -0.6488
   78SLPC  H17X 7199   5.612   3.800   8.160  0.3878 -1.0132 -2.0417
   78SLPC  H17Y 7200   5.679   3.947   8.079 -1.0653 -1.4276 -0.8885
   78SLPC  C318 7201   5.657   3.967   8.292  0.2321 -0.6305  0.0941
   78SLPC  H18X 7202   5.712   3.918   8.375  0.9193 -0.5679 -0.3148
   78SLPC  H18Y 7203   5.548   3.973   8.312 -0.1383  0.3396 -1.9270
   78SLPC  H18Z 7204   5.691   4.070   8.270 -0.7871 -0.2292  0.3189
   79SLPC     N 7205   5.237   4.788   5.845 -0.2327  1.2642 -0.1495
   79SLPC   C13 7206   5.250   4.637   5.852  0.6211 -0.2865  0.0940
   79SLPC  H13A 7207   5.301   4.591   5.768  0.8585  1.2601 -0.6438
   79SLPC  H13B 7208   5.307   4.607   5.938  1.4316  2.1990  0.4924
   79SLPC  H13C 7209   5.155   4.589   5.836  0.7977 -0.4209 -0.5958
   79SLPC   C14 7210   5.210   4.821   5.700 -0.6487 -0.6570 -1.1048
   79SLPC  H14A 7211   5.265   4.749   5.642 -0.4210 -1.0000 -0.4715
   79SLPC  H14B 7212   5.108   4.792   5.678 -1.9729 -0.7559  3.8499
   79SLPC  H14C 7213   5.213   4.925   5.672 -4.3734  0.6460  2.2878
   79SLPC   C15 7214   5.375   4.850   5.873 -0.6230  0.2014 -0.1614
   79SLPC  H15A 7215   5.417   4.815   5.966  1.4500 -0.9238 -1.4413
   79SLPC  H15B 7216   5.452   4.823   5.802 -2.2599  0.1918 -2.0021
   79SLPC  H15C 7217   5.368   4.958   5.877  1.6058  0.3630  1.4015
   79SLPC   C12 7218   5.134   4.836   5.940 -0.9010  0.4148  0.5730
   79SLPC  H12A 7219   5.035   4.806   5.911 -0.3689  1.3646 -2.7701
   79SLPC  H12B 7220   5.132   4.944   5.933  2.5981  0.7403  2.1927
   79SLPC   C11 7221   5.152   4.810   6.094  0.0686 -0.7530 -0.1722
   79SLPC  H11A 7222   5.087   4.886   6.142  0.3437 -0.2297 -0.6226
   79SLPC  H11B 7223   5.256   4.835   6.124  0.4094 -2.0665 -0.1845
   79SLPC     P 7224   5.211   4.590   6.219 -0.0229  0.2932  0.0037
   79SLPC   O13 7225   5.221   4.447   6.176 -0.3179  0.0990 -0.0855
   79SLPC   O14 7226   5.351   4.646   6.224  0.3498 -0.3686  0.0684
   79SLPC   O12 7227   5.116   4.675   6.127 -0.6920  0.0973  0.7983
   79SLPC   O11 7228   5.164   4.608   6.371 -0.4327 -0.5172  0.7744
   79SLPC    C1 7229   5.027   4.602   6.408 -0.2109 -0.5450  0.7604
   79SLPC    HA 7230   4.977   4.701   6.396  0.4605 -0.1467  1.1206
   79SLPC    HB 7231   4.977   4.532   6.339  2.5210 -0.5134 -1.4596
   79SLPC    C2 7232   5.014   4.562   6.557  0.3107  0.7188  0.0462
   79SLPC    HS 7233   4.960   4.465   6.560  2.9044 -0.8626 -0.7106
   79SLPC   O21 7234   4.951   4.669   6.631 -0.2599 -0.2309 -0.2379
   79SLPC   C21 7235   4.829   4.677   6.609 -0.1039  0.0018  0.7867
   79SLPC   O22 7236   4.760   4.605   6.532 -0.0971 -0.1892 -1.0715
   79SLPC   C22 7237   4.775   4.796   6.683  0.1216 -0.2377  0.6698
   79SLPC   H2R 7238   4.847   4.880   6.676  1.7391 -1.5515  0.9131
   79SLPC   H2S 7239   4.676   4.810   6.635 -0.1308 -1.8637  0.6558
   79SLPC    C3 7240   5.154   4.539   6.618 -0.4739 -0.3466 -0.0808
   79SLPC    HX 7241   5.215   4.632   6.611  1.2533 -1.1169  2.9456
   79SLPC    HY 7242   5.203   4.456   6.563  2.7825  2.7226 -2.2445
   79SLPC   O31 7243   5.136   4.510   6.760 -0.1431  0.4962  0.8583
   79SLPC   C31 7244   5.248   4.477   6.818 -0.4548 -0.0918 -0.2207
   79SLPC   O32 7245   5.360   4.464   6.761  0.2058  0.6230 -1.0040
   79SLPC   C32 7246   5.226   4.434   6.967  0.0122  0.2703  0.7046
   79SLPC   H2X 7247   5.124   4.394   6.983  0.6126 -2.1441 -0.9620
   79SLPC   H2Y 7248   5.257   4.515   7.036 -0.5287  0.3041  0.9053
   79SLPC   C23 7249   4.756   4.773   6.836  0.4701 -0.1627 -0.4058
   79SLPC   H3R 7250   4.709   4.673   6.848 -1.4240  0.5649 -1.2826
   79SLPC   H3S 7251   4.671   4.838   6.866 -0.4937 -1.3929 -0.3798
   79SLPC   C24 7252   4.871   4.780   6.930 -0.1198 -0.1913 -0.2823
   79SLPC   H4R 7253   4.899   4.887   6.940  1.3255 -0.6049  0.3052
   79SLPC   H4S 7254   4.955   4.718   6.893 -0.4641 -0.4024 -0.7308
   79SLPC   C25 7255   4.855   4.723   7.072 -0.5520 -1.0066 -0.1191
   79SLPC   H5R 7256   4.770   4.767   7.128 -0.1733  2.7420 -2.1454
   79SLPC   H5S 7257   4.940   4.747   7.139 -0.9794  1.4676 -0.3574
   79SLPC   C26 7258   4.843   4.567   7.064  0.2402 -1.0773 -0.5914
   79SLPC   H6R 7259   4.925   4.534   6.997 -1.8855 -0.2696 -3.8356
   79SLPC   H6S 7260   4.751   4.534   7.011  0.1550  0.8501 -1.6932
   79SLPC   C27 7261   4.854   4.505   7.204 -0.3090  0.0855  0.7921
   79SLPC   H7R 7262   4.936   4.558   7.257  0.9192 -0.6885 -0.2620
   79SLPC   H7S 7263   4.891   4.401   7.198  2.0977  0.9233 -0.2215
   79SLPC   C28 7264   4.729   4.523   7.284 -0.4084  0.5478 -0.0243
   79SLPC   H8R 7265   4.651   4.482   7.217  1.0032 -1.2979 -0.6412
   79SLPC   H8S 7266   4.710   4.628   7.314 -0.8474  0.4727 -0.0378
   79SLPC   C29 7267   4.725   4.452   7.412 -0.0584 -0.2488 -0.4884
   79SLPC   H9R 7268   4.677   4.354   7.419 -0.5474  0.0852  1.5772
   79SLPC  C210 7269   4.774   4.503   7.530  0.9805  0.9773  0.4545
   79SLPC  H10R 7270   4.758   4.440   7.619  0.3017  0.1148 -0.2611
   79SLPC  C211 7271   4.847   4.633   7.551 -0.1717  0.2937  0.6750
   79SLPC  H11R 7272   4.870   4.670   7.448  2.0252 -1.3956  0.4888
   79SLPC  H11S 7273   4.946   4.621   7.600  1.5644  0.7906 -2.4328
   79SLPC  C212 7274   4.764   4.741   7.625 -0.1868  0.0850  0.0488
   79SLPC  H12R 7275   4.704   4.799   7.552  2.5131  0.6177 -1.9169
   79SLPC  C213 7276   4.770   4.767   7.763 -0.1742 -0.7879 -0.1458
   79SLPC  H13R 7277   4.711   4.853   7.798  2.0778  1.5250 -1.6595
   79SLPC  C214 7278   4.857   4.700   7.869  0.6107  0.2594  0.6712
   79SLPC  H14R 7279   4.929   4.774   7.912 -0.0640  1.0264  0.5118
   79SLPC  H14S 7280   4.924   4.623   7.825 -0.9163 -1.2403  0.9112
   79SLPC  C215 7281   4.771   4.636   7.983  0.3415  0.0241  0.0838
   79SLPC  H15R 7282   4.833   4.572   8.050 -0.6608 -1.0209  0.0423
   79SLPC  H15S 7283   4.697   4.569   7.934  1.5294 -0.7804 -0.6846
   79SLPC  C216 7284   4.705   4.734   8.082 -0.2581 -0.0056  0.3678
   79SLPC  H16R 7285   4.634   4.805   8.035 -1.8354 -0.2014  2.3526
   79SLPC  H16S 7286   4.782   4.800   8.127  0.2190  1.2810 -2.1631
   79SLPC  C217 7287   4.643   4.670   8.209 -0.1570 -0.4657  0.7705
   79SLPC  H17R 7288   4.594   4.584   8.157 -0.3997  0.6626 -0.9766
   79SLPC  H17S 7289   4.564   4.741   8.242 -2.1708 -1.5273 -1.4446
   79SLPC  C218 7290   4.736   4.626   8.321  0.2486  0.2986  0.7414
   79SLPC  H18R 7291   4.683   4.541   8.369 -1.1774  1.9390  2.2338
   79SLPC  H18S 7292   4.731   4.706   8.398  1.6819  1.7351 -0.5952
   79SLPC  H18T 7293   4.839   4.605   8.287  0.2545  2.4027 -0.7666
   79SLPC   C33 7294   5.321   4.317   7.003 -0.2434 -0.0723  0.6059
   79SLPC   H3X 7295   5.420   4.366   7.013 -0.8083  1.4370 -0.8038
   79SLPC   H3Y 7296   5.317   4.252   6.913 -1.7165 -0.2870  0.8042
   79SLPC   C34 7297   5.269   4.233   7.126 -0.2920  0.1855 -0.4785
   79SLPC   H4X 7298   5.333   4.143   7.136 -0.8862 -0.2270 -0.3751
   79SLPC   H4Y 7299   5.171   4.187   7.103 -0.0385 -0.5297 -0.1439
   79SLPC   C35 7300   5.272   4.312   7.254 -0.1332 -0.1704  0.0673
   79SLPC   H5X 7301   5.197   4.394   7.251 -0.3795 -0.3916  0.1042
   79SLPC   H5Y 7302   5.362   4.376   7.257 -0.9845  1.0441  2.5067
   79SLPC   C36 7303   5.265   4.230   7.381  0.1681  0.3184  0.3095
   79SLPC   H6X 7304   5.369   4.219   7.419 -0.7941  0.5447  3.3116
   79SLPC   H6Y 7305   5.235   4.123   7.373  3.0130 -0.6841  1.6525
   79SLPC   C37 7306   5.178   4.282   7.490  0.3057 -0.1567 -0.6084
   79SLPC   H7X 7307   5.073   4.294   7.456 -0.5336 -1.2681  1.4221
   79SLPC   H7Y 7308   5.211   4.383   7.523 -3.6946  1.0622  0.1982
   79SLPC   C38 7309   5.184   4.188   7.610 -0.1292 -0.8730  0.0873
   79SLPC   H8X 7310   5.293   4.177   7.625  0.2443  2.5277  0.6382
   79SLPC   H8Y 7311   5.140   4.092   7.575 -1.3238  0.1086 -1.1694
   79SLPC   C39 7312   5.102   4.237   7.727 -0.5603 -0.3302  0.8099
   79SLPC   H9X 7313   5.107   4.147   7.792 -2.4649 -1.8893 -1.0197
   79SLPC   H9Y 7314   4.997   4.252   7.694 -1.2762 -1.6050  2.3496
   79SLPC  C310 7315   5.143   4.367   7.799 -0.2394 -0.3605  0.2051
   79SLPC  H10X 7316   5.112   4.452   7.735  3.1786  0.5284 -0.5046
   79SLPC  H10Y 7317   5.253   4.378   7.787 -0.1724 -2.7920 -2.4369
   79SLPC  C311 7318   5.084   4.385   7.935 -0.3623  1.0817  0.2997
   79SLPC  H11X 7319   4.977   4.358   7.926  0.4164 -2.6416  0.5994
   79SLPC  H11Y 7320   5.085   4.493   7.961  1.2411  1.0335  0.5515
   79SLPC  C312 7321   5.154   4.300   8.045  0.3691  0.1085 -0.7387
   79SLPC  H12X 7322   5.255   4.343   8.060  0.5767 -0.3865 -0.7214
   79SLPC  H12Y 7323   5.147   4.193   8.015 -0.8735 -0.7211  2.1046
   79SLPC  C313 7324   5.068   4.331   8.177  0.1809  0.2372 -0.0956
   79SLPC  H13X 7325   4.973   4.274   8.169  0.0836  0.2760  0.6999
   79SLPC  H13Y 7326   5.053   4.437   8.206  0.5836 -0.5246  3.3757
   79SLPC  C314 7327   5.128   4.275   8.298 -0.1017  0.3687 -0.1872
   79SLPC  H14X 7328   5.224   4.328   8.319  0.2608 -0.0404 -0.8012
   79SLPC  H14Y 7329   5.155   4.168   8.290  1.5984  0.9242 -3.3446
   79SLPC  C315 7330   5.033   4.284   8.416  0.2674 -0.8215 -0.1608
   79SLPC  H15X 7331   4.954   4.207   8.401  0.3705 -0.7568 -1.0856
   79SLPC  H15Y 7332   4.988   4.385   8.408  0.5060 -0.7014 -0.0022
   79SLPC  C316 7333   5.097   4.262   8.556 -0.5232  0.1552  0.6848
   79SLPC  H16X 7334   5.164   4.174   8.546 -1.9199 -0.9022  0.3639
   79SLPC  H16Y 7335   5.019   4.237   8.631 -0.7968 -0.6882  0.1290
   79SLPC  C317 7336   5.174   4.381   8.605 -1.0115  0.4321 -0.6652
   79SLPC  H17X 7337   5.104   4.467   8.606  0.4536  1.7401 -2.7671
   79SLPC  H17Y 7338   5.256   4.412   8.537  1.6298 -1.4612  1.4062
   79SLPC  C318 7339   5.232   4.351   8.747  0.1245  0.0310  0.0902
   79SLPC  H18X 7340   5.281   4.441   8.790 -1.1597  0.0879  1.5031
   79SLPC  H18Y 7341   5.309   4.272   8.736 -0.0732 -0.0822 -0.5243
   79SLPC  H18Z 7342   5.158   4.311   8.819 -0.4235  0.4417 -0.2357
   80SLPC     N 7343   5.881   1.690   6.228  0.4425 -0.2248  0.4040
   80SLPC   C13 7344   5.980   1.702   6.113  0.7907 -0.0576 -1.3405
   80SLPC  H13A 7345   5.929   1.732   6.023  1.4286 -1.4284 -2.2017
   80SLPC  H13B 7346   6.054   1.777   6.133  1.6409 -0.4968 -2.7261
   80SLPC  H13C 7347   6.030   1.608   6.092  1.8216  0.0741  0.3104
   80SLPC   C14 7348   5.778   1.801   6.222 -0.9593 -0.1042  0.2103
   80SLPC  H14A 7349   5.694   1.787   6.289 -0.1706  1.1044  1.5031
   80SLPC  H14B 7350   5.814   1.896   6.260 -1.9549 -0.0325  1.0000
   80SLPC  H14C 7351   5.751   1.809   6.117 -2.4085 -2.6128  0.3000
   80SLPC   C15 7352   5.969   1.701   6.347  0.3286  0.4015 -0.4911
   80SLPC  H15A 7353   5.895   1.697   6.425 -1.4030 -0.8801 -2.1113
   80SLPC  H15B 7354   6.044   1.624   6.360  0.6010  0.6738 -0.4263
   80SLPC  H15C 7355   6.031   1.789   6.348  1.4132 -0.3076 -1.7993
   80SLPC   C12 7356   5.811   1.554   6.226  0.3919  0.0157  0.3843
   80SLPC  H12A 7357   5.885   1.475   6.236  1.3715  1.0675  1.8096
   80SLPC  H12B 7358   5.770   1.533   6.128 -0.1669  0.9454  0.4077
   80SLPC   C11 7359   5.704   1.529   6.325  0.1347 -0.1616  0.2872
   80SLPC  H11A 7360   5.740   1.543   6.429  0.0038  0.6225  0.2317
   80SLPC  H11B 7361   5.686   1.419   6.328 -2.9854  0.2820  1.3363
   80SLPC     P 7362   5.479   1.672   6.355 -0.1843 -0.5596 -0.2524
   80SLPC   O13 7363   5.459   1.792   6.270 -0.4333  0.2450 -0.2196
   80SLPC   O14 7364   5.355   1.601   6.400 -0.1630 -0.4872  0.5617
   80SLPC   O12 7365   5.574   1.574   6.284  0.3152 -0.2453 -0.2073
   80SLPC   O11 7366   5.569   1.702   6.484  0.8448 -0.5767 -0.0520
   80SLPC    C1 7367   5.556   1.633   6.611  0.5234  0.3045  0.2806
   80SLPC    HA 7368   5.536   1.525   6.600  1.4280  0.1601 -0.0098
   80SLPC    HB 7369   5.653   1.640   6.664 -0.1967 -0.6836  1.8058
   80SLPC    C2 7370   5.420   1.671   6.689 -0.5658  0.6317 -0.8430
   80SLPC    HS 7371   5.340   1.697   6.617 -1.4341 -1.9395 -0.9159
   80SLPC   O21 7372   5.456   1.780   6.774  0.1343 -0.9338 -0.1851
   80SLPC   C21 7373   5.357   1.845   6.840  0.0390  0.5082  0.4084
   80SLPC   O22 7374   5.241   1.838   6.809  0.0066  0.4245  0.2054
   80SLPC   C22 7375   5.412   1.956   6.929  0.3559 -0.2622 -0.0681
   80SLPC   H2R 7376   5.521   1.952   6.951  0.1931  0.0367  0.8438
   80SLPC   H2S 7377   5.374   2.052   6.888  1.3854 -0.6366 -2.0342
   80SLPC    C3 7378   5.361   1.559   6.763 -0.1074  0.3811 -0.3674
   80SLPC    HX 7379   5.353   1.470   6.696 -2.1204  0.8325 -0.7978
   80SLPC    HY 7380   5.252   1.580   6.772 -0.2136  0.8919 -2.2777
   80SLPC   O31 7381   5.439   1.530   6.884 -0.1535  0.0218  0.1979
   80SLPC   C31 7382   5.377   1.450   6.975 -0.1824 -0.1073  0.2468
   80SLPC   O32 7383   5.271   1.396   6.967  0.2517  0.1950  0.2550
   80SLPC   C32 7384   5.484   1.410   7.078 -0.2004  0.6476 -0.2541
   80SLPC   H2X 7385   5.542   1.501   7.104 -1.3318  0.9561  1.3188
   80SLPC   H2Y 7386   5.554   1.337   7.032  0.5906  0.4251  1.2388
   80SLPC   C23 7387   5.351   1.956   7.076  1.0658 -0.0797 -0.3670
   80SLPC   H3R 7388   5.367   1.853   7.115 -3.8817 -1.4545 -1.3767
   80SLPC   H3S 7389   5.241   1.960   7.063  1.0960 -2.4254 -1.9536
   80SLPC   C24 7390   5.399   2.056   7.178 -0.2506 -0.2820  0.1858
   80SLPC   H4R 7391   5.397   2.155   7.129  1.4699 -0.2110  0.1998
   80SLPC   H4S 7392   5.503   2.031   7.208 -0.6055 -2.2963 -0.1134
   80SLPC   C25 7393   5.319   2.054   7.308 -0.7887  0.7542 -0.1790
   80SLPC   H5R 7394   5.326   1.955   7.360 -3.6887  0.1169 -0.8501
   80SLPC   H5S 7395   5.216   2.081   7.276 -2.0690 -0.2495  2.7708
   80SLPC   C26 7396   5.385   2.161   7.400 -0.6693  0.2067  0.4402
   80SLPC   H6R 7397   5.374   2.264   7.357  1.8664  0.0454 -0.7457
   80SLPC   H6S 7398   5.493   2.142   7.411 -0.9250 -2.6973 -1.1109
   80SLPC   C27 7399   5.322   2.160   7.539 -0.6123  0.5011 -0.2897
   80SLPC   H7R 7400   5.322   2.055   7.574  0.7610  1.1603  1.9057
   80SLPC   H7S 7401   5.216   2.192   7.541 -0.6809  0.3676  2.5643
   80SLPC   C28 7402   5.405   2.233   7.647  0.3596  0.2220 -0.2319
   80SLPC   H8R 7403   5.509   2.192   7.648 -0.0756 -0.9505 -1.0310
   80SLPC   H8S 7404   5.356   2.195   7.739  1.5480  1.2463  0.8533
   80SLPC   C29 7405   5.408   2.380   7.656  0.1135 -0.2285 -0.0196
   80SLPC   H9R 7406   5.379   2.430   7.563  0.4472  0.1028  0.0488
   80SLPC  C210 7407   5.435   2.453   7.769 -0.1102  0.6401 -0.2064
   80SLPC  H10R 7408   5.438   2.563   7.776  3.0465  0.5353  3.2495
   80SLPC  C211 7409   5.475   2.392   7.899  0.9331  0.4873  0.5228
   80SLPC  H11R 7410   5.547   2.308   7.892  0.0820 -0.4220  2.0241
   80SLPC  H11S 7411   5.382   2.344   7.937  1.1491 -1.6503 -1.4598
   80SLPC  C212 7412   5.507   2.495   7.995 -0.3721  0.6923 -0.7630
   80SLPC  H12R 7413   5.420   2.547   8.039 -0.1008 -0.3186  1.0517
   80SLPC  C213 7414   5.628   2.532   8.049  0.6085  0.0742  0.1545
   80SLPC  H13R 7415   5.628   2.614   8.122 -1.4183  1.1776 -1.0083
   80SLPC  C214 7416   5.753   2.463   8.012  0.1200  0.0245  0.6588
   80SLPC  H14R 7417   5.812   2.524   7.941 -1.4089  3.1857  1.8851
   80SLPC  H14S 7418   5.732   2.362   7.972  0.2420 -0.5376  1.9555
   80SLPC  C215 7419   5.840   2.436   8.140 -0.3002 -0.4323 -0.4197
   80SLPC  H15R 7420   5.858   2.533   8.192  1.7261 -0.3276 -1.2217
   80SLPC  H15S 7421   5.943   2.405   8.113 -0.0274  0.0102  0.0740
   80SLPC  C216 7422   5.776   2.327   8.230  0.4847 -0.9043  0.3203
   80SLPC  H16R 7423   5.763   2.237   8.167 -0.8983  0.0984 -0.9032
   80SLPC  H16S 7424   5.678   2.366   8.264  1.4970 -0.2205  2.6633
   80SLPC  C217 7425   5.876   2.312   8.347  0.4235  0.5748 -1.0828
   80SLPC  H17R 7426   5.925   2.405   8.381  0.6616  0.0523  0.0503
   80SLPC  H17S 7427   5.957   2.243   8.315 -0.4281 -1.6947  1.2553
   80SLPC  C218 7428   5.812   2.245   8.470  0.1504  0.2036 -0.1052
   80SLPC  H18R 7429   5.726   2.299   8.515 -0.5197 -0.1998 -0.8801
   80SLPC  H18S 7430   5.896   2.225   8.541  1.3544  1.8826 -0.9768
   80SLPC  H18T 7431   5.777   2.147   8.431  0.5062 -0.1644  0.4834
   80SLPC   C33 7432   5.414   1.335   7.191 -0.0789  0.7291  0.0097
   80SLPC   H3X 7433   5.400   1.229   7.161  1.4255  0.2150  1.0373
   80SLPC   H3Y 7434   5.314   1.379   7.213 -0.3536 -0.5974  1.5845
   80SLPC   C34 7435   5.493   1.334   7.323  0.6379 -0.9009 -0.0734
   80SLPC   H4X 7436   5.532   1.436   7.341 -2.2972  0.1210  0.9971
   80SLPC   H4Y 7437   5.586   1.282   7.291  2.0882  2.7428 -2.4469
   80SLPC   C35 7438   5.413   1.279   7.441  0.3532 -0.2909  0.7956
   80SLPC   H5X 7439   5.396   1.171   7.424 -0.1585 -0.0711 -0.1924
   80SLPC   H5Y 7440   5.312   1.325   7.451  0.7039  1.0245 -1.1985
   80SLPC   C36 7441   5.488   1.299   7.575  0.9107 -0.5214  0.0750
   80SLPC   H6X 7442   5.513   1.407   7.578  0.1265 -0.3077 -0.7283
   80SLPC   H6Y 7443   5.577   1.233   7.583 -0.2624 -2.1479  0.1437
   80SLPC   C37 7444   5.408   1.265   7.698  1.0518  0.0924 -0.3047
   80SLPC   H7X 7445   5.380   1.158   7.689 -3.9232  1.2727 -1.9952
   80SLPC   H7Y 7446   5.312   1.317   7.674  0.7849  0.2372  0.9970
   80SLPC   C38 7447   5.476   1.308   7.828  0.2224  0.2077  0.7320
   80SLPC   H8X 7448   5.505   1.416   7.821  0.0093  0.2542  0.5772
   80SLPC   H8Y 7449   5.577   1.261   7.826  0.5216  0.8319 -0.9654
   80SLPC   C39 7450   5.397   1.279   7.953 -0.2033  0.2048 -0.1130
   80SLPC   H9X 7451   5.376   1.171   7.938  0.4048 -0.3974  2.7002
   80SLPC   H9Y 7452   5.303   1.336   7.940  0.2425  0.5521 -2.2035
   80SLPC  C310 7453   5.479   1.300   8.085  0.6622  0.3703  0.7907
   80SLPC  H10X 7454   5.510   1.406   8.091 -1.6946  1.2038 -0.6016
   80SLPC  H10Y 7455   5.570   1.235   8.085  0.0649 -0.4905  0.8383
   80SLPC  C311 7456   5.404   1.257   8.207  0.5351  0.4906 -0.4353
   80SLPC  H11X 7457   5.397   1.147   8.218 -2.3906  0.5214 -1.3014
   80SLPC  H11Y 7458   5.300   1.289   8.187  0.7032  0.8803 -0.7032
   80SLPC  C312 7459   5.464   1.311   8.339 -0.7351 -0.1818  0.0029
   80SLPC  H12X 7460   5.478   1.421   8.334  3.0538 -0.5982 -2.2015
   80SLPC  H12Y 7461   5.565   1.264   8.334 -1.1602 -1.2282  0.8383
   80SLPC  C313 7462   5.386   1.266   8.458 -0.5190 -0.3782 -0.3867
   80SLPC  H13X 7463   5.449   1.299   8.543 -0.7021  0.2218 -0.4818
   80SLPC  H13Y 7464   5.383   1.155   8.456 -4.0411 -0.5040  2.1722
   80SLPC  C314 7465   5.240   1.319   8.471 -0.3559  0.0953  0.1534
   80SLPC  H14X 7466   5.212   1.302   8.578 -0.6692 -0.7265 -0.0532
   80SLPC  H14Y 7467   5.167   1.275   8.400 -0.1192  0.9705 -0.6497
   80SLPC  C315 7468   5.224   1.471   8.447 -0.0896  0.1652  0.0942
   80SLPC  H15X 7469   5.210   1.487   8.338  0.8015 -1.0152 -0.2205
   80SLPC  H15Y 7470   5.315   1.531   8.469 -0.8512  1.0723  0.8454
   80SLPC  C316 7471   5.098   1.534   8.505 -0.4983  0.0886 -0.1719
   80SLPC  H16X 7472   5.100   1.643   8.484  0.3400  0.5911  2.3050
   80SLPC  H16Y 7473   5.109   1.527   8.615  0.0459 -2.2440 -0.3408
   80SLPC  C317 7474   4.962   1.494   8.462 -0.3181  0.7680  0.5591
   80SLPC  H17X 7475   4.951   1.389   8.498 -0.1699  1.0989  1.6184
   80SLPC  H17Y 7476   4.969   1.481   8.352  0.2414  0.1957  0.6583
   80SLPC  C318 7477   4.846   1.578   8.511 -0.2445 -0.4732 -1.0874
   80SLPC  H18X 7478   4.743   1.550   8.480 -1.3408  0.6762  1.2541
   80SLPC  H18Y 7479   4.873   1.679   8.472 -0.0608 -0.1133 -0.0617
   80SLPC  H18Z 7480   4.846   1.576   8.622  1.2528  0.2614 -1.0415
   81SAPS     N 7481   0.366   3.993  10.963  0.1933 -0.1844  0.3848
   81SAPS   HN1 7482   0.348   4.014  10.863  0.7810 -1.5190 -0.0204
   81SAPS   HN2 7483   0.401   4.080  11.008 -1.8476  0.9011  0.0233
   81SAPS   HN3 7484   0.451   3.934  10.966  0.5535  0.3337  0.6252
   81SAPS   C12 7485   0.251   3.928  11.040 -0.9832 -0.7881 -1.0301
   81SAPS  H12A 7486   0.215   3.836  10.996 -2.7563 -0.0296 -1.2289
   81SAPS   C13 7487   0.300   3.896  11.184  0.2261  0.5172  0.2779
   81SAPS  O13A 7488   0.423   3.878  11.208 -0.2746  0.4601  0.4595
   81SAPS  O13B 7489   0.210   3.827  11.250 -0.4192  0.9596  0.2008
   81SAPS   C11 7490   0.137   4.034  11.064  0.0748 -0.3334 -0.0257
   81SAPS  H11A 7491   0.175   4.126  11.114 -2.6699  0.4482  0.8072
   81SAPS  H11B 7492   0.060   3.980  11.124 -1.8069  0.0381 -1.9888
   81SAPS     P 7493  -0.035   4.173  10.925  0.2662 -0.2703  0.2560
   81SAPS   O13 7494  -0.150   4.112  10.989  0.4087  1.1328 -0.1296
   81SAPS   O14 7495   0.004   4.305  10.972 -0.7096 -0.5355  0.4323
   81SAPS   O12 7496   0.083   4.074  10.935 -0.1202  0.0254 -0.0654
   81SAPS   O11 7497  -0.071   4.178  10.774  0.0566  0.3009 -0.2678
   81SAPS    C1 7498   0.022   4.128  10.678  0.0495 -0.3184  0.4546
   81SAPS    HA 7499   0.108   4.199  10.679 -0.1473 -0.0825  1.0275
   81SAPS    HB 7500   0.059   4.027  10.707  3.1531  0.3110 -0.9225
   81SAPS    C2 7501  -0.050   4.119  10.533 -0.3994  0.0391 -0.3527
   81SAPS    HS 7502  -0.095   4.217  10.511  0.0417 -0.0889 -1.9601
   81SAPS   O21 7503  -0.144   4.015  10.525 -0.0923  0.4805 -0.3299
   81SAPS   C21 7504  -0.259   4.036  10.460  0.0276 -0.2758  0.2094
   81SAPS   O22 7505  -0.291   4.144  10.419  0.2908  0.1161  0.4389
   81SAPS   C22 7506  -0.346   3.911  10.430  0.1838  0.2443 -0.4523
   81SAPS   H2R 7507  -0.374   3.864  10.527 -2.1001  1.4190 -0.4867
   81SAPS   H2S 7508  -0.447   3.942  10.397 -0.8095 -1.6438  0.6605
   81SAPS    C3 7509   0.065   4.081  10.433  0.3669  0.0689 -0.8536
   81SAPS    HX 7510   0.095   3.974  10.446 -0.0800  0.1394  1.0233
   81SAPS    HY 7511   0.152   4.144  10.461  0.0948 -1.1948  3.5617
   81SAPS   O31 7512   0.019   4.101  10.294 -0.0843  0.1585  0.2235
   81SAPS   C31 7513   0.033   4.212  10.237 -0.1193  0.4067 -0.2532
   81SAPS   O32 7514   0.076   4.310  10.286 -0.3859 -0.8418  0.0858
   81SAPS   C32 7515   0.014   4.180  10.084  0.1889 -0.4383 -0.6652
   81SAPS   H2X 7516  -0.088   4.141  10.063  0.5392 -1.5803 -0.3141
   81SAPS   H2Y 7517   0.089   4.099  10.072 -0.1481 -1.0074  0.8010
   81SAPS   C23 7518  -0.289   3.814  10.320 -0.0395 -0.2471  0.3038
   81SAPS   H3R 7519  -0.199   3.755  10.348 -1.3917 -2.9335 -0.7076
   81SAPS   H3S 7520  -0.257   3.888  10.243 -2.7170  1.6673  0.8653
   81SAPS   C24 7521  -0.387   3.712  10.255  0.2092  0.0272  0.5439
   81SAPS   H4R 7522  -0.392   3.627  10.327  0.7479 -2.9335 -2.6332
   81SAPS   H4S 7523  -0.328   3.681  10.166  0.9591 -0.2797  1.1356
   81SAPS   C25 7524  -0.523   3.755  10.208 -0.9626 -0.5688  0.6098
   81SAPS   H5R 7525  -0.575   3.817  10.283  2.2935  0.6970  2.0076
   81SAPS   C26 7526  -0.574   3.724  10.083 -0.4081 -0.4937 -0.1218
   81SAPS   H6R 7527  -0.676   3.765  10.070 -1.3224 -1.9650  1.8544
   81SAPS   C27 7528  -0.508   3.644   9.964 -0.0203  1.2870 -0.1174
   81SAPS   H7R 7529  -0.514   3.536   9.988 -4.7102  1.2156 -0.6981
   81SAPS   H7S 7530  -0.400   3.669   9.965  0.5604 -0.7046 -2.6871
   81SAPS   C28 7531  -0.556   3.694   9.822 -0.4877  0.6292 -0.0852
   81SAPS   H8R 7532  -0.586   3.800   9.819  2.4893  1.6528  1.6878
   81SAPS   C29 7533  -0.560   3.622   9.707  0.1301  0.2617  0.1123
   81SAPS   H9R 7534  -0.607   3.664   9.617  0.1495  1.1898  0.5218
   81SAPS  C210 7535  -0.528   3.472   9.699  0.0432 -0.8479  0.5061
   81SAPS  H10R 7536  -0.593   3.416   9.628  0.2953  1.6509 -1.8760
   81SAPS  H10S 7537  -0.560   3.429   9.796 -0.8301 -0.1988  0.5167
   81SAPS  C211 7538  -0.379   3.467   9.671 -0.4048 -0.1171 -0.2909
   81SAPS  H11R 7539  -0.313   3.496   9.754  0.5294 -1.2075 -0.6276
   81SAPS  C212 7540  -0.326   3.406   9.570 -0.7179  0.5225  0.4208
   81SAPS  H12R 7541  -0.216   3.402   9.566 -0.7766 -0.5968 -0.5633
   81SAPS  C213 7542  -0.390   3.330   9.451 -0.4664  0.1781  0.2668
   81SAPS  H13R 7543  -0.358   3.388   9.361 -0.5810 -2.0885 -1.3178
   81SAPS  H13S 7544  -0.501   3.328   9.449 -0.4904  0.7298 -1.9656
   81SAPS  C214 7545  -0.354   3.188   9.458  0.0400  0.4676 -0.4488
   81SAPS  H14R 7546  -0.361   3.142   9.558  3.7905  0.7623  0.0835
   81SAPS  C215 7547  -0.286   3.113   9.366 -0.5652 -0.1981 -0.8281
   81SAPS  H15R 7548  -0.255   3.012   9.397  1.2357  0.1394 -1.4482
   81SAPS  C216 7549  -0.242   3.144   9.224 -0.0471 -0.3979 -0.3304
   81SAPS  H16R 7550  -0.138   3.106   9.213 -0.2198 -1.2334  0.7766
   81SAPS  H16S 7551  -0.229   3.255   9.223 -2.6346 -0.0421 -0.7331
   81SAPS  C217 7552  -0.330   3.091   9.108  0.3032 -0.6364 -0.1600
   81SAPS  H17R 7553  -0.435   3.114   9.135  0.7555 -0.9934  2.1269
   81SAPS  H17S 7554  -0.316   2.981   9.108  2.1100 -0.4425 -0.3845
   81SAPS  C218 7555  -0.292   3.159   8.981 -0.2852  0.0707  0.2582
   81SAPS  H18R 7556  -0.185   3.149   8.951  0.1155  1.3032  1.1995
   81SAPS  H18S 7557  -0.303   3.268   8.993  0.3722  0.1399  0.2945
   81SAPS  C219 7558  -0.375   3.122   8.856  0.4398 -1.0381 -0.8223
   81SAPS  H19R 7559  -0.485   3.117   8.871  0.1040  1.4493 -1.8985
   81SAPS  H19S 7560  -0.351   3.015   8.839  2.9606 -0.8703  1.0418
   81SAPS  C220 7561  -0.357   3.216   8.738  1.0520 -0.0835 -0.7371
   81SAPS  H20R 7562  -0.249   3.215   8.713  1.2843  4.0243 -0.5048
   81SAPS  H20S 7563  -0.392   3.316   8.771  2.2461  0.1562 -0.1431
   81SAPS  H20T 7564  -0.411   3.184   8.647 -0.1959 -0.2564  0.0303
   81SAPS   C33 7565   0.055   4.296   9.979  0.6179  0.1876 -0.2646
   81SAPS   H3X 7566   0.160   4.329   9.992 -0.2342  2.8467  0.2884
   81SAPS   H3Y 7567  -0.009   4.385   9.996 -1.4661 -1.0729 -0.9895
   81SAPS   C34 7568   0.037   4.244   9.840 -0.1622 -0.4089  0.4221
   81SAPS   H4X 7569  -0.069   4.211   9.834 -0.8256  1.6668  0.0936
   81SAPS   H4Y 7570   0.091   4.148   9.825  1.6288  0.4670  1.0878
   81SAPS   C35 7571   0.054   4.348   9.732  0.1023 -0.7603  0.4689
   81SAPS   H5X 7572   0.162   4.365   9.717 -0.1197  0.4900  0.1814
   81SAPS   H5Y 7573  -0.010   4.436   9.754  0.4429  0.2410 -2.1534
   81SAPS   C36 7574  -0.006   4.291   9.595 -0.1051 -0.3348  0.0781
   81SAPS   H6X 7575  -0.102   4.238   9.610 -0.8392  1.1947  1.0221
   81SAPS   H6Y 7576   0.063   4.215   9.551 -0.2349 -1.6784  2.0717
   81SAPS   C37 7577  -0.024   4.399   9.490  0.3693  0.0849  0.3565
   81SAPS   H7X 7578   0.071   4.438   9.448 -0.7069  3.1806  0.5555
   81SAPS   H7Y 7579  -0.074   4.489   9.532  0.6967  0.1805  0.5467
   81SAPS   C38 7580  -0.112   4.346   9.376 -0.3872  0.3248 -0.6079
   81SAPS   H8X 7581  -0.214   4.355   9.418 -0.6524  0.2790 -1.2373
   81SAPS   H8Y 7582  -0.095   4.237   9.374  0.2224  0.4053 -0.3213
   81SAPS   C39 7583  -0.090   4.424   9.245 -0.0774 -0.1196 -0.3137
   81SAPS   H9X 7584  -0.160   4.375   9.173  0.8683 -0.5585 -0.9565
   81SAPS   H9Y 7585   0.014   4.411   9.206 -0.3662 -0.5167 -0.9856
   81SAPS  C310 7586  -0.120   4.569   9.262 -0.2212  0.3688 -0.0981
   81SAPS  H10X 7587  -0.029   4.619   9.301  0.7483 -0.5459 -1.0928
   81SAPS  H10Y 7588  -0.199   4.589   9.337 -1.1490 -1.5981 -0.4835
   81SAPS  C311 7589  -0.161   4.645   9.133  0.8035 -0.4464  0.2656
   81SAPS  H11X 7590  -0.236   4.594   9.069  0.5536  0.2961 -0.0440
   81SAPS  H11Y 7591  -0.069   4.647   9.071  0.2315  0.1786 -0.5735
   81SAPS  C312 7592  -0.207   4.792   9.156 -0.1047  0.1306 -0.2694
   81SAPS  H12X 7593  -0.142   4.856   9.219 -0.8644  1.3865 -0.7064
   81SAPS  H12Y 7594  -0.304   4.786   9.210 -0.4398 -1.2738 -0.9770
   81SAPS  C313 7595  -0.226   4.877   9.029  0.2778 -0.2547  0.2179
   81SAPS  H13X 7596  -0.124   4.897   8.989  1.8788 -5.0670  1.1822
   81SAPS  H13Y 7597  -0.290   4.963   9.056  0.5070  0.6973 -2.0461
   81SAPS  C314 7598  -0.297   4.793   8.918  0.0387 -0.0426 -0.1070
   81SAPS  H14X 7599  -0.395   4.755   8.956 -0.4594  1.8378  0.6198
   81SAPS  H14Y 7600  -0.241   4.708   8.872 -0.4452  1.3124 -3.4653
   81SAPS  C315 7601  -0.331   4.880   8.790 -0.3592  0.0683  0.3384
   81SAPS  H15X 7602  -0.240   4.893   8.727 -0.5797 -0.2306 -0.0490
   81SAPS  H15Y 7603  -0.364   4.980   8.824 -1.4676 -0.6376  1.3927
   81SAPS  C316 7604  -0.443   4.838   8.697  0.8959  0.3791 -0.4099
   81SAPS  H16X 7605  -0.538   4.833   8.754  0.8571  2.5480 -0.2289
   81SAPS  H16Y 7606  -0.413   4.734   8.670 -0.1479 -0.4866  1.5585
   81SAPS  C317 7607  -0.465   4.940   8.593  0.4352  0.0488  0.0709
   81SAPS  H17X 7608  -0.373   4.968   8.538  1.3724 -2.0892  0.4826
   81SAPS  H17Y 7609  -0.527   5.022   8.637  0.6295 -0.7527  1.9259
   81SAPS  C318 7610  -0.539   4.883   8.471 -0.1056  0.3626  0.0775
   81SAPS  H18X 7611  -0.542   4.973   8.405 -0.2044  1.4525  1.5017
   81SAPS  H18Y 7612  -0.641   4.851   8.501  2.0564 -4.3909  3.6200
   81SAPS  H18Z 7613  -0.481   4.800   8.427 -0.8958 -0.7684  1.1099
   82SAPS     N 7614   5.901   3.697  10.831  0.5887  0.1331  0.7784
   82SAPS   HN1 7615   5.959   3.740  10.756  1.7192 -0.1833  1.4463
   82SAPS   HN2 7616   5.879   3.599  10.804  2.4415  0.1548 -1.0512
   82SAPS   HN3 7617   5.812   3.751  10.844  1.0972  2.3805 -3.3173
   82SAPS   C12 7618   5.971   3.701  10.963  0.2246  0.2794  0.1004
   82SAPS  H12A 7619   6.016   3.798  10.971  1.6447 -0.3388 -0.0531
   82SAPS   C13 7620   5.885   3.660  11.087  0.1754  0.7296  0.6252
   82SAPS  O13A 7621   5.771   3.610  11.061  0.3154  0.2671 -0.3544
   82SAPS  O13B 7622   5.933   3.668  11.206  0.5157  0.3335  0.5601
   82SAPS   C11 7623   6.073   3.580  10.962 -0.6244  0.3707 -0.5178
   82SAPS  H11A 7624   6.022   3.487  10.930 -0.6347 -0.1893  1.0357
   82SAPS  H11B 7625   6.114   3.574  11.065  0.1225 -0.0084 -0.8319
   82SAPS     P 7626   6.302   3.506  10.863 -0.1674 -0.0509  0.2790
   82SAPS   O13 7627   6.431   3.574  10.895  0.0931  0.2623  0.0794
   82SAPS   O14 7628   6.284   3.387  10.944 -0.4317  0.2024 -0.0382
   82SAPS   O12 7629   6.184   3.618  10.879 -0.0796 -0.1386 -0.0923
   82SAPS   O11 7630   6.305   3.467  10.712 -0.0863 -0.4502 -0.8249
   82SAPS    C1 7631   6.248   3.550  10.608  0.1145 -0.3802  0.4607
   82SAPS    HA 7632   6.182   3.626  10.656  1.6581  1.9531 -0.9009
   82SAPS    HB 7633   6.330   3.605  10.557  0.3854 -0.5870  0.6696
   82SAPS    C2 7634   6.163   3.476  10.500 -0.4118  0.2630 -0.1330
   82SAPS    HS 7635   6.122   3.394  10.563  1.1288 -1.1265 -0.8459
   82SAPS   O21 7636   6.248   3.417  10.392  0.2979 -0.4326 -0.0329
   82SAPS   C21 7637   6.199   3.311  10.341  0.0946  0.0319 -0.3316
   82SAPS   O22 7638   6.105   3.248  10.387  0.3944  0.1962  0.0180
   82SAPS   C22 7639   6.289   3.266  10.229 -0.5986 -0.3526 -0.1827
   82SAPS   H2R 7640   6.289   3.347  10.152 -3.3436 -1.2311 -1.2654
   82SAPS   H2S 7641   6.390   3.240  10.267 -1.8838 -1.8045  2.5129
   82SAPS    C3 7642   6.058   3.578  10.448  0.5469  0.8531 -0.6727
   82SAPS    HX 7643   6.107   3.676  10.430  2.6420  0.2474  1.3060
   82SAPS    HY 7644   6.001   3.597  10.541  0.5348 -0.1772 -0.4576
   82SAPS   O31 7645   5.972   3.541  10.332 -1.2268 -0.0131  0.1885
   82SAPS   C31 7646   5.876   3.459  10.355 -0.1098  0.3707 -0.4943
   82SAPS   O32 7647   5.838   3.411  10.463 -0.2895  0.6361  0.7670
   82SAPS   C32 7648   5.823   3.431  10.210 -0.1009 -0.0825 -0.1787
   82SAPS   H2X 7649   5.738   3.500  10.191  0.6605  0.6349 -1.0826
   82SAPS   H2Y 7650   5.781   3.328  10.218 -1.3120  0.3932 -0.2005
   82SAPS   C23 7651   6.231   3.131  10.169 -0.1346 -0.3672 -0.4194
   82SAPS   H3R 7652   6.127   3.142  10.132  0.0329  0.3091 -0.7069
   82SAPS   H3S 7653   6.218   3.059  10.252 -3.7499  1.9844  1.2797
   82SAPS   C24 7654   6.319   3.069  10.053 -0.2049  0.3566  0.5984
   82SAPS   H4R 7655   6.275   2.969  10.031 -0.6827  0.7500 -0.2499
   82SAPS   H4S 7656   6.426   3.047  10.076 -0.1831  0.9023  1.0523
   82SAPS   C25 7657   6.316   3.158   9.928 -0.6818 -0.5880 -0.0401
   82SAPS   H5R 7658   6.346   3.263   9.939 -4.8111  0.6150  2.0058
   82SAPS   C26 7659   6.292   3.110   9.804  0.2349  0.1353  0.5940
   82SAPS   H6R 7660   6.293   3.185   9.723 -2.7313 -0.3623 -0.0132
   82SAPS   C27 7661   6.253   2.970   9.756  0.8451 -0.0246 -0.3224
   82SAPS   H7R 7662   6.196   2.966   9.662 -1.0912 -1.6399  0.8350
   82SAPS   H7S 7663   6.179   2.925   9.826  0.0727  0.0843 -1.0592
   82SAPS   C28 7664   6.371   2.883   9.759 -0.4657  1.1350  0.0893
   82SAPS   H8R 7665   6.418   2.867   9.857  0.5497  1.3512 -0.3578
   82SAPS   C29 7666   6.417   2.800   9.662  0.7960 -0.0361  0.6008
   82SAPS   H9R 7667   6.507   2.741   9.688 -0.9449 -2.0481  2.3724
   82SAPS  C210 7668   6.343   2.783   9.528 -0.5704  0.5373 -0.7417
   82SAPS  H10R 7669   6.409   2.822   9.448  0.3252  5.2929  1.9156
   82SAPS  H10S 7670   6.263   2.860   9.529 -0.2217  1.0894  3.1277
   82SAPS  C211 7671   6.302   2.645   9.482 -0.0070 -0.1391 -0.0586
   82SAPS  H11R 7672   6.290   2.586   9.574 -0.3710  1.3510  0.8926
   82SAPS  C212 7673   6.275   2.596   9.357 -0.9718  0.2374 -0.0439
   82SAPS  H12R 7674   6.238   2.493   9.357  0.2319 -0.2321  1.3622
   82SAPS  C213 7675   6.282   2.682   9.232 -0.6041  0.3362  0.3774
   82SAPS  H13R 7676   6.265   2.786   9.266 -1.6090  0.9610 -1.8570
   82SAPS  H13S 7677   6.197   2.666   9.161  1.4692 -0.0443 -2.1657
   82SAPS  C214 7678   6.409   2.675   9.150 -1.1100 -0.6951 -0.2949
   82SAPS  H14R 7679   6.491   2.738   9.189  1.0080 -1.0211 -3.8064
   82SAPS  C215 7680   6.433   2.612   9.037  0.2442  0.7243  0.5086
   82SAPS  H15R 7681   6.531   2.615   8.986  0.9522 -1.9578  1.5573
   82SAPS  C216 7682   6.337   2.513   8.983 -0.2925  0.4118  1.3440
   82SAPS  H16R 7683   6.241   2.569   8.988  0.2197  1.8773 -2.1216
   82SAPS  H16S 7684   6.330   2.423   9.047 -1.0455 -1.4340 -1.1994
   82SAPS  C217 7685   6.357   2.464   8.838 -0.7066 -0.4206 -0.1873
   82SAPS  H17R 7686   6.262   2.408   8.825 -0.8793 -0.0502 -0.5396
   82SAPS  H17S 7687   6.445   2.397   8.824  0.7016  0.9640  1.6599
   82SAPS  C218 7688   6.352   2.571   8.732  0.2342 -0.0536 -0.3492
   82SAPS  H18R 7689   6.447   2.629   8.737  1.0286 -1.2402 -1.1865
   82SAPS  H18S 7690   6.257   2.624   8.755 -1.0381 -1.0583 -2.8756
   82SAPS  C219 7691   6.336   2.516   8.593  0.3266  0.2279  0.4398
   82SAPS  H19R 7692   6.267   2.430   8.605 -0.0785  0.3293 -1.0451
   82SAPS  H19S 7693   6.432   2.473   8.559  0.2350  1.2845 -1.2428
   82SAPS  C220 7694   6.287   2.608   8.479 -0.2513  0.0143 -1.0544
   82SAPS  H20R 7695   6.375   2.662   8.437  0.4423 -2.0683 -2.4128
   82SAPS  H20S 7696   6.201   2.674   8.503  0.3166  1.0666 -1.8001
   82SAPS  H20T 7697   6.259   2.540   8.396  1.4232  0.0118 -1.6626
   82SAPS   C33 7698   5.920   3.441  10.090  0.3459  0.0729  0.0283
   82SAPS   H3X 7699   6.017   3.399  10.122 -0.1434 -1.4238 -0.3558
   82SAPS   H3Y 7700   5.935   3.548  10.062 -1.1597  0.1211 -0.7511
   82SAPS   C34 7701   5.872   3.353   9.979 -0.3186  0.1156  0.2427
   82SAPS   H4X 7702   5.768   3.386   9.959 -0.4962 -0.5759 -0.0297
   82SAPS   H4Y 7703   5.850   3.251  10.017  1.2330  0.5519  2.5062
   82SAPS   C35 7704   5.958   3.351   9.853  0.3981  0.1512  0.3743
   82SAPS   H5X 7705   6.064   3.319   9.867  0.8628  1.8618  0.9878
   82SAPS   H5Y 7706   5.966   3.454   9.813  0.4997  0.2706  0.6983
   82SAPS   C36 7707   5.886   3.256   9.751  0.3509  0.0997  0.2675
   82SAPS   H6X 7708   5.785   3.297   9.731  0.5351  0.6603  0.4743
   82SAPS   H6Y 7709   5.873   3.150   9.781  0.5050 -0.4147 -1.3450
   82SAPS   C37 7710   5.962   3.265   9.616 -0.4856 -1.0907  0.2476
   82SAPS   H7X 7711   6.065   3.234   9.643  0.1884 -0.6725 -1.6659
   82SAPS   H7Y 7712   5.981   3.368   9.577 -0.4195 -0.7133  1.2571
   82SAPS   C38 7713   5.905   3.158   9.525 -0.1501  0.4028  1.0920
   82SAPS   H8X 7714   5.799   3.183   9.501  0.3484 -0.1500 -2.1673
   82SAPS   H8Y 7715   5.906   3.057   9.571 -0.6962  0.9172  2.2837
   82SAPS   C39 7716   5.983   3.155   9.394  0.0594  0.2848  0.1356
   82SAPS   H9X 7717   6.089   3.144   9.422 -0.1000 -0.8381  0.3542
   82SAPS   H9Y 7718   5.973   3.254   9.344  0.7329 -0.1631 -0.9321
   82SAPS  C310 7719   5.948   3.037   9.302 -0.0211 -0.6772  0.0994
   82SAPS  H10X 7720   5.842   3.035   9.270  0.7057 -2.0230 -2.5459
   82SAPS  H10Y 7721   5.974   2.935   9.337  0.1780 -1.4715 -2.2110
   82SAPS  C311 7722   6.020   3.062   9.168  0.5013  0.3353  0.1298
   82SAPS  H11X 7723   6.128   3.063   9.195  0.4420  0.5435  0.3627
   82SAPS  H11Y 7724   5.993   3.158   9.119 -2.5414 -0.2606  0.4357
   82SAPS  C312 7725   5.996   2.947   9.064 -0.3967  1.2105 -0.7771
   82SAPS  H12X 7726   5.892   2.958   9.025 -1.3371 -2.8971  0.1387
   82SAPS  H12Y 7727   6.006   2.848   9.114 -1.3720  0.8676 -1.2293
   82SAPS  C313 7728   6.082   2.956   8.947 -0.3395  0.1329  0.9362
   82SAPS  H13X 7729   6.189   2.948   8.976  0.0293 -1.2433 -0.6837
   82SAPS  H13Y 7730   6.083   3.046   8.882  0.5935 -0.5592 -0.0241
   82SAPS  C314 7731   6.055   2.831   8.845 -0.3423  0.2979  0.1464
   82SAPS  H14X 7732   6.047   2.743   8.914  0.7513 -1.6873 -2.1215
   82SAPS  H14Y 7733   6.153   2.811   8.798  0.3640 -2.4102  2.4650
   82SAPS  C315 7734   5.932   2.836   8.754  0.0358 -0.3494 -0.1768
   82SAPS  H15X 7735   5.939   2.931   8.697  1.7783  0.2329  0.9309
   82SAPS  H15Y 7736   5.840   2.857   8.813  1.1129 -2.9133  2.6723
   82SAPS  C316 7737   5.915   2.701   8.679 -0.5720  0.7658 -0.2417
   82SAPS  H16X 7738   5.911   2.615   8.749  2.6133  0.5383 -0.1922
   82SAPS  H16Y 7739   6.008   2.677   8.623 -0.6744 -0.9450  0.2754
   82SAPS  C317 7740   5.792   2.694   8.588 -0.6958  0.1610  0.3824
   82SAPS  H17X 7741   5.802   2.596   8.537 -2.3772 -0.9031  1.9895
   82SAPS  H17Y 7742   5.803   2.772   8.510  1.4541 -0.0672  0.3775
   82SAPS  C318 7743   5.659   2.682   8.655 -0.1961 -0.0034 -0.7140
   82SAPS  H18X 7744   5.658   2.602   8.733 -0.3324  2.1663  1.6387
   82SAPS  H18Y 7745   5.578   2.648   8.586  1.8469 -1.3982 -2.5865
   82SAPS  H18Z 7746   5.635   2.775   8.710 -0.4162  0.3375 -1.3774
   83SAPS     N 7747   6.666   6.215  11.172 -0.0964 -0.3852  0.8515
   83SAPS   HN1 7748   6.735   6.261  11.110 -1.4124 -0.5020 -0.7549
   83SAPS   HN2 7749   6.682   6.240  11.272 -0.4605  1.8798  0.3854
   83SAPS   HN3 7750   6.700   6.118  11.159  4.0280  1.0954 -1.0703
   83SAPS   C12 7751   6.530   6.245  11.137 -0.1645  0.7495  0.0238
   83SAPS  H12A 7752   6.473   6.235  11.229 -0.8266  1.8312 -0.2485
   83SAPS   C13 7753   6.511   6.393  11.086  0.8635 -0.6085 -0.1117
   83SAPS  O13A 7754   6.610   6.450  11.027  0.7946  0.1135  0.2358
   83SAPS  O13B 7755   6.390   6.424  11.062 -0.1278 -0.1966 -0.3802
   83SAPS   C11 7756   6.476   6.146  11.028 -0.4429 -0.4605  0.1564
   83SAPS  H11A 7757   6.534   6.154  10.933 -0.0343  0.9549  0.5026
   83SAPS  H11B 7758   6.375   6.180  10.998  0.3796  0.3058 -1.9267
   83SAPS     P 7759   6.574   5.904  11.081  0.2237 -0.1778  0.2031
   83SAPS   O13 7760   6.698   5.978  11.081 -0.1728  0.2734 -0.3931
   83SAPS   O14 7761   6.561   5.816  11.195  0.1626  0.0823 -0.1155
   83SAPS   O12 7762   6.456   6.012  11.080 -0.1719  0.4470  0.6643
   83SAPS   O11 7763   6.551   5.828  10.943 -0.2267 -0.3192 -0.4270
   83SAPS    C1 7764   6.452   5.852  10.843 -0.1036 -0.1311 -0.4014
   83SAPS    HA 7765   6.362   5.890  10.896  2.0821  1.8644  2.1675
   83SAPS    HB 7766   6.500   5.913  10.764  1.1936  0.8314  1.0752
   83SAPS    C2 7767   6.402   5.715  10.792 -0.3370  0.9532  0.6777
   83SAPS    HS 7768   6.404   5.642  10.876  1.6263  0.7044  0.4648
   83SAPS   O21 7769   6.481   5.669  10.678 -0.3190  0.3668 -0.4519
   83SAPS   C21 7770   6.595   5.603  10.707  0.4087  0.2746 -0.2493
   83SAPS   O22 7771   6.632   5.565  10.817 -0.2783  0.1956 -0.0502
   83SAPS   C22 7772   6.675   5.596  10.582  0.3795 -0.0135 -0.0243
   83SAPS   H2R 7773   6.646   5.506  10.523 -2.5598  1.5187 -1.1085
   83SAPS   H2S 7774   6.647   5.677  10.511  1.2968  0.2139 -0.1391
   83SAPS    C3 7775   6.247   5.720  10.757  0.3091  0.7335 -0.2136
   83SAPS    HX 7776   6.194   5.712  10.854  1.5227 -2.0915  0.3219
   83SAPS    HY 7777   6.232   5.626  10.699 -3.6673  0.3635  1.1538
   83SAPS   O31 7778   6.213   5.837  10.677 -0.0783 -0.0275 -0.6031
   83SAPS   C31 7779   6.086   5.842  10.644 -0.1878  0.3831 -0.3020
   83SAPS   O32 7780   5.997   5.771  10.689  0.1381 -0.7377  0.6777
   83SAPS   C32 7781   6.055   5.963  10.557 -0.2645  0.4344 -1.0021
   83SAPS   H2X 7782   6.143   5.982  10.492 -0.1665 -0.3287 -1.0956
   83SAPS   H2Y 7783   6.036   6.051  10.623 -3.3401  0.4501 -1.7450
   83SAPS   C23 7784   6.821   5.578  10.607 -0.3643 -0.2705 -0.0286
   83SAPS   H3R 7785   6.838   5.487  10.668 -0.1045 -0.3614 -0.2349
   83SAPS   H3S 7786   6.847   5.664  10.673 -1.9966  0.1250  0.1399
   83SAPS   C24 7787   6.902   5.578  10.470  0.0768 -0.2417 -0.3476
   83SAPS   H4R 7788   6.867   5.491  10.411  0.8033 -1.7894  1.3964
   83SAPS   H4S 7789   7.008   5.562  10.497 -0.0951  0.2261  0.6686
   83SAPS   C25 7790   6.905   5.715  10.399 -0.3913 -0.1471 -0.5888
   83SAPS   H5R 7791   6.968   5.795  10.441 -0.8092 -1.0127  1.8647
   83SAPS   C26 7792   6.866   5.746  10.275 -0.5071  0.6503  0.0327
   83SAPS   H6R 7793   6.879   5.849  10.239  0.0832  1.5128  2.5085
   83SAPS   C27 7794   6.808   5.647  10.185 -0.0410 -0.7417  0.3989
   83SAPS   H7R 7795   6.710   5.623  10.232  1.2140 -0.8531  3.1316
   83SAPS   H7S 7796   6.861   5.549  10.185 -0.4927 -0.9955  1.0348
   83SAPS   C28 7797   6.787   5.702  10.050 -0.6016 -0.2129 -0.4785
   83SAPS   H8R 7798   6.759   5.808  10.052  0.7989  0.1922  2.5444
   83SAPS   C29 7799   6.806   5.652   9.928 -0.6087  0.4368 -0.3903
   83SAPS   H9R 7800   6.788   5.720   9.843  0.9839 -0.5758 -1.5747
   83SAPS  C210 7801   6.855   5.514   9.896  0.3358 -0.0822  0.0560
   83SAPS  H10R 7802   6.766   5.466   9.850  0.8172 -0.9339 -0.0039
   83SAPS  H10S 7803   6.883   5.459   9.988  2.5577 -0.7541 -0.9464
   83SAPS  C211 7804   6.981   5.475   9.820  0.1907 -0.1120 -0.5025
   83SAPS  H11R 7805   7.059   5.419   9.874  0.5600  0.1336 -0.7794
   83SAPS  C212 7806   7.006   5.507   9.695 -0.4558  0.0275  0.3715
   83SAPS  H12R 7807   7.101   5.472   9.651 -1.4018 -1.6162 -0.4493
   83SAPS  C213 7808   6.914   5.570   9.596  0.2270 -0.0973  0.9921
   83SAPS  H13R 7809   6.977   5.596   9.507  0.4029 -1.4041  0.7126
   83SAPS  H13S 7810   6.869   5.668   9.624  1.9949  1.5450 -1.4640
   83SAPS  C214 7811   6.801   5.473   9.555 -0.4506 -0.4975 -0.0824
   83SAPS  H14R 7812   6.756   5.417   9.639 -0.0113  0.9064  1.1313
   83SAPS  C215 7813   6.754   5.467   9.427 -0.4950 -0.1780  0.9648
   83SAPS  H15R 7814   6.686   5.384   9.404  1.2025 -1.5269  0.6343
   83SAPS  C216 7815   6.805   5.542   9.309  0.8621  0.1114 -0.2436
   83SAPS  H16R 7816   6.811   5.469   9.226 -0.1125 -0.6876  0.3597
   83SAPS  H16S 7817   6.905   5.589   9.318  0.2663  1.1767  1.3373
   83SAPS  C217 7818   6.705   5.662   9.275  0.1273  0.0103  0.1774
   83SAPS  H17R 7819   6.683   5.718   9.369 -1.6272 -0.3907  0.0360
   83SAPS  H17S 7820   6.607   5.619   9.245  0.3991 -1.3346  1.1393
   83SAPS  C218 7821   6.747   5.760   9.157  0.2419  0.8523  0.7032
   83SAPS  H18R 7822   6.834   5.827   9.171  0.2939  1.3983 -1.6994
   83SAPS  H18S 7823   6.657   5.823   9.142 -0.3204 -0.3299 -1.4215
   83SAPS  C219 7824   6.767   5.680   9.027  0.6161 -0.1041 -0.2466
   83SAPS  H19R 7825   6.676   5.620   9.005 -0.0860  0.7832  0.1671
   83SAPS  H19S 7826   6.856   5.614   9.033  0.5982 -0.3742 -2.2890
   83SAPS  C220 7827   6.780   5.775   8.902  0.6340  0.4913  0.2253
   83SAPS  H20R 7828   6.876   5.828   8.919  1.4108 -0.9617  0.5237
   83SAPS  H20S 7829   6.700   5.850   8.919  1.6367  2.2464 -2.2154
   83SAPS  H20T 7830   6.781   5.728   8.802 -1.3185  0.4516  0.1900
   83SAPS   C33 7831   5.914   5.940  10.495 -0.5029  0.5269  0.9345
   83SAPS   H3X 7832   5.841   5.922  10.577 -0.5918 -1.6299  0.4306
   83SAPS   H3Y 7833   5.914   5.861  10.416  1.5529  1.6714 -0.3103
   83SAPS   C34 7834   5.872   6.063  10.421 -0.2875 -0.1372  1.2161
   83SAPS   H4X 7835   5.883   6.148  10.492  2.0383  0.0590  0.6893
   83SAPS   H4Y 7836   5.767   6.051  10.387  0.3356  3.4723 -3.1304
   83SAPS   C35 7837   5.945   6.098  10.286  0.1668 -0.5414  0.5628
   83SAPS   H5X 7838   5.961   6.004  10.229 -0.5729  0.6516 -1.7849
   83SAPS   H5Y 7839   6.040   6.149  10.311  0.2247 -1.1856  1.7063
   83SAPS   C36 7840   5.859   6.190  10.201 -0.1765  0.1171 -0.3446
   83SAPS   H6X 7841   5.846   6.294  10.237 -2.0924 -0.6034  1.1996
   83SAPS   H6Y 7842   5.758   6.148  10.219  0.5266 -1.3161  0.4704
   83SAPS   C37 7843   5.892   6.189  10.054  0.7614 -0.9247 -0.0483
   83SAPS   H7X 7844   5.900   6.084  10.020  1.9194 -0.6512 -0.6600
   83SAPS   H7Y 7845   5.987   6.243  10.034  1.5541 -1.2356  2.5263
   83SAPS   C38 7846   5.783   6.268   9.977  0.3639  0.0353 -0.0518
   83SAPS   H8X 7847   5.792   6.374  10.009  0.5635  0.0809 -0.2605
   83SAPS   H8Y 7848   5.683   6.221   9.987  1.4228 -2.3997 -0.0295
   83SAPS   C39 7849   5.807   6.270   9.824 -0.0829  0.2980  0.7762
   83SAPS   H9X 7850   5.804   6.164   9.790  0.9358  0.2299  0.8675
   83SAPS   H9Y 7851   5.914   6.297   9.810 -0.1620  0.2512  0.0157
   83SAPS  C310 7852   5.709   6.362   9.745  0.1276 -0.5319  0.2508
   83SAPS  H10X 7853   5.693   6.465   9.785 -1.6433 -0.2702 -1.0223
   83SAPS  H10Y 7854   5.611   6.310   9.748  0.9366 -2.4331 -2.3839
   83SAPS  C311 7855   5.744   6.372   9.591  0.2480 -0.3471 -0.5159
   83SAPS  H11X 7856   5.780   6.271   9.563 -1.3611 -1.1854  0.3305
   83SAPS  H11Y 7857   5.828   6.444   9.578  0.9307 -1.4758 -2.8814
   83SAPS  C312 7858   5.619   6.415   9.516 -0.0960 -0.0822  0.5077
   83SAPS  H12X 7859   5.590   6.515   9.555  0.3501  0.3929 -0.3512
   83SAPS  H12Y 7860   5.530   6.352   9.539 -1.8862  2.9532  2.6300
   83SAPS  C313 7861   5.646   6.425   9.366 -0.2297  0.4002 -0.4508
   83SAPS  H13X 7862   5.679   6.333   9.314 -1.4958  1.5535 -3.5140
   83SAPS  H13Y 7863   5.730   6.499   9.364 -0.5067  0.8323  1.5320
   83SAPS  C314 7864   5.536   6.490   9.286  0.1040  0.6671 -0.1013
   83SAPS  H14X 7865   5.518   6.588   9.335  2.3086  0.9951  0.1552
   83SAPS  H14Y 7866   5.448   6.423   9.281 -0.2879  1.2943 -2.7585
   83SAPS  C315 7867   5.572   6.508   9.142 -0.6023  0.7721  0.4020
   83SAPS  H15X 7868   5.585   6.410   9.091  1.5185  0.6641  1.0455
   83SAPS  H15Y 7869   5.666   6.567   9.140 -0.0690  0.0777  2.5316
   83SAPS  C316 7870   5.458   6.564   9.060  0.2975  0.5615 -0.2911
   83SAPS  H16X 7871   5.425   6.660   9.105 -0.0979 -0.1388  0.9563
   83SAPS  H16Y 7872   5.376   6.490   9.073 -0.1807  1.1231 -0.0590
   83SAPS  C317 7873   5.501   6.581   8.913 -0.1971  0.0557 -0.0431
   83SAPS  H17X 7874   5.513   6.488   8.853  1.0980  0.8261 -1.0057
   83SAPS  H17Y 7875   5.604   6.621   8.910 -0.0768 -0.2880 -0.5743
   83SAPS  C318 7876   5.402   6.663   8.834 -0.0364  0.8267 -0.0182
   83SAPS  H18X 7877   5.419   6.650   8.725  1.5835  2.0448  0.0443
   83SAPS  H18Y 7878   5.410   6.769   8.865 -1.1050  0.4885  1.5189
   83SAPS  H18Z 7879   5.302   6.620   8.856  1.3171 -2.9207 -0.4288
   84SAPS     N 7880   0.456   4.659  11.138  0.1230  0.7761  0.0253
   84SAPS   HN1 7881   0.369   4.671  11.083  0.4978  1.0169 -0.5226
   84SAPS   HN2 7882   0.463   4.563  11.176  0.0158  0.2605 -1.2323
   84SAPS   HN3 7883   0.462   4.723  11.220  0.5032 -2.3200  2.5805
   84SAPS   C12 7884   0.567   4.684  11.047  0.8358  0.2450  0.0074
   84SAPS  H12A 7885   0.547   4.772  10.988 -0.7409 -0.6805 -0.9148
   84SAPS   C13 7886   0.699   4.708  11.125 -0.4754 -1.0105 -0.0364
   84SAPS  O13A 7887   0.697   4.734  11.245  0.9375 -0.7720 -0.1186
   84SAPS  O13B 7888   0.788   4.766  11.049 -0.2230 -0.4538 -0.6112
   84SAPS   C11 7889   0.601   4.568  10.939 -1.3671  0.2310  0.0309
   84SAPS  H11A 7890   0.695   4.591  10.884 -2.2516 -0.5214 -1.8830
   84SAPS  H11B 7891   0.524   4.569  10.858  0.1159 -2.2727 -1.5308
   84SAPS     P 7892   0.500   4.326  10.970  0.1701 -0.4757  0.1179
   84SAPS   O13 7893   0.531   4.209  11.050  0.2059  0.5366 -0.2524
   84SAPS   O14 7894   0.358   4.367  10.970 -0.2005 -0.1095 -0.3721
   84SAPS   O12 7895   0.608   4.439  11.007 -0.2810 -0.4741 -0.2835
   84SAPS   O11 7896   0.538   4.291  10.821 -1.1788 -0.3918  0.7696
   84SAPS    C1 7897   0.661   4.220  10.793 -0.0449 -0.5337 -0.6362
   84SAPS    HA 7898   0.746   4.265  10.848 -0.7123  0.0146 -0.0274
   84SAPS    HB 7899   0.644   4.111  10.811 -0.5676 -0.1476  1.5091
   84SAPS    C2 7900   0.697   4.240  10.642  0.6909 -0.2564 -0.5910
   84SAPS    HS 7901   0.707   4.351  10.640 -4.2150  0.5203  2.2266
   84SAPS   O21 7902   0.593   4.207  10.554  0.2552  0.0926  0.3718
   84SAPS   C21 7903   0.581   4.297  10.454  0.4916  0.2434  0.5352
   84SAPS   O22 7904   0.653   4.395  10.434  0.0781  0.3482  0.4234
   84SAPS   C22 7905   0.461   4.250  10.364 -0.4190  0.4211 -0.1354
   84SAPS   H2R 7906   0.368   4.223  10.419 -1.1999  3.2706  0.1323
   84SAPS   H2S 7907   0.419   4.336  10.307 -2.2294 -0.9855 -1.0222
   84SAPS    C3 7908   0.815   4.158  10.600  0.1498  0.1853 -0.4954
   84SAPS    HX 7909   0.780   4.053  10.601  1.5697 -0.3450  2.4754
   84SAPS    HY 7910   0.891   4.161  10.680 -2.0212 -0.6922  1.7106
   84SAPS   O31 7911   0.859   4.179  10.463  0.6311 -0.3479 -0.3302
   84SAPS   C31 7912   0.943   4.279  10.455 -0.8571  0.9057 -0.2235
   84SAPS   O32 7913   0.977   4.351  10.546  0.4208  0.1996 -0.5257
   84SAPS   C32 7914   1.010   4.274  10.318  0.3202 -0.8450 -0.1483
   84SAPS   H2X 7915   1.038   4.170  10.290 -0.4546 -0.5927 -2.0570
   84SAPS   H2Y 7916   1.106   4.327  10.333 -1.1428  1.4166  1.9663
   84SAPS   C23 7917   0.491   4.141  10.257 -0.2578 -0.1113 -0.0433
   84SAPS   H3R 7918   0.523   4.051  10.313  0.1095  0.2589  0.3578
   84SAPS   H3S 7919   0.573   4.178  10.191 -0.7748 -0.3410 -0.8333
   84SAPS   C24 7920   0.363   4.114  10.182 -0.3978  0.1640  0.1694
   84SAPS   H4R 7921   0.324   4.209  10.138  0.7405 -0.0193 -1.3360
   84SAPS   H4S 7922   0.291   4.073  10.256  0.2370  0.5452  1.0001
   84SAPS   C25 7923   0.397   4.007  10.071  0.4166  0.3698 -0.6715
   84SAPS   H5R 7924   0.404   3.901  10.098 -2.5528  0.0850 -0.6369
   84SAPS   C26 7925   0.399   4.034   9.934 -0.6051  0.0141 -0.5531
   84SAPS   H6R 7926   0.414   3.954   9.861  0.0563 -0.9642  0.6121
   84SAPS   C27 7927   0.392   4.172   9.866  0.1911  0.3992 -0.7728
   84SAPS   H7R 7928   0.405   4.258   9.936 -2.3756 -0.3391  0.7381
   84SAPS   H7S 7929   0.287   4.181   9.830 -1.3064 -0.1423  3.0687
   84SAPS   C28 7930   0.489   4.185   9.750  0.0533 -0.1862  0.3147
   84SAPS   H8R 7931   0.583   4.239   9.766 -1.3078  1.8856  1.8850
   84SAPS   C29 7932   0.461   4.155   9.622 -0.7773  0.0507 -0.9039
   84SAPS   H9R 7933   0.547   4.181   9.558 -0.3855  0.8429 -0.0834
   84SAPS  C210 7934   0.330   4.102   9.565  0.2037 -0.2910  0.6221
   84SAPS  H10R 7935   0.282   4.174   9.496  1.0128 -0.7677 -0.4597
   84SAPS  H10S 7936   0.259   4.074   9.646 -0.5273 -1.3443 -0.3525
   84SAPS  C211 7937   0.350   3.977   9.488 -0.2741  0.2755 -0.0657
   84SAPS  H11R 7938   0.441   3.915   9.499 -1.1568 -1.0650 -0.0662
   84SAPS  C212 7939   0.266   3.920   9.401  0.9697 -0.7414 -0.1461
   84SAPS  H12R 7940   0.294   3.820   9.364  3.6959 -0.9335  2.0865
   84SAPS  C213 7941   0.130   3.967   9.363 -0.6825  0.7510  0.1059
   84SAPS  H13R 7942   0.084   4.015   9.452  0.7172  1.5030  0.4500
   84SAPS  H13S 7943   0.076   3.874   9.335  0.3296  0.3655 -0.6635
   84SAPS  C214 7944   0.140   4.067   9.249  0.5933 -0.9273 -0.4189
   84SAPS  H14R 7945   0.152   4.175   9.267  1.3062 -0.9327 -0.8170
   84SAPS  C215 7946   0.135   4.041   9.114 -0.1729 -0.1220  0.7271
   84SAPS  H15R 7947   0.147   4.129   9.049  1.9177 -2.2851 -2.0419
   84SAPS  C216 7948   0.113   3.903   9.045  0.2944 -0.6143  0.6883
   84SAPS  H16R 7949   0.026   3.911   8.977  0.0286  2.9291  1.2062
   84SAPS  H16S 7950   0.092   3.817   9.111 -2.3190  0.0045  0.7488
   84SAPS  C217 7951   0.242   3.863   8.975 -0.0501  0.5884  0.2412
   84SAPS  H17R 7952   0.314   3.838   9.056  0.9578 -1.8055 -1.2936
   84SAPS  H17S 7953   0.283   3.944   8.911 -0.0367  0.1698 -0.2886
   84SAPS  C218 7954   0.211   3.746   8.884  0.1325 -0.2442 -0.3331
   84SAPS  H18R 7955   0.114   3.763   8.832  0.0076 -1.5915 -0.5720
   84SAPS  H18S 7956   0.201   3.653   8.944  0.4929 -1.2784 -1.8295
   84SAPS  C219 7957   0.312   3.731   8.768  0.9126 -0.2333  0.5119
   84SAPS  H19R 7958   0.415   3.723   8.807  1.1072 -2.3087 -0.3079
   84SAPS  H19S 7959   0.311   3.824   8.707  1.1399 -0.4507  0.1819
   84SAPS  C220 7960   0.302   3.617   8.665  0.3925 -0.1618 -0.1389
   84SAPS  H20R 7961   0.215   3.633   8.597  1.3802  2.9513 -0.8427
   84SAPS  H20S 7962   0.291   3.521   8.719 -2.4498  0.4232  0.4749
   84SAPS  H20T 7963   0.397   3.615   8.606  0.9113 -3.7455  0.6128
   84SAPS   C33 7964   0.918   4.354  10.217 -0.6485 -0.0783  0.1480
   84SAPS   H3X 7965   0.909   4.462  10.243  0.4061  0.1198 -0.2500
   84SAPS   H3Y 7966   0.818   4.305  10.219 -0.7600  0.1530  0.2721
   84SAPS   C34 7967   0.966   4.334  10.075 -0.2049  0.0269  0.3751
   84SAPS   H4X 7968   0.986   4.226  10.058  1.1955  0.2115  0.7272
   84SAPS   H4Y 7969   1.064   4.385  10.069  0.1696 -0.1150  3.5842
   84SAPS   C35 7970   0.865   4.381   9.969 -0.4974 -0.8214  0.2364
   84SAPS   H5X 7971   0.864   4.492   9.975  3.1443 -0.5305 -1.6815
   84SAPS   H5Y 7972   0.767   4.335   9.993 -0.0617 -0.6676  2.6143
   84SAPS   C36 7973   0.895   4.368   9.817 -0.0202 -0.3034 -0.6697
   84SAPS   H6X 7974   0.899   4.260   9.792  2.2122 -0.2326 -0.8022
   84SAPS   H6Y 7975   0.996   4.405   9.791  0.1764  1.1816  1.8227
   84SAPS   C37 7976   0.802   4.447   9.724  0.2644 -0.2084 -0.2260
   84SAPS   H7X 7977   0.823   4.555   9.738  1.9347 -0.5299 -0.1004
   84SAPS   H7Y 7978   0.698   4.414   9.743 -0.2148  1.6867  0.6467
   84SAPS   C38 7979   0.823   4.426   9.574 -0.2061  0.2354 -0.5937
   84SAPS   H8X 7980   0.759   4.483   9.503 -0.9983 -1.7908 -1.5689
   84SAPS   H8Y 7981   0.801   4.320   9.550  1.1525 -0.8172  2.3010
   84SAPS   C39 7982   0.970   4.453   9.524  0.0271 -0.5756  0.9267
   84SAPS   H9X 7983   1.036   4.366   9.547  0.6855 -0.2598  0.2451
   84SAPS   H9Y 7984   0.997   4.542   9.584 -2.2753  0.2494  0.8226
   84SAPS  C310 7985   0.994   4.486   9.377  0.0593 -0.6292  0.3777
   84SAPS  H10X 7986   1.101   4.510   9.363 -0.0461  0.1071  0.8028
   84SAPS  H10Y 7987   0.939   4.574   9.338 -0.7330 -1.1588  0.2866
   84SAPS  C311 7988   0.949   4.366   9.284  1.0104 -0.2354  0.1016
   84SAPS  H11X 7989   0.839   4.364   9.292  1.0045  1.9668  1.4569
   84SAPS  H11Y 7990   0.998   4.273   9.322 -1.5359 -1.6867  0.0687
   84SAPS  C312 7991   1.017   4.395   9.143  0.0361 -0.4298 -0.4271
   84SAPS  H12X 7992   1.113   4.444   9.167  0.0341 -0.3359 -0.6157
   84SAPS  H12Y 7993   0.955   4.463   9.081  0.9724 -0.3982 -1.3388
   84SAPS  C313 7994   1.024   4.257   9.075 -0.0112  0.4119 -0.0733
   84SAPS  H13X 7995   0.943   4.190   9.109  0.2564 -0.3702 -0.9342
   84SAPS  H13Y 7996   1.124   4.212   9.095  0.2865 -0.3734 -2.8020
   84SAPS  C314 7997   1.015   4.273   8.918 -0.2138 -0.4767 -0.8046
   84SAPS  H14X 7998   0.918   4.315   8.882  0.2257  0.8043 -0.5297
   84SAPS  H14Y 7999   1.040   4.178   8.866  0.8744 -1.2443  1.0311
   84SAPS  C315 8000   1.123   4.362   8.847  0.2343  0.8432 -0.6389
   84SAPS  H15X 8001   1.223   4.332   8.886 -0.9281 -2.1003  0.3728
   84SAPS  H15Y 8002   1.097   4.467   8.874 -2.0679  0.0177  0.5626
   84SAPS  C316 8003   1.115   4.335   8.700  0.6260 -0.0755  0.3321
   84SAPS  H16X 8004   1.009   4.344   8.668  0.8204  0.0866 -0.2937
   84SAPS  H16Y 8005   1.152   4.230   8.695  1.1933  0.1485 -0.3975
   84SAPS  C317 8006   1.207   4.423   8.609  0.3915 -0.8146 -0.8697
   84SAPS  H17X 8007   1.315   4.399   8.616  0.9506  1.3090 -1.3427
   84SAPS  H17Y 8008   1.191   4.530   8.634  2.2987  0.0626 -3.0301
   84SAPS  C318 8009   1.170   4.414   8.465  0.3200 -0.3565  0.1888
   84SAPS  H18X 8010   1.194   4.506   8.408 -0.8426 -0.3924 -0.4025
   84SAPS  H18Y 8011   1.061   4.394   8.456  0.0878  1.5175 -1.9842
   84SAPS  H18Z 8012   1.215   4.321   8.423 -0.3276 -1.3262  1.5455
   85SAPS     N 8013   3.634   5.603  11.137 -0.2123  0.2760  0.3628
   85SAPS   HN1 8014   3.564   5.652  11.197 -2.0462  0.4384 -1.8076
   85SAPS   HN2 8015   3.586   5.595  11.046 -2.0316  0.3347  1.2781
   85SAPS   HN3 8016   3.650   5.510  11.182 -0.3809  0.4317  0.7502
   85SAPS   C12 8017   3.765   5.678  11.124 -0.2608 -0.0060 -0.0042
   85SAPS  H12A 8018   3.750   5.769  11.068 -1.2948  0.9691  1.7486
   85SAPS   C13 8019   3.839   5.737  11.246  0.0928  0.9651  0.2117
   85SAPS  O13A 8020   3.793   5.705  11.360 -0.2843  0.2352 -0.0384
   85SAPS  O13B 8021   3.930   5.823  11.232  0.5295 -0.2665 -0.1172
   85SAPS   C11 8022   3.865   5.579  11.044 -0.1770  0.0655 -0.1937
   85SAPS  H11A 8023   3.885   5.490  11.106 -0.8641  0.1633  0.1836
   85SAPS  H11B 8024   3.952   5.644  11.022 -0.7991  1.6444  1.7054
   85SAPS     P 8025   3.867   5.540  10.783 -0.3301  0.5908  0.1392
   85SAPS   O13 8026   3.798   5.430  10.701  0.2476  0.2274 -0.0999
   85SAPS   O14 8027   3.859   5.681  10.731  0.1096 -0.0250 -0.0884
   85SAPS   O12 8028   3.801   5.529  10.926 -0.5781 -0.7150  0.4428
   85SAPS   O11 8029   4.021   5.507  10.811  0.5016 -0.0758  0.1072
   85SAPS    C1 8030   4.139   5.589  10.797  0.2751  0.2399  0.1593
   85SAPS    HA 8031   4.117   5.695  10.774 -3.3992 -0.3424  0.3321
   85SAPS    HB 8032   4.203   5.579  10.888  0.9521 -0.4765 -0.3830
   85SAPS    C2 8033   4.221   5.550  10.670 -0.4170 -0.4348  0.1714
   85SAPS    HS 8034   4.313   5.613  10.677 -0.2511 -0.8637  2.8469
   85SAPS   O21 8035   4.143   5.585  10.550 -0.1458 -0.1075 -0.4631
   85SAPS   C21 8036   4.168   5.709  10.503  0.5466  0.0996 -0.6397
   85SAPS   O22 8037   4.258   5.780  10.548  0.4896 -0.2266  0.3947
   85SAPS   C22 8038   4.057   5.752  10.413 -0.3895 -0.0722 -0.2613
   85SAPS   H2R 8039   4.083   5.719  10.310  1.5466 -2.8180  0.9590
   85SAPS   H2S 8040   3.960   5.703  10.437  0.2247 -0.8274  0.8206
   85SAPS    C3 8041   4.271   5.403  10.660 -0.2730 -0.6488  0.2937
   85SAPS    HX 8042   4.175   5.350  10.642  0.0844 -0.8543 -1.1622
   85SAPS    HY 8043   4.324   5.369  10.751 -2.2308 -0.2567  1.6563
   85SAPS   O31 8044   4.349   5.385  10.534  0.0468  0.8314  0.2900
   85SAPS   C31 8045   4.474   5.428  10.546 -0.1798  0.4748 -0.2969
   85SAPS   O32 8046   4.523   5.483  10.640  0.0929  0.0928 -0.2563
   85SAPS   C32 8047   4.544   5.401  10.414 -0.3406  0.7790 -0.0789
   85SAPS   H2X 8048   4.480   5.344  10.344  0.3574 -0.7474  0.4927
   85SAPS   H2Y 8049   4.629   5.333  10.436  0.2509  1.1121 -1.2277
   85SAPS   C23 8050   4.035   5.904  10.427  0.5296 -0.9472 -0.0380
   85SAPS   H3R 8051   4.063   5.949  10.525 -0.4549 -3.4188  1.4755
   85SAPS   H3S 8052   3.924   5.913  10.415  0.6111 -2.0354 -2.0927
   85SAPS   C24 8053   4.085   5.983  10.306  0.0977  0.1523 -0.1476
   85SAPS   H4R 8054   4.041   6.084  10.315  0.0578  0.1245 -0.0316
   85SAPS   H4S 8055   4.045   5.940  10.212  0.5561 -2.5562  0.7969
   85SAPS   C25 8056   4.237   5.986  10.299 -0.2496  0.1778 -0.1453
   85SAPS   H5R 8057   4.293   5.956  10.389  0.8634 -1.3059 -1.2658
   85SAPS   C26 8058   4.307   6.011  10.192  0.1063  0.4656 -0.0486
   85SAPS   H6R 8059   4.416   6.001  10.198  0.0484 -0.3433 -0.2751
   85SAPS   C27 8060   4.252   6.049  10.060  0.0726 -0.0655  0.2778
   85SAPS   H7R 8061   4.313   6.131  10.016  1.7428 -1.6546 -0.5174
   85SAPS   H7S 8062   4.152   6.093  10.080  0.0714 -0.6015  1.5031
   85SAPS   C28 8063   4.234   5.943   9.956  0.0963  0.3723 -0.1044
   85SAPS   H8R 8064   4.225   5.839   9.988 -0.3075 -0.0164 -1.4060
   85SAPS   C29 8065   4.221   5.964   9.825 -0.3162  0.5240  0.5303
   85SAPS   H9R 8066   4.214   5.870   9.769  4.9728  0.3558 -0.3701
   85SAPS  C210 8067   4.208   6.099   9.758 -0.8877  0.5396 -0.6490
   85SAPS  H10R 8068   4.175   6.163   9.843 -1.5030  1.2773 -1.4361
   85SAPS  H10S 8069   4.129   6.107   9.681 -0.0522  0.5225 -1.5235
   85SAPS  C211 8070   4.331   6.147   9.691  0.0021 -0.4510  0.0090
   85SAPS  H11R 8071   4.428   6.111   9.728  0.4240  1.7757  1.2170
   85SAPS  C212 8072   4.337   6.252   9.601 -0.0122 -1.1619  0.1868
   85SAPS  H12R 8073   4.436   6.296   9.579 -1.4630  1.1645 -2.2081
   85SAPS  C213 8074   4.230   6.326   9.531 -0.4052  0.0770 -0.0699
   85SAPS  H13R 8075   4.259   6.434   9.525 -0.0281  0.2497  3.1423
   85SAPS  H13S 8076   4.134   6.314   9.586 -1.1697 -0.0146 -1.3770
   85SAPS  C214 8077   4.219   6.264   9.395 -0.6717 -0.2443  0.0287
   85SAPS  H14R 8078   4.193   6.157   9.404  0.0321 -0.3100  1.5872
   85SAPS  C215 8079   4.221   6.326   9.280 -0.4046 -0.6303 -0.0119
   85SAPS  H15R 8080   4.207   6.269   9.187  0.4961  1.6253 -1.6373
   85SAPS  C216 8081   4.249   6.478   9.273  0.7900  0.0794  0.4825
   85SAPS  H16R 8082   4.208   6.535   9.358 -0.3039  1.2008 -0.7459
   85SAPS  H16S 8083   4.185   6.504   9.186 -0.4699  2.0909  1.9425
   85SAPS  C217 8084   4.394   6.520   9.243 -0.1676 -0.6082  0.3621
   85SAPS  H17R 8085   4.402   6.600   9.166  2.0330  0.2690  1.4099
   85SAPS  H17S 8086   4.454   6.432   9.211 -0.9667 -1.0496  0.0656
   85SAPS  C218 8087   4.469   6.570   9.362  0.1114  0.7683 -0.0948
   85SAPS  H18R 8088   4.456   6.495   9.443  1.8894  3.0680  2.4827
   85SAPS  H18S 8089   4.413   6.662   9.391 -2.1355 -0.1253 -1.3144
   85SAPS  C219 8090   4.617   6.595   9.332 -0.3485 -0.3094 -0.4381
   85SAPS  H19R 8091   4.667   6.501   9.304 -1.0702 -0.5311 -0.9988
   85SAPS  H19S 8092   4.659   6.647   9.422 -1.1734  0.2471 -0.3634
   85SAPS  C220 8093   4.640   6.705   9.224  0.8990  0.3417 -0.9672
   85SAPS  H20R 8094   4.589   6.800   9.247 -0.2787 -0.6027  0.4847
   85SAPS  H20S 8095   4.605   6.669   9.125  0.9859  2.0322 -1.6500
   85SAPS  H20T 8096   4.749   6.722   9.211  1.2349 -0.3895  0.6768
   85SAPS   C33 8097   4.589   5.536  10.352 -0.0021  0.7039  0.2977
   85SAPS   H3X 8098   4.655   5.518  10.265  2.6113 -0.3924  2.3588
   85SAPS   H3Y 8099   4.650   5.591  10.427 -2.0089  1.3697  1.5393
   85SAPS   C34 8100   4.485   5.641  10.311  0.0026 -0.1281  0.5054
   85SAPS   H4X 8101   4.539   5.736  10.287  0.2330 -0.5237 -0.6091
   85SAPS   H4Y 8102   4.415   5.665  10.394 -2.5522  2.1204 -2.0509
   85SAPS   C35 8103   4.401   5.610  10.187  0.4496  0.1449  0.4518
   85SAPS   H5X 8104   4.316   5.681  10.185  0.8593  0.7365  2.0653
   85SAPS   H5Y 8105   4.375   5.502  10.183  1.3030 -0.0478 -0.2207
   85SAPS   C36 8106   4.464   5.656  10.050  0.4801  0.0994 -0.3311
   85SAPS   H6X 8107   4.573   5.636  10.059  0.1469 -1.6996 -0.0466
   85SAPS   H6Y 8108   4.457   5.767  10.037 -0.2952  0.2514  1.2403
   85SAPS   C37 8109   4.399   5.574   9.936  0.3845 -0.2134 -0.3896
   85SAPS   H7X 8110   4.293   5.606   9.937  0.1109 -0.7671 -3.1887
   85SAPS   H7Y 8111   4.409   5.464   9.943 -1.4086 -0.3016  1.6113
   85SAPS   C38 8112   4.449   5.637   9.803 -0.2218 -0.0708  0.0804
   85SAPS   H8X 8113   4.555   5.606   9.795  0.9023  2.5355  2.9424
   85SAPS   H8Y 8114   4.447   5.748   9.802 -0.5351 -0.0791 -0.9343
   85SAPS   C39 8115   4.362   5.607   9.685  0.4056  0.1716 -0.8565
   85SAPS   H9X 8116   4.264   5.654   9.707  0.9977  2.2577 -2.3447
   85SAPS   H9Y 8117   4.340   5.498   9.691 -2.2651  0.7317  1.4973
   85SAPS  C310 8118   4.418   5.642   9.554 -0.2896 -0.5368 -0.0807
   85SAPS  H10X 8119   4.354   5.599   9.474  0.9293  0.3196 -1.5983
   85SAPS  H10Y 8120   4.519   5.601   9.531 -0.1402  0.7429 -1.9643
   85SAPS  C311 8121   4.413   5.794   9.532  0.0605  0.2364  1.0050
   85SAPS  H11X 8122   4.467   5.850   9.611 -0.7350  1.8733  0.4216
   85SAPS  H11Y 8123   4.307   5.827   9.537 -0.0309  0.5900 -1.8266
   85SAPS  C312 8124   4.474   5.824   9.397 -0.1915 -0.2341  0.0064
   85SAPS  H12X 8125   4.456   5.737   9.330 -0.7233  0.9362 -1.4312
   85SAPS  H12Y 8126   4.582   5.836   9.417 -0.2674 -0.1786  0.3929
   85SAPS  C313 8127   4.431   5.953   9.333  0.4862  0.5693  1.0279
   85SAPS  H13X 8128   4.459   6.034   9.404  0.8680 -0.1048  1.6659
   85SAPS  H13Y 8129   4.322   5.959   9.310  0.7554  1.0442 -0.1918
   85SAPS  C314 8130   4.495   5.979   9.194 -0.4539  0.4838  0.0909
   85SAPS  H14X 8131   4.447   5.914   9.118 -1.0058  2.2715 -1.1596
   85SAPS  H14Y 8132   4.594   5.932   9.210  0.0729  1.0484 -1.3484
   85SAPS  C315 8133   4.518   6.123   9.151  0.6406 -0.3959 -0.0716
   85SAPS  H15X 8134   4.558   6.179   9.238  1.1573  0.0039 -0.5509
   85SAPS  H15Y 8135   4.419   6.166   9.126  0.8239 -0.1062 -0.3112
   85SAPS  C316 8136   4.605   6.135   9.025 -0.7366 -0.4262  0.8570
   85SAPS  H16X 8137   4.550   6.107   8.933  2.2843 -1.4687 -0.7887
   85SAPS  H16Y 8138   4.690   6.064   9.031  0.1803  0.3199 -1.8201
   85SAPS  C317 8139   4.662   6.277   9.007  0.3028 -0.0482  0.1043
   85SAPS  H17X 8140   4.730   6.308   9.090  1.9520  1.1884 -1.6125
   85SAPS  H17Y 8141   4.569   6.338   9.009 -0.1262 -0.6958  0.0221
   85SAPS  C318 8142   4.730   6.295   8.867  0.5085  0.8674 -0.2569
   85SAPS  H18X 8143   4.766   6.400   8.868 -1.2516  1.5176  0.6808
   85SAPS  H18Y 8144   4.658   6.270   8.786  1.9751 -0.4024 -1.1995
   85SAPS  H18Z 8145   4.810   6.221   8.849 -0.7797 -0.8207  0.6003
   86SAPS     N 8146   1.292   0.674  11.015  0.0443 -0.7019 -0.3037
   86SAPS   HN1 8147   1.220   0.747  11.035  0.9665  0.8119 -2.2074
   86SAPS   HN2 8148   1.372   0.687  11.080  0.3918 -1.7334 -0.5065
   86SAPS   HN3 8149   1.316   0.682  10.915  0.6042 -1.7526 -0.2626
   86SAPS   C12 8150   1.223   0.548  11.043  0.8286  0.3293 -0.3169
   86SAPS  H12A 8151   1.294   0.472  11.074  0.6269  0.3361  0.1574
   86SAPS   C13 8152   1.116   0.559  11.150  0.8197  0.2058 -0.6187
   86SAPS  O13A 8153   1.099   0.668  11.211 -0.0439 -0.1455  0.4610
   86SAPS  O13B 8154   1.069   0.449  11.188  0.1009 -0.2191 -0.5768
   86SAPS   C11 8155   1.156   0.495  10.907  0.0541  0.0325 -0.1490
   86SAPS  H11A 8156   1.104   0.397  10.918 -1.4279  0.8434  0.3030
   86SAPS  H11B 8157   1.238   0.465  10.837 -0.3773 -0.9781 -0.2453
   86SAPS     P 8158   1.091   0.702  10.754  0.1472  0.0574  0.1075
   86SAPS   O13 8159   0.995   0.814  10.784  0.1513  0.0149 -0.6067
   86SAPS   O14 8160   1.230   0.753  10.773 -0.4724 -0.0587  0.7957
   86SAPS   O12 8161   1.067   0.577  10.846 -0.2459 -0.2914 -0.4289
   86SAPS   O11 8162   1.057   0.652  10.611  0.0848  0.5597 -0.3256
   86SAPS    C1 8163   0.944   0.564  10.583 -0.6460  0.1411  0.5762
   86SAPS    HA 8164   0.978   0.499  10.499  0.4893 -0.3696  1.4101
   86SAPS    HB 8165   0.909   0.495  10.663 -0.6258 -0.2585  0.2457
   86SAPS    C2 8166   0.825   0.653  10.544  0.6030 -0.1479 -0.2134
   86SAPS    HS 8167   0.792   0.710  10.634  0.1804  1.3347 -1.2564
   86SAPS   O21 8168   0.727   0.564  10.484 -0.3925  0.4854  0.0704
   86SAPS   C21 8169   0.611   0.623  10.467 -0.1448  0.2602  0.0081
   86SAPS   O22 8170   0.576   0.721  10.527  0.2915 -0.3912  0.0184
   86SAPS   C22 8171   0.529   0.557  10.362 -0.0257 -0.7237  0.0220
   86SAPS   H2R 8172   0.441   0.518  10.418 -0.5790 -0.4138 -0.6115
   86SAPS   H2S 8173   0.490   0.641  10.300 -0.3866 -0.3965  0.6835
   86SAPS    C3 8174   0.862   0.775  10.449  0.7380  0.1846  0.2936
   86SAPS    HX 8175   0.917   0.843  10.518  0.1920  0.5476  0.3750
   86SAPS    HY 8176   0.769   0.832  10.429 -0.5147 -2.2179 -1.1674
   86SAPS   O31 8177   0.936   0.739  10.327 -0.2451  0.4594 -0.0347
   86SAPS   C31 8178   1.023   0.834  10.287  0.1926 -0.1328  0.3506
   86SAPS   O32 8179   1.049   0.940  10.340  0.2425  0.0259  0.0378
   86SAPS   C32 8180   1.095   0.791  10.161 -0.5263  0.0935 -0.2895
   86SAPS   H2X 8181   1.022   0.780  10.078  0.3385 -2.4410 -0.7927
   86SAPS   H2Y 8182   1.139   0.690  10.180 -0.6864 -0.0193 -0.5161
   86SAPS   C23 8183   0.593   0.454  10.275 -0.1773 -0.0240 -0.6624
   86SAPS   H3R 8184   0.634   0.371  10.337  1.5273  0.5285 -0.9965
   86SAPS   H3S 8185   0.672   0.492  10.206  2.0784 -1.8723  0.7456
   86SAPS   C24 8186   0.495   0.376  10.178  0.3730  0.0568  0.6944
   86SAPS   H4R 8187   0.415   0.339  10.246  0.1595 -1.7700 -0.4884
   86SAPS   H4S 8188   0.557   0.291  10.140 -0.3159 -0.3194  0.3851
   86SAPS   C25 8189   0.446   0.473  10.073 -0.3831  0.1054 -0.3934
   86SAPS   H5R 8190   0.408   0.572  10.101  1.3521  0.5426  0.6087
   86SAPS   C26 8191   0.455   0.463   9.937 -0.7667  0.7348 -0.3602
   86SAPS   H6R 8192   0.426   0.547   9.874 -1.7127 -0.8007 -2.0742
   86SAPS   C27 8193   0.496   0.341   9.853 -0.6870 -0.2462 -0.2243
   86SAPS   H7R 8194   0.410   0.324   9.785 -0.8682 -0.7227  0.1208
   86SAPS   H7S 8195   0.513   0.253   9.918  1.7905  0.7759  0.6478
   86SAPS   C28 8196   0.625   0.365   9.766  0.2253  0.4776  0.2561
   86SAPS   H8R 8197   0.719   0.319   9.799 -0.0915 -0.4487 -0.0927
   86SAPS   C29 8198   0.629   0.435   9.647 -0.0117  0.2702 -0.4228
   86SAPS   H9R 8199   0.723   0.435   9.591  1.5591  0.0575  2.0505
   86SAPS  C210 8200   0.511   0.498   9.581 -0.4451  0.2454  0.3598
   86SAPS  H10R 8201   0.537   0.597   9.539  0.7039 -1.5825 -3.6959
   86SAPS  H10S 8202   0.435   0.523   9.659 -0.8770 -1.3203  0.4660
   86SAPS  C211 8203   0.442   0.398   9.484 -0.0962  0.1827  0.0729
   86SAPS  H11R 8204   0.363   0.332   9.521 -0.3961 -0.0494 -0.9507
   86SAPS  C212 8205   0.467   0.399   9.354 -0.4434  0.1013 -0.0587
   86SAPS  H12R 8206   0.408   0.337   9.285  0.8126  0.2147 -1.2822
   86SAPS  C213 8207   0.558   0.485   9.278 -0.4099 -0.0435  0.7269
   86SAPS  H13R 8208   0.629   0.537   9.346  2.7821  0.1456 -2.4582
   86SAPS  H13S 8209   0.495   0.569   9.241 -0.6420 -0.4609  0.1615
   86SAPS  C214 8210   0.630   0.403   9.170 -0.4252 -0.0944 -0.5288
   86SAPS  H14R 8211   0.681   0.311   9.205 -0.5738 -0.5799 -1.5336
   86SAPS  C215 8212   0.653   0.441   9.046 -0.3828 -0.3303 -0.1988
   86SAPS  H15R 8213   0.719   0.382   8.979 -0.6576 -1.5160  0.5400
   86SAPS  C216 8214   0.615   0.569   8.976 -0.0027  0.1686 -0.6777
   86SAPS  H16R 8215   0.702   0.610   8.919 -0.3582  0.3238 -1.1197
   86SAPS  H16S 8216   0.598   0.649   9.052  1.5162  0.0614 -0.1924
   86SAPS  C217 8217   0.487   0.568   8.891  0.2513 -0.2754  1.6267
   86SAPS  H17R 8218   0.502   0.501   8.804 -1.8658 -0.1734  1.1333
   86SAPS  H17S 8219   0.472   0.673   8.859  3.5460 -0.0725  0.3297
   86SAPS  C218 8220   0.352   0.549   8.956  0.6223 -0.6038 -0.2762
   86SAPS  H18R 8221   0.336   0.614   9.045 -0.7537  0.3936 -1.2105
   86SAPS  H18S 8222   0.336   0.443   8.986 -1.7900  0.3151  2.0394
   86SAPS  C219 8223   0.227   0.571   8.865 -0.0329  1.0182  0.2987
   86SAPS  H19R 8224   0.227   0.647   8.784 -0.1591  0.4277 -0.2634
   86SAPS  H19S 8225   0.140   0.605   8.925 -2.5785 -0.1170 -2.4531
   86SAPS  C220 8226   0.183   0.439   8.802 -0.5304  0.4994  0.0602
   86SAPS  H20R 8227   0.157   0.366   8.881 -1.5027  0.0908 -0.6201
   86SAPS  H20S 8228   0.273   0.398   8.752  0.4337  0.6430  1.6116
   86SAPS  H20T 8229   0.104   0.449   8.724  0.2445  1.8273 -0.5827
   86SAPS   C33 8230   1.201   0.897  10.113 -0.0689  0.4733  0.2628
   86SAPS   H3X 8231   1.285   0.894  10.185  1.6782 -1.4251 -1.7316
   86SAPS   H3Y 8232   1.163   1.001  10.106 -1.5560 -0.1196 -1.1657
   86SAPS   C34 8233   1.248   0.862   9.973 -0.0341  0.1893 -0.6166
   86SAPS   H4X 8234   1.245   0.754   9.946  1.5214 -0.5297  1.7976
   86SAPS   H4Y 8235   1.355   0.892   9.971  0.1020 -0.1322  0.7222
   86SAPS   C35 8236   1.182   0.955   9.873  0.0182  0.7332  0.3110
   86SAPS   H5X 8237   1.226   1.056   9.880 -0.3252  0.8658  0.5856
   86SAPS   H5Y 8238   1.073   0.968   9.889  0.4507  2.9142  1.8136
   86SAPS   C36 8239   1.210   0.911   9.723  0.0816  0.4116  0.6667
   86SAPS   H6X 8240   1.167   0.810   9.707 -1.0895  0.8432  1.0290
   86SAPS   H6Y 8241   1.319   0.896   9.703  1.1612  0.6149  5.2502
   86SAPS   C37 8242   1.151   1.007   9.614  0.4918 -0.3065  0.4381
   86SAPS   H7X 8243   1.166   1.114   9.640  0.0064 -0.2935  0.6617
   86SAPS   H7Y 8244   1.042   0.993   9.601  0.3465  0.9587  0.1659
   86SAPS   C38 8245   1.214   0.965   9.481  0.5865  0.1766  0.1486
   86SAPS   H8X 8246   1.194   0.856   9.471 -2.2790  0.5490  0.7687
   86SAPS   H8Y 8247   1.323   0.984   9.469  0.3321  1.5762 -0.1080
   86SAPS   C39 8248   1.156   1.017   9.353  0.0312 -0.1670  0.2682
   86SAPS   H9X 8249   1.176   1.125   9.336 -0.2503 -0.0818  0.4615
   86SAPS   H9Y 8250   1.045   1.020   9.352  0.0047  0.0422 -2.4233
   86SAPS  C310 8251   1.212   0.948   9.231 -0.2886  0.0998 -0.0780
   86SAPS  H10X 8252   1.192   0.840   9.248  0.6176 -0.0342  0.2430
   86SAPS  H10Y 8253   1.323   0.957   9.232 -0.0018 -2.1260 -2.1348
   86SAPS  C311 8254   1.146   0.984   9.097  0.3440 -0.6929 -0.5356
   86SAPS  H11X 8255   1.036   0.981   9.113  0.4619  0.8894  0.8572
   86SAPS  H11Y 8256   1.174   0.904   9.026  2.4558  0.5024 -1.1344
   86SAPS  C312 8257   1.199   1.119   9.042 -0.3068  0.1434  0.0434
   86SAPS  H12X 8258   1.308   1.110   9.026  0.0889 -1.8781  3.0792
   86SAPS  H12Y 8259   1.195   1.193   9.125  3.0071 -0.8506  1.2384
   86SAPS  C313 8260   1.142   1.164   8.905  0.0125 -0.4938  0.6065
   86SAPS  H13X 8261   1.155   1.274   8.894  1.9519 -0.8961 -2.4666
   86SAPS  H13Y 8262   1.034   1.143   8.896  0.3173 -0.9986 -3.8310
   86SAPS  C314 8263   1.237   1.111   8.796  0.4117 -0.1826  0.1850
   86SAPS  H14X 8264   1.241   1.002   8.816 -1.4772 -0.0215  1.8236
   86SAPS  H14Y 8265   1.341   1.148   8.810  0.2498  0.1109  0.6273
   86SAPS  C315 8266   1.182   1.136   8.657 -0.2600  0.7175  0.0000
   86SAPS  H15X 8267   1.188   1.243   8.631  1.8470  0.0336 -2.7981
   86SAPS  H15Y 8268   1.081   1.091   8.655  0.4656 -1.1444  1.2833
   86SAPS  C316 8269   1.251   1.063   8.541  0.1460  0.1118 -0.3382
   86SAPS  H16X 8270   1.358   1.080   8.513  0.0972  2.8637  0.8188
   86SAPS  H16Y 8271   1.205   1.107   8.450 -2.7985 -1.0732  0.4778
   86SAPS  C317 8272   1.212   0.917   8.532  1.2827  0.4941  0.0711
   86SAPS  H17X 8273   1.108   0.908   8.570  1.4608 -0.7025  0.3291
   86SAPS  H17Y 8274   1.278   0.868   8.607 -0.2680 -1.6862  0.1083
   86SAPS  C318 8275   1.237   0.853   8.392  0.1133 -0.3572  0.5718
   86SAPS  H18X 8276   1.195   0.903   8.302  1.0785  0.1790  0.4146
   86SAPS  H18Y 8277   1.196   0.750   8.383 -1.5859  0.4714 -2.7898
   86SAPS  H18Z 8278   1.345   0.832   8.377  0.0042 -1.4598  1.2484
   87SAPS     N 8279   0.879   6.434  11.058 -0.0462  0.1324 -0.6793
   87SAPS   HN1 8280   0.860   6.354  10.994  1.0189 -0.0452 -0.7823
   87SAPS   HN2 8281   0.886   6.407  11.158 -0.7753  0.3237 -0.5722
   87SAPS   HN3 8282   0.803   6.504  11.047 -1.0529 -0.6515  0.8609
   87SAPS   C12 8283   1.007   6.513  11.029 -0.1910  0.0600 -0.7148
   87SAPS  H12A 8284   1.027   6.582  11.110  1.9176 -1.6826  0.3556
   87SAPS   C13 8285   1.133   6.425  11.010  0.3382  0.1231 -0.0381
   87SAPS  O13A 8286   1.114   6.303  11.029 -0.0845 -0.3675 -0.3553
   87SAPS  O13B 8287   1.239   6.472  10.972 -0.6708 -0.4008 -0.1641
   87SAPS   C11 8288   0.967   6.588  10.897  0.1144 -0.4285  0.0048
   87SAPS  H11A 8289   0.974   6.525  10.806 -2.4291 -1.2581  0.2988
   87SAPS  H11B 8290   1.061   6.648  10.895 -0.5344  0.5941 -0.2243
   87SAPS     P 8291   0.803   6.766  10.771 -0.0820 -0.0052 -0.0618
   87SAPS   O13 8292   0.685   6.722  10.692  0.8609 -0.5009  0.3421
   87SAPS   O14 8293   0.789   6.897  10.837  0.1543  0.0817  0.2795
   87SAPS   O12 8294   0.846   6.661  10.886 -0.1837  0.3636 -0.3815
   87SAPS   O11 8295   0.928   6.761  10.675 -0.1575 -0.6999 -0.0709
   87SAPS    C1 8296   1.043   6.847  10.695 -0.1053 -0.0528  0.2501
   87SAPS    HA 8297   1.046   6.882  10.800  0.1211 -0.9593  0.5488
   87SAPS    HB 8298   1.141   6.797  10.689  0.6457  1.4629 -0.9010
   87SAPS    C2 8299   1.043   6.977  10.603  0.0067  0.2549 -0.2247
   87SAPS    HS 8300   0.949   7.034  10.620 -0.4063  0.1362 -1.9201
   87SAPS   O21 8301   1.040   6.919  10.468 -0.1178 -0.3080 -0.1072
   87SAPS   C21 8302   0.940   6.962  10.389 -0.1494 -0.4526 -0.6811
   87SAPS   O22 8303   0.848   7.042  10.419 -0.1383  0.0833 -0.1344
   87SAPS   C22 8304   0.959   6.886  10.255 -0.2477 -0.4441  0.6273
   87SAPS   H2R 8305   1.059   6.902  10.210 -0.0498  0.3582  1.3175
   87SAPS   H2S 8306   0.942   6.780  10.282 -0.0744 -0.2551  1.5217
   87SAPS    C3 8307   1.166   7.058  10.630  0.1862 -0.1931 -0.3602
   87SAPS    HX 8308   1.254   6.992  10.641  1.1363  1.2049  0.8522
   87SAPS    HY 8309   1.158   7.105  10.730 -2.2101 -0.4736 -0.3589
   87SAPS   O31 8310   1.186   7.159  10.527 -0.3553 -0.5484  0.0249
   87SAPS   C31 8311   1.312   7.212  10.520  0.1589  0.3779 -0.6126
   87SAPS   O32 8312   1.398   7.182  10.605 -0.3705 -0.3495 -0.0862
   87SAPS   C32 8313   1.323   7.298  10.392  0.0963 -0.3259  0.4063
   87SAPS   H2X 8314   1.241   7.371  10.379  0.9387  0.5964  0.1488
   87SAPS   H2Y 8315   1.311   7.229  10.306  0.8136 -1.7486  1.3966
   87SAPS   C23 8316   0.855   6.924  10.148 -0.5970 -0.5233  0.8387
   87SAPS   H3R 8317   0.903   6.953  10.053 -0.2857 -1.2944  0.7518
   87SAPS   H3S 8318   0.806   7.023  10.156 -0.6195 -0.2557 -1.9204
   87SAPS   C24 8319   0.764   6.807  10.120  0.3039  0.3649 -0.6859
   87SAPS   H4R 8320   0.820   6.712  10.106 -3.3349 -1.9646 -0.8234
   87SAPS   H4S 8321   0.716   6.835  10.024  1.6519  2.8605 -0.7214
   87SAPS   C25 8322   0.668   6.795  10.236 -0.7348  1.1064  0.7449
   87SAPS   H5R 8323   0.715   6.777  10.334 -0.2753  1.4945  0.6019
   87SAPS   C26 8324   0.532   6.794  10.234  0.0162  0.1659  0.2785
   87SAPS   H6R 8325   0.483   6.767  10.329 -0.0356  2.6830  1.0352
   87SAPS   C27 8326   0.441   6.807  10.117 -0.3588  0.4388  0.1779
   87SAPS   H7R 8327   0.477   6.895  10.059  2.5710  0.2768  1.5811
   87SAPS   H7S 8328   0.342   6.823  10.166  0.5983 -0.6549  2.6374
   87SAPS   C28 8329   0.444   6.687  10.030  0.0898  0.6632  0.4249
   87SAPS   H8R 8330   0.469   6.596  10.085 -2.2516  1.0792  2.3512
   87SAPS   C29 8331   0.411   6.686   9.899  0.2844 -0.3575 -0.3341
   87SAPS   H9R 8332   0.419   6.591   9.843 -2.4089  0.1365 -1.7328
   87SAPS  C210 8333   0.375   6.796   9.806  0.8003 -0.2523 -1.2831
   87SAPS  H10R 8334   0.344   6.889   9.857 -0.6108 -1.8354  0.9144
   87SAPS  H10S 8335   0.283   6.771   9.750 -1.7051  1.8305  1.5715
   87SAPS  C211 8336   0.494   6.833   9.726  0.5117 -0.1665 -0.0774
   87SAPS  H11R 8337   0.586   6.869   9.776 -0.3004  3.1300 -0.6941
   87SAPS  C212 8338   0.496   6.848   9.590 -1.3227 -0.2167 -0.2099
   87SAPS  H12R 8339   0.588   6.883   9.540 -0.5470  3.5143  3.3153
   87SAPS  C213 8340   0.380   6.821   9.502  0.1217  0.1718  0.2596
   87SAPS  H13R 8341   0.353   6.713   9.496  0.6734  0.0750 -0.6004
   87SAPS  H13S 8342   0.418   6.839   9.399  1.1245 -1.0828  0.3878
   87SAPS  C214 8343   0.242   6.880   9.513 -0.0988 -0.3578 -0.1333
   87SAPS  H14R 8344   0.207   6.908   9.614  1.4214  0.6902  0.1497
   87SAPS  C215 8345   0.163   6.921   9.413 -1.1334 -0.0210  0.3396
   87SAPS  H15R 8346   0.062   6.952   9.444 -1.3434 -0.5654  0.2078
   87SAPS  C216 8347   0.191   6.934   9.265 -0.7927  0.6377 -0.4584
   87SAPS  H16R 8348   0.299   6.929   9.242 -0.7517  1.2818 -0.4324
   87SAPS  H16S 8349   0.159   7.036   9.233 -0.0690  1.5441  1.5094
   87SAPS  C217 8350   0.104   6.826   9.197 -0.2931 -0.3464 -0.9956
   87SAPS  H17R 8351   0.075   6.870   9.099  0.8907 -0.8385 -1.5828
   87SAPS  H17S 8352   0.012   6.790   9.249  0.9484 -1.2676  0.6654
   87SAPS  C218 8353   0.187   6.709   9.147  0.0852  0.1589 -0.0296
   87SAPS  H18R 8354   0.198   6.636   9.230 -0.4692 -0.1164 -0.1922
   87SAPS  H18S 8355   0.283   6.733   9.095 -0.8375 -1.0153 -2.4108
   87SAPS  C219 8356   0.110   6.630   9.034  0.6916 -0.3009  0.4407
   87SAPS  H19R 8357  -0.000   6.641   9.046  0.5207 -2.1775  0.8524
   87SAPS  H19S 8358   0.123   6.520   9.049 -2.2608 -0.6435  1.0631
   87SAPS  C220 8359   0.142   6.672   8.889  0.2319  0.3756  0.0839
   87SAPS  H20R 8360   0.252   6.664   8.872  0.1115  0.5520 -0.8721
   87SAPS  H20S 8361   0.098   6.771   8.865  1.8023  1.4515  1.4064
   87SAPS  H20T 8362   0.098   6.598   8.818 -2.4578  0.8825  1.1305
   87SAPS   C33 8363   1.454   7.366  10.372 -0.4068  0.1077  0.8456
   87SAPS   H3X 8364   1.542   7.309  10.407  0.0431  1.0852  1.3447
   87SAPS   H3Y 8365   1.450   7.458  10.434 -0.8381  0.8601 -0.2523
   87SAPS   C34 8366   1.481   7.399  10.220  0.2028  0.0019 -0.1925
   87SAPS   H4X 8367   1.536   7.495  10.224 -1.4752  1.0803 -1.6520
   87SAPS   H4Y 8368   1.384   7.420  10.170 -0.9675 -1.1741  1.4723
   87SAPS   C35 8369   1.552   7.289  10.138 -0.2297  0.2245  0.4578
   87SAPS   H5X 8370   1.488   7.199  10.155 -2.5456  2.0546  2.1290
   87SAPS   H5Y 8371   1.656   7.271  10.172 -0.2380 -1.3143 -0.2544
   87SAPS   C36 8372   1.552   7.325   9.991 -0.1264  0.1931  1.1685
   87SAPS   H6X 8373   1.452   7.365   9.964  0.3925 -0.5138 -2.1691
   87SAPS   H6Y 8374   1.570   7.231   9.935 -0.4183 -0.7009  2.5184
   87SAPS   C37 8375   1.655   7.436   9.943  0.9406  0.5942 -0.3192
   87SAPS   H7X 8376   1.754   7.386   9.933  1.5741  2.2249 -3.6466
   87SAPS   H7Y 8377   1.661   7.507  10.029 -0.8945 -1.2259  1.4243
   87SAPS   C38 8378   1.633   7.507   9.812  0.1626  0.3898 -0.0151
   87SAPS   H8X 8379   1.712   7.584   9.801  0.1761  0.3482 -0.2257
   87SAPS   H8Y 8380   1.534   7.556   9.802 -0.5360 -0.7562  0.9997
   87SAPS   C39 8381   1.636   7.406   9.695 -0.0207  0.2543  0.7406
   87SAPS   H9X 8382   1.547   7.339   9.698 -0.9540  1.2369 -1.8471
   87SAPS   H9Y 8383   1.730   7.350   9.710 -0.2719 -0.0897  1.0489
   87SAPS  C310 8384   1.631   7.482   9.559  0.4787 -0.1221  0.1858
   87SAPS  H10X 8385   1.697   7.423   9.493  2.4532  0.4951  1.5261
   87SAPS  H10Y 8386   1.670   7.586   9.571 -3.2395  1.8244 -2.3979
   87SAPS  C311 8387   1.492   7.491   9.496  0.0448 -0.5310 -0.0754
   87SAPS  H11X 8388   1.429   7.539   9.573 -1.5794 -1.4622 -0.7729
   87SAPS  H11Y 8389   1.460   7.386   9.480 -0.5897 -0.2072 -0.9738
   87SAPS  C312 8390   1.479   7.568   9.367  0.1386  0.1680  0.2618
   87SAPS  H12X 8391   1.500   7.675   9.388 -1.7572  0.5738  0.2161
   87SAPS  H12Y 8392   1.375   7.562   9.330  0.6129 -1.6010 -0.9391
   87SAPS  C313 8393   1.574   7.515   9.255  0.3071  0.8808 -0.4911
   87SAPS  H13X 8394   1.552   7.406   9.248  1.2240  0.6373  0.1514
   87SAPS  H13Y 8395   1.680   7.528   9.287  0.2187  0.6049 -0.0837
   87SAPS  C314 8396   1.547   7.592   9.124  0.1005 -0.6436 -0.0243
   87SAPS  H14X 8397   1.513   7.694   9.152 -2.1305 -0.4368 -3.0088
   87SAPS  H14Y 8398   1.466   7.540   9.070  0.7427  0.3798 -2.1025
   87SAPS  C315 8399   1.674   7.622   9.040 -0.3219 -0.1265  0.8347
   87SAPS  H15X 8400   1.717   7.522   9.021 -0.4472 -0.2975  1.4459
   87SAPS  H15Y 8401   1.737   7.686   9.105  1.4687 -0.5192 -0.4341
   87SAPS  C316 8402   1.638   7.692   8.908  0.4638  0.3391 -0.2076
   87SAPS  H16X 8403   1.573   7.780   8.929 -2.4167 -1.8365  0.6693
   87SAPS  H16Y 8404   1.579   7.622   8.845 -2.5716  3.3458 -1.0111
   87SAPS  C317 8405   1.758   7.740   8.831  0.0913  0.1192 -0.0377
   87SAPS  H17X 8406   1.805   7.639   8.821 -1.2412 -0.7161  1.6595
   87SAPS  H17Y 8407   1.814   7.808   8.899 -1.1207 -0.8173  1.9463
   87SAPS  C318 8408   1.725   7.804   8.697 -0.1274  0.1988  0.0255
   87SAPS  H18X 8409   1.820   7.829   8.645  1.0783  0.7838  2.3832
   87SAPS  H18Y 8410   1.681   7.905   8.708 -0.5318  0.2091 -1.4682
   87SAPS  H18Z 8411   1.655   7.744   8.634 -1.8815  2.0166  0.1661
   88SAPS     N 8412   3.802   5.140  11.064 -0.0665  0.4015 -0.5936
   88SAPS   HN1 8413   3.781   5.211  10.991 -3.2168 -0.5634 -0.7859
   88SAPS   HN2 8414   3.884   5.169  11.122 -1.5324  1.2153  1.1651
   88SAPS   HN3 8415   3.821   5.053  11.011 -0.9073 -2.2745  3.0684
   88SAPS   C12 8416   3.688   5.127  11.156  0.4318 -0.4351 -0.3489
   88SAPS  H12A 8417   3.713   5.046  11.222  1.9596  0.8682  0.7544
   88SAPS   C13 8418   3.647   5.251  11.236  0.4552  0.0536 -0.3519
   88SAPS  O13A 8419   3.716   5.352  11.237 -0.1622 -0.0156 -0.0566
   88SAPS  O13B 8420   3.542   5.239  11.316 -0.0007 -0.2253 -0.5583
   88SAPS   C11 8421   3.562   5.090  11.076 -0.1531 -0.2948  0.4872
   88SAPS  H11A 8422   3.472   5.097  11.140 -2.1513  1.0699 -2.2613
   88SAPS  H11B 8423   3.564   4.983  11.048 -5.3088 -0.8969  1.4348
   88SAPS     P 8424   3.416   5.185  10.877 -0.0659 -0.3471  0.4096
   88SAPS   O13 8425   3.289   5.177  10.950  0.2337  0.2953  0.3538
   88SAPS   O14 8426   3.434   5.310  10.799  0.1010  0.1098 -1.0705
   88SAPS   O12 8427   3.541   5.178  10.968 -0.5074  0.6402  0.1796
   88SAPS   O11 8428   3.422   5.065  10.768 -0.0392 -0.1100 -0.1201
   88SAPS    C1 8429   3.395   4.923  10.790  0.0507 -0.1391  0.2435
   88SAPS    HA 8430   3.480   4.874  10.738  0.1194 -0.5264  0.7159
   88SAPS    HB 8431   3.405   4.895  10.897  1.3786 -0.6113  0.0163
   88SAPS    C2 8432   3.260   4.878  10.722  0.0315  0.5947  0.0015
   88SAPS    HS 8433   3.233   4.778  10.761  3.2422 -1.1193 -1.7330
   88SAPS   O21 8434   3.270   4.884  10.574 -0.1977 -0.1327 -0.0610
   88SAPS   C21 8435   3.319   4.775  10.520  0.3606 -0.4602 -0.5387
   88SAPS   O22 8436   3.347   4.671  10.581  0.0117 -0.1756 -0.3128
   88SAPS   C22 8437   3.353   4.804  10.375 -0.2928  0.0431  0.6056
   88SAPS   H2R 8438   3.247   4.818  10.342  0.3831  1.9510 -0.8923
   88SAPS   H2S 8439   3.399   4.904  10.361 -0.6716  0.0931 -0.3998
   88SAPS    C3 8440   3.145   4.967  10.755  0.1675  0.4356 -0.1688
   88SAPS    HX 8441   3.162   5.060  10.696  1.5062 -0.4104 -1.1738
   88SAPS    HY 8442   3.150   4.973  10.866  1.9963 -0.7247 -0.1451
   88SAPS   O31 8443   3.021   4.892  10.719 -0.6715 -0.8239 -0.3612
   88SAPS   C31 8444   2.918   4.945  10.647  0.1908 -0.0445  0.2128
   88SAPS   O32 8445   2.905   5.064  10.618  0.7019 -0.1493  0.7554
   88SAPS   C32 8446   2.819   4.834  10.615  0.0213 -0.7225  0.2661
   88SAPS   H2X 8447   2.740   4.866  10.545  2.0474  0.9460 -1.4185
   88SAPS   H2Y 8448   2.770   4.802  10.709 -1.5765 -2.8442 -1.1967
   88SAPS   C23 8449   3.433   4.693  10.304  0.6299 -0.3182 -0.1043
   88SAPS   H3R 8450   3.374   4.603  10.279 -0.0927  0.6806 -2.3348
   88SAPS   H3S 8451   3.514   4.659  10.372 -1.1301 -0.9011  1.7988
   88SAPS   C24 8452   3.512   4.734  10.174  0.1772  0.1097 -0.0452
   88SAPS   H4R 8453   3.559   4.640  10.141 -1.0191 -0.1156 -1.1814
   88SAPS   H4S 8454   3.590   4.809  10.202 -0.3335  0.9180 -0.7318
   88SAPS   C25 8455   3.420   4.791  10.071  0.1561 -0.1209 -0.2297
   88SAPS   H5R 8456   3.357   4.876  10.100 -1.1177 -0.6580 -1.2991
   88SAPS   C26 8457   3.406   4.747   9.940 -0.0733  0.1946 -0.6685
   88SAPS   H6R 8458   3.331   4.795   9.876  1.5073  2.2529 -1.0845
   88SAPS   C27 8459   3.483   4.632   9.883  0.0368 -0.1775 -0.8239
   88SAPS   H7R 8460   3.472   4.535   9.936 -0.6067  1.1007  1.4971
   88SAPS   H7S 8461   3.591   4.653   9.894  0.0075 -0.5200  0.2961
   88SAPS   C28 8462   3.443   4.619   9.737  0.1440 -0.2815 -0.1610
   88SAPS   H8R 8463   3.367   4.544   9.712 -0.2668 -0.2312  0.8946
   88SAPS   C29 8464   3.479   4.701   9.637  0.5224  0.0211 -0.0730
   88SAPS   H9R 8465   3.455   4.673   9.534  2.1296  0.1932 -0.5108
   88SAPS  C210 8466   3.582   4.814   9.649 -0.0284  0.7996 -0.1346
   88SAPS  H10R 8467   3.676   4.770   9.689 -0.2369 -1.3076 -1.7735
   88SAPS  H10S 8468   3.554   4.885   9.730 -2.1289 -1.9139  1.7141
   88SAPS  C211 8469   3.602   4.900   9.525 -0.0303  0.1498 -0.3356
   88SAPS  H11R 8470   3.563   5.001   9.546 -0.6805 -0.7728  3.8311
   88SAPS  C212 8471   3.653   4.865   9.406  0.4609 -0.2013 -0.3792
   88SAPS  H12R 8472   3.646   4.951   9.337  0.4318  0.4660  0.4455
   88SAPS  C213 8473   3.701   4.728   9.368  0.0565 -0.4165  0.2134
   88SAPS  H13R 8474   3.623   4.680   9.305  0.9942  1.1691 -2.2737
   88SAPS  H13S 8475   3.715   4.654   9.450 -2.5980 -1.2817 -0.0281
   88SAPS  C214 8476   3.829   4.752   9.292 -0.2213  0.4132  0.2649
   88SAPS  H14R 8477   3.917   4.767   9.357  0.5824 -0.0795 -0.6769
   88SAPS  C215 8478   3.846   4.733   9.159 -0.2214  0.4690  0.0639
   88SAPS  H15R 8479   3.950   4.757   9.133  0.5907  0.8571  3.2144
   88SAPS  C216 8480   3.736   4.705   9.063 -0.2330  0.6020  0.0978
   88SAPS  H16R 8481   3.740   4.749   8.961 -0.0114 -1.2355 -0.7129
   88SAPS  H16S 8482   3.639   4.741   9.102 -0.4233 -1.2939  1.5267
   88SAPS  C217 8483   3.732   4.556   9.031 -0.2573 -0.2000 -0.2222
   88SAPS  H17R 8484   3.711   4.505   9.128 -1.9733 -0.4168 -0.6688
   88SAPS  H17S 8485   3.832   4.515   9.005 -0.3924 -1.7866  1.5430
   88SAPS  C218 8486   3.634   4.503   8.922 -0.2727 -0.5276 -0.1349
   88SAPS  H18R 8487   3.633   4.563   8.829  1.0201 -0.2328  0.0249
   88SAPS  H18S 8488   3.536   4.516   8.972  0.2798  3.7796  0.2512
   88SAPS  C219 8489   3.654   4.354   8.892  0.0332  0.0481  0.0883
   88SAPS  H19R 8490   3.571   4.326   8.824  1.5198 -2.9724 -0.6529
   88SAPS  H19S 8491   3.635   4.287   8.979  0.6860 -2.1395 -1.3662
   88SAPS  C220 8492   3.787   4.309   8.832  0.0271 -0.1048 -0.4059
   88SAPS  H20R 8493   3.824   4.370   8.747 -0.5461 -2.3695 -2.3953
   88SAPS  H20S 8494   3.782   4.203   8.798  0.4204 -0.2110 -0.1295
   88SAPS  H20T 8495   3.863   4.319   8.912 -2.6487 -1.3104  2.5129
   88SAPS   C33 8496   2.885   4.708  10.554  0.8959  0.2616  0.8184
   88SAPS   H3X 8497   2.807   4.629  10.557  0.4228  0.7376  1.1660
   88SAPS   H3Y 8498   2.970   4.655  10.602 -0.4400 -2.0350  0.8204
   88SAPS   C34 8499   2.911   4.732  10.403  0.2110  0.1689 -0.1818
   88SAPS   H4X 8500   2.995   4.804  10.402 -0.7466  1.3164 -0.4582
   88SAPS   H4Y 8501   2.828   4.780  10.347  0.3719 -0.0639 -0.6160
   88SAPS   C35 8502   2.935   4.602  10.329 -0.9323  0.5975 -0.2984
   88SAPS   H5X 8503   2.836   4.551  10.321 -1.3568  1.5124 -1.0195
   88SAPS   H5Y 8504   2.993   4.534  10.396 -0.8171  0.6384 -0.3560
   88SAPS   C36 8505   3.009   4.622  10.206 -0.4477 -0.3415  0.5250
   88SAPS   H6X 8506   3.095   4.692  10.218  0.7805 -0.7557 -3.9784
   88SAPS   H6Y 8507   2.946   4.689  10.143  0.3575 -0.0472  0.0046
   88SAPS   C37 8508   3.051   4.494  10.138  0.5811  0.4746 -0.4529
   88SAPS   H7X 8509   2.958   4.436  10.117  0.6481 -0.1849  0.9893
   88SAPS   H7Y 8510   3.103   4.422  10.205  0.4164 -1.0909 -1.9217
   88SAPS   C38 8511   3.125   4.505  10.002 -0.0545 -0.0480 -0.4861
   88SAPS   H8X 8512   3.158   4.400   9.985 -1.1316 -0.8287  1.7068
   88SAPS   H8Y 8513   3.212   4.573   9.997 -0.0666  0.1164  1.0469
   88SAPS   C39 8514   3.023   4.547   9.903 -0.0087  1.2038  0.7530
   88SAPS   H9X 8515   2.990   4.653   9.910  0.1524  1.3505 -0.4498
   88SAPS   H9Y 8516   2.930   4.493   9.929  0.9192 -0.2663  1.1048
   88SAPS  C310 8517   3.061   4.508   9.761  0.1808 -0.3675  0.1211
   88SAPS  H10X 8518   3.071   4.398   9.763 -0.8816 -0.4548  1.3502
   88SAPS  H10Y 8519   3.154   4.563   9.736 -0.1745  0.1568 -0.0765
   88SAPS  C311 8520   2.950   4.569   9.669  0.0691  0.2212  0.2581
   88SAPS  H11X 8521   2.952   4.680   9.679 -0.1266  0.2915 -0.3841
   88SAPS  H11Y 8522   2.854   4.522   9.697 -0.7212 -0.0050 -2.4678
   88SAPS  C312 8523   2.975   4.513   9.527 -0.5476  0.2432  0.0858
   88SAPS  H12X 8524   2.946   4.407   9.539 -2.2701  0.8357  1.4397
   88SAPS  H12Y 8525   3.086   4.516   9.513 -0.7215  1.9097 -1.2920
   88SAPS  C313 8526   2.900   4.583   9.411 -0.1993 -0.3734  0.3300
   88SAPS  H13X 8527   2.915   4.693   9.414  0.5085 -0.1734 -4.0742
   88SAPS  H13Y 8528   2.792   4.563   9.426 -0.7057  2.0481  0.2689
   88SAPS  C314 8529   2.960   4.534   9.275  0.1408  0.3102  0.1832
   88SAPS  H14X 8530   2.947   4.424   9.273 -1.9702  0.4150  2.4227
   88SAPS  H14Y 8531   3.065   4.563   9.253  0.0677  0.1437 -0.3877
   88SAPS  C315 8532   2.877   4.593   9.156  0.4367 -0.4510  0.1192
   88SAPS  H15X 8533   2.771   4.584   9.189  0.2362  2.8211  0.6559
   88SAPS  H15Y 8534   2.870   4.531   9.064 -0.9730 -0.4229  0.1979
   88SAPS  C316 8535   2.919   4.738   9.120 -0.0658  0.4525 -0.0782
   88SAPS  H16X 8536   3.024   4.753   9.087  0.4873  1.0273  1.8029
   88SAPS  H16Y 8537   2.920   4.798   9.214 -0.2916 -3.2252  2.4480
   88SAPS  C317 8538   2.828   4.815   9.025  0.1209  0.0884  0.8008
   88SAPS  H17X 8539   2.724   4.824   9.064 -0.1035  1.5751 -0.0692
   88SAPS  H17Y 8540   2.832   4.764   8.926  3.3576  2.4541 -0.4658
   88SAPS  C318 8541   2.875   4.959   9.015  0.0653 -0.6233 -0.5790
   88SAPS  H18X 8542   2.835   5.017   8.928  0.4750  1.7832  0.7537
   88SAPS  H18Y 8543   2.985   4.968   9.026  0.0958 -1.7342  0.1479
   88SAPS  H18Z 8544   2.825   5.015   9.097 -1.2674  0.5951 -2.1350
   89SAPS     N 8545   3.775   2.621  11.014  0.2075 -0.3694  0.5186
   89SAPS   HN1 8546   3.694   2.592  10.955  0.9512 -1.9701  0.2351
   89SAPS   HN2 8547   3.761   2.590  11.112 -0.1851 -0.9860  0.2774
   89SAPS   HN3 8548   3.789   2.723  11.026 -0.2556 -0.2615  0.1689
   89SAPS   C12 8549   3.896   2.557  10.952  0.4631  0.4182  0.2404
   89SAPS  H12A 8550   3.904   2.599  10.853  1.9090  0.6832  0.4424
   89SAPS   C13 8551   4.025   2.583  11.027 -0.1905  0.0175 -0.5883
   89SAPS  O13A 8552   4.024   2.628  11.146 -0.5536 -0.3241 -0.1632
   89SAPS  O13B 8553   4.136   2.546  10.986  0.0937 -0.6553  0.2366
   89SAPS   C11 8554   3.871   2.399  10.940  0.3815  0.0422  0.3658
   89SAPS  H11A 8555   3.901   2.363  11.041  1.3927 -0.1648  0.0051
   89SAPS  H11B 8556   3.941   2.361  10.863  0.1796 -2.5641  1.3831
   89SAPS     P 8557   3.702   2.245  10.824 -0.2901 -0.1780  0.1733
   89SAPS   O13 8558   3.745   2.127  10.910  0.3484 -0.4330  0.6038
   89SAPS   O14 8559   3.567   2.240  10.765 -0.0120  0.0454  0.0784
   89SAPS   O12 8560   3.732   2.373  10.907  0.1537 -0.1743 -0.1739
   89SAPS   O11 8561   3.807   2.253  10.703 -0.0411 -0.3783  0.1194
   89SAPS    C1 8562   3.819   2.382  10.632 -0.0699 -0.1477  0.6735
   89SAPS    HA 8563   3.784   2.471  10.689 -0.1948  0.8321 -0.8647
   89SAPS    HB 8564   3.927   2.398  10.612 -0.4332  0.9646 -0.5224
   89SAPS    C2 8565   3.769   2.366  10.486 -0.1955  0.3157  0.1716
   89SAPS    HS 8566   3.810   2.456  10.435  0.7992 -1.5553 -2.5985
   89SAPS   O21 8567   3.629   2.349  10.480 -0.4808 -0.7265  0.3843
   89SAPS   C21 8568   3.559   2.453  10.509  0.7218  0.2827  0.4707
   89SAPS   O22 8569   3.598   2.565  10.532 -0.1630  0.4557 -0.5359
   89SAPS   C22 8570   3.407   2.410  10.511  0.9951  0.2186 -0.1119
   89SAPS   H2R 8571   3.395   2.326  10.583 -2.5194  0.7104  0.0471
   89SAPS   H2S 8572   3.343   2.495  10.545 -0.0684 -0.4360 -0.4085
   89SAPS    C3 8573   3.834   2.243  10.423 -0.0231 -0.2072 -0.2627
   89SAPS    HX 8574   3.802   2.152  10.478 -0.2465  0.1861  0.2722
   89SAPS    HY 8575   3.943   2.259  10.437 -0.0538 -1.0656  1.1408
   89SAPS   O31 8576   3.792   2.249  10.282  0.1351  0.3182  0.0725
   89SAPS   C31 8577   3.692   2.163  10.254  0.1911 -0.6462 -0.6102
   89SAPS   O32 8578   3.641   2.083  10.330 -0.5482 -0.0964  0.0387
   89SAPS   C32 8579   3.662   2.179  10.111  0.2958 -0.0886 -0.2935
   89SAPS   H2X 8580   3.689   2.281  10.075  1.4387 -0.4076 -0.3989
   89SAPS   H2Y 8581   3.554   2.158  10.100  0.0130 -0.6561  2.7651
   89SAPS   C23 8582   3.345   2.352  10.379  0.0628  0.9997 -0.5054
   89SAPS   H3R 8583   3.267   2.276  10.404 -1.1939  2.0734 -1.0099
   89SAPS   H3S 8584   3.422   2.301  10.317 -1.1552 -1.1024 -0.4020
   89SAPS   C24 8585   3.272   2.461  10.300 -0.0560  0.7735  0.7833
   89SAPS   H4R 8586   3.202   2.510  10.372 -2.3379 -2.6954  1.1790
   89SAPS   H4S 8587   3.209   2.410  10.224  0.3174  0.7974  0.4545
   89SAPS   C25 8588   3.367   2.557  10.231 -0.0737 -0.0557 -0.4186
   89SAPS   H5R 8589   3.389   2.648  10.289  3.7807 -1.7674  1.2231
   89SAPS   C26 8590   3.418   2.542  10.104 -0.9270 -0.3519 -0.6626
   89SAPS   H6R 8591   3.489   2.616  10.065 -0.5001 -1.4077 -1.9932
   89SAPS   C27 8592   3.399   2.435   9.995  0.6245 -0.2630 -0.6728
   89SAPS   H7R 8593   3.369   2.346  10.054 -3.2665 -0.0716 -2.0482
   89SAPS   H7S 8594   3.494   2.427   9.940  2.1361 -1.2512  1.8868
   89SAPS   C28 8595   3.274   2.477   9.918 -0.5533  0.3639  0.1900
   89SAPS   H8R 8596   3.185   2.500   9.979 -1.7676  0.7854 -1.6605
   89SAPS   C29 8597   3.271   2.486   9.783 -0.0786 -0.2273  0.2639
   89SAPS   H9R 8598   3.171   2.513   9.745  0.1320 -2.3642 -2.0332
   89SAPS  C210 8599   3.384   2.460   9.685 -0.0810  0.1352 -0.2593
   89SAPS  H10R 8600   3.471   2.519   9.722  1.2275 -1.8681  0.0598
   89SAPS  H10S 8601   3.354   2.509   9.590 -2.5358 -0.4599  0.1578
   89SAPS  C211 8602   3.416   2.311   9.675  0.0177 -0.2323 -0.1004
   89SAPS  H11R 8603   3.344   2.244   9.724  0.8678  0.7090  2.6595
   89SAPS  C212 8604   3.521   2.264   9.608  0.4192  0.0096  0.1296
   89SAPS  H12R 8605   3.557   2.160   9.605  1.9894  0.5613 -1.5578
   89SAPS  C213 8606   3.622   2.345   9.525  0.4885 -0.3881 -0.0912
   89SAPS  H13R 8607   3.718   2.356   9.581 -0.3450 -0.0039  1.2928
   89SAPS  H13S 8608   3.589   2.446   9.496  1.5575  0.0305  0.0962
   89SAPS  C214 8609   3.646   2.262   9.400 -0.1144  0.2620  0.6757
   89SAPS  H14R 8610   3.654   2.154   9.415 -1.8159 -0.4919 -2.7008
   89SAPS  C215 8611   3.645   2.301   9.270  0.9426 -0.4700 -0.5181
   89SAPS  H15R 8612   3.652   2.227   9.190  0.5527  0.4709 -1.4494
   89SAPS  C216 8613   3.629   2.445   9.217 -0.6909  0.3465  0.7485
   89SAPS  H16R 8614   3.672   2.450   9.115 -0.5797  2.3797  0.8707
   89SAPS  H16S 8615   3.696   2.518   9.265  0.3947 -1.2450  1.7285
   89SAPS  C217 8616   3.490   2.508   9.227 -1.2207  0.2664  0.0132
   89SAPS  H17R 8617   3.460   2.502   9.334 -0.0962 -1.0059  0.2871
   89SAPS  H17S 8618   3.421   2.435   9.179 -0.8876 -1.7004  2.3349
   89SAPS  C218 8619   3.482   2.651   9.163  0.3793 -0.1377 -0.1772
   89SAPS  H18R 8620   3.565   2.711   9.206  0.2791  1.2242 -1.8079
   89SAPS  H18S 8621   3.385   2.700   9.184  0.6026 -0.1500  0.9470
   89SAPS  C219 8622   3.505   2.652   9.012  0.0758  1.5349  0.1317
   89SAPS  H19R 8623   3.429   2.593   8.955 -0.7273  0.6874  1.9942
   89SAPS  H19S 8624   3.602   2.599   9.000  0.2591  1.9039 -0.0148
   89SAPS  C220 8625   3.504   2.788   8.951  0.1901  0.7285  0.5444
   89SAPS  H20R 8626   3.591   2.851   8.982 -0.6034  2.1401 -0.0169
   89SAPS  H20S 8627   3.414   2.840   8.992  1.5527  2.3217  1.6744
   89SAPS  H20T 8628   3.491   2.794   8.841 -1.1906  0.4903  0.6727
   89SAPS   C33 8629   3.747   2.083  10.024  1.1364  0.0793  0.3678
   89SAPS   H3X 8630   3.711   1.979  10.044 -2.4894  1.2026  0.4109
   89SAPS   H3Y 8631   3.853   2.106  10.046  0.5069  0.4218  3.4754
   89SAPS   C34 8632   3.728   2.105   9.873  0.4616 -0.2198  0.0947
   89SAPS   H4X 8633   3.733   2.215   9.861 -2.0294  0.0546  1.0528
   89SAPS   H4Y 8634   3.627   2.077   9.837 -0.3929 -0.6531  2.6528
   89SAPS   C35 8635   3.832   2.023   9.787  0.3962 -0.1973 -0.4195
   89SAPS   H5X 8636   3.831   1.916   9.818  1.5714 -0.7738 -2.2214
   89SAPS   H5Y 8637   3.924   2.061   9.837 -0.4538  2.5465 -0.7776
   89SAPS   C36 8638   3.832   2.046   9.639  0.1754  0.3438 -0.0386
   89SAPS   H6X 8639   3.861   2.151   9.617  2.6824 -0.0264  1.1493
   89SAPS   H6Y 8640   3.727   2.029   9.606 -0.8957  0.4606  2.9699
   89SAPS   C37 8641   3.915   1.956   9.551  0.5720 -0.1114  0.7940
   89SAPS   H7X 8642   3.879   1.853   9.571  1.7436 -0.4265  1.3436
   89SAPS   H7Y 8643   4.024   1.969   9.569  1.7607 -4.2955 -1.9687
   89SAPS   C38 8644   3.876   1.976   9.405  0.4888  0.1216  0.3956
   89SAPS   H8X 8645   3.897   2.080   9.373  0.7164  0.5634  1.9023
   89SAPS   H8Y 8646   3.769   1.954   9.387  0.0006  1.5691  1.3705
   89SAPS   C39 8647   3.962   1.880   9.317  0.0436 -0.2131 -0.7786
   89SAPS   H9X 8648   3.924   1.782   9.353 -2.3752  0.3044 -1.6850
   89SAPS   H9Y 8649   4.070   1.888   9.342 -0.0373 -1.8075  0.2682
   89SAPS  C310 8650   3.947   1.889   9.166  0.4975  0.1664 -0.3794
   89SAPS  H10X 8651   3.976   1.987   9.123 -1.8259  2.4820  2.7947
   89SAPS  H10Y 8652   3.841   1.874   9.135  0.2890  0.2216  0.2910
   89SAPS  C311 8653   4.031   1.786   9.094 -0.1469  0.4359 -0.2171
   89SAPS  H11X 8654   4.017   1.683   9.132 -0.8474  0.1303 -1.2681
   89SAPS  H11Y 8655   4.139   1.808   9.109 -0.3335  0.3498  1.4293
   89SAPS  C312 8656   4.007   1.794   8.941 -0.5886  0.5476 -0.8816
   89SAPS  H12X 8657   4.040   1.894   8.905 -1.5351  2.4172  2.9432
   89SAPS  H12Y 8658   3.897   1.783   8.933 -0.5657  0.8515 -1.7369
   89SAPS  C313 8659   4.088   1.688   8.863 -0.1625 -0.9739  1.0434
   89SAPS  H13X 8660   4.059   1.587   8.897 -1.4178 -0.7625  0.6708
   89SAPS  H13Y 8661   4.197   1.705   8.870 -0.0029 -0.4772 -1.4477
   89SAPS  C314 8662   4.049   1.704   8.714 -0.2715 -0.4983  0.2597
   89SAPS  H14X 8663   3.945   1.670   8.695 -0.6043  0.6028  0.0463
   89SAPS  H14Y 8664   4.128   1.642   8.666  1.7762  2.0234  0.1149
   89SAPS  C315 8665   4.071   1.841   8.656  0.1895  0.1106 -1.1347
   89SAPS  H15X 8666   4.162   1.888   8.698 -0.7345  2.5627 -1.6922
   89SAPS  H15Y 8667   3.984   1.910   8.667  1.2839  1.1730  2.1878
   89SAPS  C316 8668   4.104   1.843   8.502 -0.0144 -0.2642 -0.1207
   89SAPS  H16X 8669   4.200   1.789   8.490 -0.2983 -0.6700 -0.6451
   89SAPS  H16Y 8670   4.109   1.948   8.467  0.7480 -0.1801  0.2344
   89SAPS  C317 8671   4.000   1.773   8.404  0.9651  0.6213  1.2373
   89SAPS  H17X 8672   3.896   1.802   8.431  0.0168  1.3310 -2.6555
   89SAPS  H17Y 8673   4.008   1.666   8.433  0.6467  0.4338  0.6469
   89SAPS  C318 8674   4.028   1.794   8.258 -0.1865  0.6217  0.5002
   89SAPS  H18X 8675   4.019   1.902   8.235 -1.3072  0.6488  0.9892
   89SAPS  H18Y 8676   3.962   1.740   8.186 -0.4482  2.5174 -0.7328
   89SAPS  H18Z 8677   4.131   1.757   8.237  0.1982  2.0780 -0.3556
   90SAPS     N 8678   4.386   6.439  10.657 -0.0977  0.2255 -0.0613
   90SAPS   HN1 8679   4.369   6.354  10.715  1.3424 -0.4293 -0.5355
   90SAPS   HN2 8680   4.294   6.482  10.634 -0.0779  0.5636  0.4917
   90SAPS   HN3 8681   4.442   6.405  10.576  2.9826 -0.5848  2.1936
   90SAPS   C12 8682   4.469   6.530  10.730  0.1696 -0.1481 -0.1642
   90SAPS  H12A 8683   4.488   6.615  10.667  0.9712  0.3728  0.7515
   90SAPS   C13 8684   4.404   6.583  10.859  0.5590  0.0220  0.5995
   90SAPS  O13A 8685   4.293   6.527  10.897 -0.3147  0.3661  0.1584
   90SAPS  O13B 8686   4.448   6.688  10.910 -0.1301 -0.2621 -0.6514
   90SAPS   C11 8687   4.605   6.461  10.762  0.2505 -0.0620 -0.1616
   90SAPS  H11A 8688   4.593   6.369  10.824  1.1737  0.1537  0.3507
   90SAPS  H11B 8689   4.664   6.536  10.819 -0.2858 -0.8752  1.5408
   90SAPS     P 8690   4.822   6.391  10.645  0.5797  0.0056  0.2665
   90SAPS   O13 8691   4.885   6.494  10.730 -0.5505  0.2460 -0.2447
   90SAPS   O14 8692   4.839   6.250  10.685 -0.5125  0.0723  0.4274
   90SAPS   O12 8693   4.669   6.411  10.645  0.0511  0.1745 -0.3020
   90SAPS   O11 8694   4.853   6.413  10.489 -0.2386 -0.0587 -0.1435
   90SAPS    C1 8695   4.809   6.533  10.416 -0.1854  0.5658  0.3360
   90SAPS    HA 8696   4.778   6.617  10.483 -2.5983 -0.7504  0.9838
   90SAPS    HB 8697   4.903   6.569  10.370 -0.7055  0.6058 -0.7123
   90SAPS    C2 8698   4.688   6.496  10.326 -0.4107  0.1617 -0.0523
   90SAPS    HS 8699   4.621   6.434  10.389 -0.9971  1.9727  1.2089
   90SAPS   O21 8700   4.745   6.430  10.207  0.2213  0.4330 -0.0707
   90SAPS   C21 8701   4.674   6.318  10.174 -0.5801 -0.7522 -0.1643
   90SAPS   O22 8702   4.573   6.287  10.230  0.3328  0.0672  0.4628
   90SAPS   C22 8703   4.737   6.239  10.052  0.2591  0.6910 -0.1942
   90SAPS   H2R 8704   4.717   6.299   9.961  2.3125  0.0910 -1.0978
   90SAPS   H2S 8705   4.848   6.243  10.066  0.0591  2.3014  1.2645
   90SAPS    C3 8706   4.603   6.621  10.287 -0.4922 -0.6908  0.0606
   90SAPS    HX 8707   4.670   6.689  10.231 -1.7061  0.2486 -0.3045
   90SAPS    HY 8708   4.579   6.685  10.375 -1.1305 -0.7833 -0.0424
   90SAPS   O31 8709   4.485   6.574  10.213 -0.6117  0.5021  0.5697
   90SAPS   C31 8710   4.379   6.560  10.268 -0.4119  0.2654 -0.0065
   90SAPS   O32 8711   4.355   6.602  10.383  0.6665 -0.2182  0.1215
   90SAPS   C32 8712   4.277   6.502  10.173  0.1815  0.4120  0.7811
   90SAPS   H2X 8713   4.283   6.391  10.183  2.8973  0.2022 -1.7981
   90SAPS   H2Y 8714   4.298   6.525  10.066  0.8901  1.0206  1.0441
   90SAPS   C23 8715   4.686   6.096  10.053 -0.4973 -0.4931 -0.1027
   90SAPS   H3R 8716   4.577   6.098  10.032 -0.0761  0.9291 -2.4820
   90SAPS   H3S 8717   4.715   6.038  10.143  0.5195  0.1220 -0.0124
   90SAPS   C24 8718   4.744   6.026   9.920  0.0104  0.4517 -0.1695
   90SAPS   H4R 8719   4.837   6.078   9.888 -1.3342  2.7538 -0.5468
   90SAPS   H4S 8720   4.667   6.048   9.843  0.3381  1.3575 -0.2451
   90SAPS   C25 8721   4.769   5.888   9.947 -0.0414  0.9392  0.0864
   90SAPS   H5R 8722   4.781   5.867  10.054  0.8636  2.2016  0.2591
   90SAPS   C26 8723   4.786   5.791   9.855 -0.2434 -0.7680 -0.1767
   90SAPS   H6R 8724   4.821   5.691   9.888 -0.3747  0.0082  2.5209
   90SAPS   C27 8725   4.768   5.809   9.706 -0.0618  0.0297 -0.5967
   90SAPS   H7R 8726   4.679   5.874   9.689  0.8215  1.0563 -1.4062
   90SAPS   H7S 8727   4.734   5.715   9.657 -0.6622  0.0594 -0.2455
   90SAPS   C28 8728   4.883   5.864   9.628  0.1884  0.2159  0.0783
   90SAPS   H8R 8729   4.974   5.812   9.663  1.3108  1.7089 -0.5291
   90SAPS   C29 8730   4.894   5.954   9.529 -0.4553 -0.0455 -0.7222
   90SAPS   H9R 8731   4.986   5.977   9.474 -1.0257 -0.3225 -1.8311
   90SAPS  C210 8732   4.785   6.028   9.468  1.3169  0.4024  0.1117
   90SAPS  H10R 8733   4.702   6.032   9.542  0.7433 -1.8897 -0.3249
   90SAPS  H10S 8734   4.732   5.972   9.388  0.7344  2.0513 -0.6906
   90SAPS  C211 8735   4.818   6.165   9.413 -0.2372  0.1426  0.1163
   90SAPS  H11R 8736   4.865   6.163   9.314  1.1518  0.9723  0.7372
   90SAPS  C212 8737   4.806   6.285   9.474 -0.4183  0.5157 -0.3972
   90SAPS  H12R 8738   4.826   6.382   9.424  4.0817 -0.1188 -0.2539
   90SAPS  C213 8739   4.748   6.307   9.610 -0.0272  0.0202  0.1803
   90SAPS  H13R 8740   4.681   6.227   9.650  0.3576  0.6727  2.1946
   90SAPS  H13S 8741   4.686   6.396   9.584  2.5477  1.2737 -2.2118
   90SAPS  C214 8742   4.848   6.326   9.721 -0.4596  0.2121 -0.1493
   90SAPS  H14R 8743   4.896   6.231   9.747 -1.3569  0.0199  0.8733
   90SAPS  C215 8744   4.869   6.447   9.784 -0.2719  0.0276 -0.2200
   90SAPS  H15R 8745   4.955   6.443   9.853 -0.1462 -2.7982 -0.4285
   90SAPS  C216 8746   4.807   6.584   9.750 -0.7286 -0.0270  0.0442
   90SAPS  H16R 8747   4.748   6.568   9.657 -0.3103 -0.9932 -0.0655
   90SAPS  H16S 8748   4.889   6.656   9.732 -1.3729  0.9909  1.0254
   90SAPS  C217 8749   4.724   6.647   9.863  0.3643  0.1662 -0.0813
   90SAPS  H17R 8750   4.715   6.757   9.847  1.1796  0.4511  1.2659
   90SAPS  H17S 8751   4.776   6.645   9.961 -1.9010  0.9292  1.2308
   90SAPS  C218 8752   4.576   6.599   9.868  0.3657  0.0522  0.2609
   90SAPS  H18R 8753   4.534   6.652   9.956 -1.2217  2.5370 -1.8324
   90SAPS  H18S 8754   4.592   6.491   9.889 -1.4847 -0.7249 -1.9152
   90SAPS  C219 8755   4.485   6.636   9.748  0.4882  0.3481 -0.4919
   90SAPS  H19R 8756   4.525   6.607   9.648  0.3039  1.2972 -0.8508
   90SAPS  H19S 8757   4.466   6.745   9.754 -0.1401  0.1719  1.2374
   90SAPS  C220 8758   4.345   6.576   9.770 -0.0845  0.0062  0.5386
   90SAPS  H20R 8759   4.354   6.466   9.771 -0.3050 -0.0225 -0.2525
   90SAPS  H20S 8760   4.263   6.608   9.702 -1.0317  0.3626  1.8107
   90SAPS  H20T 8761   4.313   6.611   9.870  1.2522 -0.8036  1.2725
   90SAPS   C33 8762   4.128   6.542  10.205  0.2247  0.3462 -0.2887
   90SAPS   H3X 8763   4.096   6.621  10.133 -0.7798  0.6562  0.4667
   90SAPS   H3Y 8764   4.126   6.583  10.309 -0.8628 -0.2921 -0.0355
   90SAPS   C34 8765   4.017   6.438  10.199 -0.3507  0.4585 -0.3965
   90SAPS   H4X 8766   3.916   6.482  10.211 -0.2861  0.5685 -0.2626
   90SAPS   H4Y 8767   4.044   6.363  10.276 -0.0613  0.6600 -0.3012
   90SAPS   C35 8768   4.014   6.369  10.061  0.3227  0.1062  0.4918
   90SAPS   H5X 8769   3.954   6.275  10.066 -2.9794  1.9957 -0.2413
   90SAPS   H5Y 8770   4.117   6.343  10.032  0.7612  0.5776  1.5599
   90SAPS   C36 8771   3.957   6.455   9.939 -0.5522  0.3331  0.4051
   90SAPS   H6X 8772   3.989   6.559   9.964 -0.0615  0.3040 -0.0766
   90SAPS   H6Y 8773   3.847   6.440   9.943 -0.5985  0.8265  2.0706
   90SAPS   C37 8774   4.017   6.420   9.804 -0.4105 -0.2874 -0.1399
   90SAPS   H7X 8775   4.009   6.310   9.792  1.6388 -0.7022  1.6082
   90SAPS   H7Y 8776   4.127   6.425   9.819 -0.6209  0.9091  1.2804
   90SAPS   C38 8777   3.963   6.497   9.680  0.5478 -0.2530 -0.2744
   90SAPS   H8X 8778   4.048   6.503   9.609  1.0015 -4.0345 -0.2502
   90SAPS   H8Y 8779   3.944   6.603   9.708  2.5002  0.5715 -1.8496
   90SAPS   C39 8780   3.846   6.428   9.612  0.2568 -0.8081 -0.8073
   90SAPS   H9X 8781   3.765   6.424   9.688  0.8480  0.7101 -0.0475
   90SAPS   H9Y 8782   3.876   6.324   9.589 -1.1103 -0.9726 -1.9799
   90SAPS  C310 8783   3.791   6.500   9.487  0.0903  0.0542  0.5056
   90SAPS  H10X 8784   3.809   6.608   9.503 -0.5032  0.4888 -1.4221
   90SAPS  H10Y 8785   3.682   6.480   9.495 -0.1981  1.6502  0.7945
   90SAPS  C311 8786   3.827   6.442   9.351 -0.2365  0.5081 -1.0627
   90SAPS  H11X 8787   3.824   6.331   9.354  2.5441  0.3430  2.1152
   90SAPS  H11Y 8788   3.933   6.473   9.337 -0.4997  0.7870 -2.6672
   90SAPS  C312 8789   3.742   6.486   9.227  0.3456 -0.1481  0.1369
   90SAPS  H12X 8790   3.727   6.596   9.234  1.4223  0.1239 -1.3062
   90SAPS  H12Y 8791   3.647   6.434   9.252 -0.1174  0.9721  0.7748
   90SAPS  C313 8792   3.811   6.446   9.094 -0.9822  0.2511  0.3886
   90SAPS  H13X 8793   3.811   6.335   9.089 -1.4640  0.2878 -0.8626
   90SAPS  H13Y 8794   3.920   6.469   9.093 -0.7424 -0.7567  1.3831
   90SAPS  C314 8795   3.755   6.514   8.976  0.3126  0.3806  0.7068
   90SAPS  H14X 8796   3.751   6.624   8.995  0.1722  0.2580  1.4050
   90SAPS  H14Y 8797   3.648   6.485   8.966  0.3443  0.5981 -0.4043
   90SAPS  C315 8798   3.838   6.487   8.850 -0.3715  0.4304  0.9518
   90SAPS  H15X 8799   3.816   6.380   8.827  3.7568 -0.0967 -1.4505
   90SAPS  H15Y 8800   3.945   6.495   8.878  0.6036 -0.6777 -2.0355
   90SAPS  C316 8801   3.798   6.570   8.728  0.8002 -0.4687 -0.0394
   90SAPS  H16X 8802   3.853   6.526   8.642 -1.0571  0.6486 -1.8767
   90SAPS  H16Y 8803   3.832   6.675   8.746  1.0539 -0.4976 -0.3446
   90SAPS  C317 8804   3.656   6.552   8.696 -0.2285 -0.2072  0.8459
   90SAPS  H17X 8805   3.595   6.582   8.784  1.1079  0.2293  1.6562
   90SAPS  H17Y 8806   3.633   6.445   8.680  2.0500 -0.5797 -0.3670
   90SAPS  C318 8807   3.616   6.627   8.567  0.0847  0.0617 -0.3148
   90SAPS  H18X 8808   3.646   6.734   8.568 -0.7708  0.3279  1.6405
   90SAPS  H18Y 8809   3.507   6.624   8.545  0.2226 -2.4767 -0.9888
   90SAPS  H18Z 8810   3.663   6.568   8.485  0.7701  0.1006  0.0456
   91SAPS     N 8811   1.608   4.723   5.741  1.0073 -0.0529  0.1854
   91SAPS   HN1 8812   1.570   4.629   5.765 -0.2232  0.0366 -1.2876
   91SAPS   HN2 8813   1.570   4.753   5.649  0.4855 -0.2152  0.3439
   91SAPS   HN3 8814   1.708   4.704   5.719  0.6232 -3.5036  0.8213
   91SAPS   C12 8815   1.585   4.821   5.850  0.2329 -0.4123  0.6041
   91SAPS  H12A 8816   1.625   4.911   5.805  0.3073 -1.0570 -0.6404
   91SAPS   C13 8817   1.435   4.839   5.874  0.0311 -0.5667 -0.1235
   91SAPS  O13A 8818   1.356   4.781   5.795 -0.3112  0.8902 -0.2789
   91SAPS  O13B 8819   1.401   4.927   5.955 -0.0963  0.0016  0.5500
   91SAPS   C11 8820   1.645   4.779   5.987  0.0195  0.4718  0.7017
   91SAPS  H11A 8821   1.584   4.697   6.029 -1.1076  0.1609 -1.3757
   91SAPS  H11B 8822   1.652   4.869   6.052 -1.8490  0.4447  1.0045
   91SAPS     P 8823   1.840   4.623   6.076 -0.3847  0.2470  0.0712
   91SAPS   O13 8824   1.781   4.491   6.043  0.6435  0.3080  0.2170
   91SAPS   O14 8825   1.983   4.636   6.069 -0.0552  0.1133 -0.7986
   91SAPS   O12 8826   1.780   4.725   5.972 -0.3290 -0.6403  0.2141
   91SAPS   O11 8827   1.782   4.677   6.212  0.1322  0.0108  0.3739
   91SAPS    C1 8828   1.846   4.791   6.268 -0.2272 -0.0321 -0.3806
   91SAPS    HA 8829   1.888   4.863   6.196 -1.3139  0.0348 -0.9659
   91SAPS    HB 8830   1.773   4.850   6.327 -0.1545  1.1309 -1.4317
   91SAPS    C2 8831   1.952   4.748   6.369  0.3343 -0.1785  0.6002
   91SAPS    HS 8832   2.025   4.685   6.314 -0.5356  1.4018 -2.6509
   91SAPS   O21 8833   1.887   4.692   6.487  0.0839  0.1245 -0.0529
   91SAPS   C21 8834   1.900   4.562   6.508  0.3835  0.0816 -0.3188
   91SAPS   O22 8835   1.937   4.485   6.420  0.3611  0.4792 -0.1835
   91SAPS   C22 8836   1.841   4.527   6.646 -0.6054 -0.6216 -0.2356
   91SAPS   H2R 8837   1.832   4.620   6.705 -1.2896 -0.6491 -0.2822
   91SAPS   H2S 8838   1.740   4.484   6.625 -0.1235 -0.4810 -3.1601
   91SAPS    C3 8839   2.040   4.870   6.422  0.0234  0.1953 -0.1363
   91SAPS    HX 8840   1.973   4.945   6.468  0.5001 -0.3640  1.5331
   91SAPS    HY 8841   2.082   4.919   6.331 -1.4794  1.3251 -0.2563
   91SAPS   O31 8842   2.143   4.820   6.504  0.0869 -0.2686  0.0995
   91SAPS   C31 8843   2.133   4.820   6.636 -0.5717  0.3522 -0.0810
   91SAPS   O32 8844   2.034   4.841   6.703 -0.3607  0.3899 -0.1456
   91SAPS   C32 8845   2.262   4.792   6.694  0.0467 -0.1654 -0.6618
   91SAPS   H2X 8846   2.348   4.833   6.637 -0.5644 -0.2291 -1.6425
   91SAPS   H2Y 8847   2.272   4.683   6.676  1.9052 -0.0033 -0.8407
   91SAPS   C23 8848   1.927   4.430   6.738 -0.1216  0.1150  0.5727
   91SAPS   H3R 8849   1.945   4.335   6.685 -2.1279 -0.0464  0.0697
   91SAPS   H3S 8850   1.873   4.409   6.833 -1.4187 -3.2496 -0.7716
   91SAPS   C24 8851   2.065   4.483   6.772 -1.0764  0.2750  0.4719
   91SAPS   H4R 8852   2.068   4.584   6.818  2.3506  0.9460 -0.9537
   91SAPS   H4S 8853   2.139   4.480   6.689  1.6280  0.3906  2.7566
   91SAPS   C25 8854   2.135   4.392   6.877 -0.3846  0.5771  0.7035
   91SAPS   H5R 8855   2.212   4.324   6.837 -0.9467  0.4430 -0.1833
   91SAPS   C26 8856   2.124   4.403   7.011 -0.4072  0.3542  0.2909
   91SAPS   H6R 8857   2.188   4.338   7.072  1.0889  0.8069 -0.7133
   91SAPS   C27 8858   2.032   4.502   7.082 -0.7702  0.3904 -0.1507
   91SAPS   H7R 8859   1.972   4.429   7.140 -2.3424  1.0717 -0.8502
   91SAPS   H7S 8860   1.973   4.565   7.012  2.0161  3.1393 -0.2203
   91SAPS   C28 8861   2.107   4.600   7.174 -0.1250 -0.7904 -0.7625
   91SAPS   H8R 8862   2.190   4.651   7.121 -0.0826 -1.8135 -1.7061
   91SAPS   C29 8863   2.083   4.620   7.306  0.2447  0.5910 -0.5989
   91SAPS   H9R 8864   2.151   4.681   7.367 -0.2290  0.5721 -0.0364
   91SAPS  C210 8865   1.980   4.548   7.390 -0.4930 -0.5670 -0.5939
   91SAPS  H10R 8866   1.967   4.442   7.357 -1.4962 -0.6508  0.0439
   91SAPS  H10S 8867   1.884   4.597   7.366 -0.2060  0.6648  0.6789
   91SAPS  C211 8868   2.003   4.548   7.539  0.0552  0.3853  0.0536
   91SAPS  H11R 8869   2.108   4.528   7.567 -0.4178 -1.8144  0.4983
   91SAPS  C212 8870   1.911   4.571   7.637 -0.2025 -0.4200 -0.0128
   91SAPS  H12R 8871   1.951   4.558   7.739 -0.8765  1.3588  0.5045
   91SAPS  C213 8872   1.768   4.611   7.624 -0.7204  0.3361 -0.2476
   91SAPS  H13R 8873   1.755   4.657   7.524  2.2032 -0.2560 -0.9809
   91SAPS  H13S 8874   1.748   4.679   7.709  3.7684  1.0023  0.5130
   91SAPS  C214 8875   1.696   4.480   7.644 -0.3779 -0.8840 -0.9352
   91SAPS  H14R 8876   1.709   4.403   7.566 -1.5252 -0.7094 -1.3196
   91SAPS  C215 8877   1.615   4.461   7.751  0.1819  0.1527 -0.3666
   91SAPS  H15R 8878   1.557   4.368   7.751  0.1915  0.1441 -1.0523
   91SAPS  C216 8879   1.585   4.555   7.871 -0.5419  0.0647  0.7110
   91SAPS  H16R 8880   1.490   4.521   7.918 -1.0291 -1.4610 -1.2045
   91SAPS  H16S 8881   1.566   4.659   7.839  2.7318 -0.0235 -2.0045
   91SAPS  C217 8882   1.697   4.561   7.979 -0.6491 -0.5381 -0.1735
   91SAPS  H17R 8883   1.650   4.624   8.058  0.4536  1.8798 -1.3664
   91SAPS  H17S 8884   1.787   4.609   7.937 -0.6535 -1.2914 -1.0658
   91SAPS  C218 8885   1.724   4.423   8.041  0.4513 -0.5006  0.8676
   91SAPS  H18R 8886   1.748   4.347   7.963 -2.4566 -0.0818 -0.5565
   91SAPS  H18S 8887   1.631   4.380   8.084 -0.0001 -0.1557  0.2385
   91SAPS  C219 8888   1.835   4.427   8.147 -0.0364 -0.3196 -0.5386
   91SAPS  H19R 8889   1.853   4.326   8.189  0.0372  0.3285  1.0871
   91SAPS  H19S 8890   1.812   4.485   8.240 -1.3430  2.0741 -2.2254
   91SAPS  C220 8891   1.969   4.470   8.089 -1.0774  0.2825 -0.2285
   91SAPS  H20R 8892   2.044   4.488   8.169  0.0296  1.6415 -1.5135
   91SAPS  H20S 8893   1.958   4.566   8.034  0.6981 -0.3216 -1.7795
   91SAPS  H20T 8894   2.022   4.400   8.020  0.5204  1.1587  0.0438
   91SAPS   C33 8895   2.267   4.814   6.847 -0.5670 -0.0513  0.8887
   91SAPS   H3X 8896   2.356   4.761   6.886  0.8748  0.7411 -1.1680
   91SAPS   H3Y 8897   2.173   4.796   6.904  0.9119 -0.7194  3.2402
   91SAPS   C34 8898   2.306   4.965   6.867 -0.2090  0.1024  0.2439
   91SAPS   H4X 8899   2.216   5.030   6.864 -0.5031 -0.1975  1.7740
   91SAPS   H4Y 8900   2.359   5.004   6.778  1.1417 -0.7506  0.6529
   91SAPS   C35 8901   2.391   4.987   6.994  0.3451  0.1669  0.4448
   91SAPS   H5X 8902   2.445   5.081   6.974  0.1224  0.4128  0.9862
   91SAPS   H5Y 8903   2.463   4.905   7.013 -0.1102 -0.6269 -1.0365
   91SAPS   C36 8904   2.307   5.028   7.112  0.1970  0.3634  0.0357
   91SAPS   H6X 8905   2.212   4.973   7.122  0.3883 -0.0188 -0.2131
   91SAPS   H6Y 8906   2.271   5.128   7.082 -1.2758  0.2706  1.3605
   91SAPS   C37 8907   2.384   5.033   7.246 -1.1511  0.5063  0.2776
   91SAPS   H7X 8908   2.477   5.093   7.244 -0.7823 -0.0604 -1.4101
   91SAPS   H7Y 8909   2.424   4.931   7.266  2.3185  0.9344 -3.2657
   91SAPS   C38 8910   2.286   5.077   7.354  0.3003 -0.0923 -0.0360
   91SAPS   H8X 8911   2.186   5.039   7.324  0.7090 -0.7916 -0.5576
   91SAPS   H8Y 8912   2.277   5.187   7.365 -0.1754 -0.2086  0.8891
   91SAPS   C39 8913   2.322   5.017   7.491  0.2415  0.0825 -0.0575
   91SAPS   H9X 8914   2.374   5.096   7.550 -0.2790 -0.4245  1.0963
   91SAPS   H9Y 8915   2.386   4.926   7.496 -0.1153 -0.1600  0.0964
   91SAPS  C310 8916   2.193   4.987   7.575  0.4654 -0.6479  0.5603
   91SAPS  H10X 8917   2.148   4.907   7.512  1.9624 -1.7435  0.8283
   91SAPS  H10Y 8918   2.135   5.082   7.574  0.6792 -0.4665 -1.8437
   91SAPS  C311 8919   2.220   4.949   7.722 -0.0022 -0.1508  0.2124
   91SAPS  H11X 8920   2.311   4.885   7.717  0.8805  1.1798 -2.2559
   91SAPS  H11Y 8921   2.136   4.882   7.751 -0.7209  0.8120  0.4109
   91SAPS  C312 8922   2.230   5.067   7.815 -0.6682 -0.2663 -0.3867
   91SAPS  H12X 8923   2.136   5.119   7.841  0.4007  1.2905  0.5082
   91SAPS  H12Y 8924   2.298   5.151   7.790 -1.5709  0.6359  0.1206
   91SAPS  C313 8925   2.286   5.020   7.955 -0.7884 -0.7543 -0.0447
   91SAPS  H13X 8926   2.335   5.102   8.012  1.5860 -3.4027  2.0327
   91SAPS  H13Y 8927   2.368   4.946   7.940  0.4663  0.7520 -0.9289
   91SAPS  C314 8928   2.172   4.969   8.044 -0.1905 -0.0197  0.3549
   91SAPS  H14X 8929   2.139   4.870   8.005  0.1432 -0.2724  0.7022
   91SAPS  H14Y 8930   2.086   5.038   8.048 -0.2332 -0.0980  3.3369
   91SAPS  C315 8931   2.213   4.950   8.195 -0.1681  0.0351  0.1967
   91SAPS  H15X 8932   2.213   5.049   8.244  0.4419  0.5121 -0.7365
   91SAPS  H15Y 8933   2.316   4.910   8.208 -0.4232 -0.1680  1.8787
   91SAPS  C316 8934   2.113   4.851   8.262 -0.5992 -0.0049  0.0549
   91SAPS  H16X 8935   2.119   4.746   8.226 -1.1185 -0.2649  0.7064
   91SAPS  H16Y 8936   2.017   4.886   8.219  0.0978  0.2628 -1.3504
   91SAPS  C317 8937   2.119   4.864   8.413  0.3882  0.3583 -0.6443
   91SAPS  H17X 8938   2.023   4.827   8.455 -0.6276  2.2984 -1.1483
   91SAPS  H17Y 8939   2.113   4.969   8.449  0.0276 -0.2295  1.1374
   91SAPS  C318 8940   2.229   4.803   8.481 -0.4585 -0.2674 -0.6242
   91SAPS  H18X 8941   2.221   4.693   8.496  1.3057  0.0712  5.4026
   91SAPS  H18Y 8942   2.249   4.838   8.585  0.1100 -0.6271 -0.6067
   91SAPS  H18Z 8943   2.326   4.825   8.432 -0.0383  1.1340  0.7490
   92SAPS     N 8944   1.629   4.070   6.303  0.6726 -0.5323 -0.4303
   92SAPS   HN1 8945   1.635   4.037   6.401 -0.6976 -0.5523 -0.3315
   92SAPS   HN2 8946   1.706   4.022   6.251  2.9925 -0.0924  2.3844
   92SAPS   HN3 8947   1.633   4.173   6.296 -0.6819 -0.0350  3.5438
   92SAPS   C12 8948   1.497   4.046   6.246 -0.1048 -0.4689 -0.3065
   92SAPS  H12A 8949   1.409   4.071   6.303  0.4743  2.3008 -0.4899
   92SAPS   C13 8950   1.479   4.114   6.108 -0.2380  0.4136  0.2845
   92SAPS  O13A 8951   1.550   4.209   6.078 -0.3699 -0.9572  0.2014
   92SAPS  O13B 8952   1.368   4.090   6.048 -0.3097  0.0653  0.1817
   92SAPS   C11 8953   1.485   3.887   6.222  1.5134 -0.9220  0.5635
   92SAPS  H11A 8954   1.545   3.874   6.129  1.3726  1.0944  0.1426
   92SAPS  H11B 8955   1.380   3.856   6.205  0.4988  1.5063  1.9399
   92SAPS     P 8956   1.608   3.663   6.305  0.3490  0.1646  0.0254
   92SAPS   O13 8957   1.498   3.580   6.248  0.3471  0.0854  0.2992
   92SAPS   O14 8958   1.731   3.671   6.229 -1.2779  0.4368 -0.4093
   92SAPS   O12 8959   1.553   3.812   6.322  0.5557  0.6466  0.2773
   92SAPS   O11 8960   1.632   3.618   6.452 -0.4143  0.0468  0.6096
   92SAPS    C1 8961   1.525   3.615   6.550 -0.3010  0.4740 -0.3391
   92SAPS    HA 8962   1.480   3.715   6.559 -1.8444 -0.1801 -0.5553
   92SAPS    HB 8963   1.442   3.545   6.528  2.0098 -2.0100 -1.8911
   92SAPS    C2 8964   1.578   3.564   6.683  0.4422 -0.0099 -0.6457
   92SAPS    HS 8965   1.492   3.527   6.744  1.3184  1.4455  1.6357
   92SAPS   O21 8966   1.635   3.672   6.770  0.1451  0.8128  0.3394
   92SAPS   C21 8967   1.544   3.752   6.819  0.2986  0.6096  0.2859
   92SAPS   O22 8968   1.424   3.750   6.799 -0.2146 -0.1355 -0.0929
   92SAPS   C22 8969   1.612   3.858   6.906  0.0685  0.1021 -0.7822
   92SAPS   H2R 8970   1.709   3.892   6.863  0.8668  0.2675  1.0508
   92SAPS   H2S 8971   1.556   3.953   6.889  0.4528  0.3860 -0.4647
   92SAPS    C3 8972   1.683   3.448   6.675  0.1440 -0.9109 -0.1597
   92SAPS    HX 8973   1.769   3.482   6.613 -1.1358  0.6977 -1.1308
   92SAPS    HY 8974   1.631   3.362   6.628  0.5049 -2.2659  1.7625
   92SAPS   O31 8975   1.722   3.425   6.816 -0.2080  0.4218  0.1396
   92SAPS   C31 8976   1.642   3.328   6.871 -0.5681 -0.6175  0.5329
   92SAPS   O32 8977   1.544   3.282   6.810  0.1422 -0.1299 -0.2948
   92SAPS   C32 8978   1.693   3.290   7.009 -0.7932  0.3662  0.3481
   92SAPS   H2X 8979   1.788   3.345   7.028 -1.6044  2.5663 -1.5524
   92SAPS   H2Y 8980   1.712   3.181   7.006  1.8758  0.7918 -1.9001
   92SAPS   C23 8981   1.619   3.829   7.051 -0.3021  0.7619 -0.1094
   92SAPS   H3R 8982   1.523   3.816   7.104  1.0181  0.3424  2.3334
   92SAPS   H3S 8983   1.676   3.903   7.111 -1.3521  2.0876 -0.7073
   92SAPS   C24 8984   1.694   3.692   7.095  0.7858 -0.4007  0.1966
   92SAPS   H4R 8985   1.657   3.612   7.027 -1.4158  0.7812 -0.0908
   92SAPS   H4S 8986   1.654   3.662   7.195 -2.7300  0.9465 -0.6431
   92SAPS   C25 8987   1.841   3.699   7.097  0.5362 -0.0441  0.9277
   92SAPS   H5R 8988   1.886   3.737   7.004  2.3464 -0.2804  1.6645
   92SAPS   C26 8989   1.924   3.684   7.200  0.2524  0.1524  0.0392
   92SAPS   H6R 8990   2.033   3.695   7.188  0.9557 -1.7005  3.6280
   92SAPS   C27 8991   1.887   3.639   7.342 -0.7119  0.0651  0.0277
   92SAPS   H7R 8992   1.931   3.539   7.361  1.2716  1.0587  0.9481
   92SAPS   H7S 8993   1.778   3.619   7.351 -0.5454 -0.3195  1.4633
   92SAPS   C28 8994   1.929   3.736   7.449 -1.1010  0.1478  0.0955
   92SAPS   H8R 8995   1.988   3.818   7.407 -3.2002  1.7923  0.1421
   92SAPS   C29 8996   1.891   3.746   7.581 -0.1060  0.0943  0.7000
   92SAPS   H9R 8997   1.924   3.834   7.637  1.2782 -1.4080  2.3422
   92SAPS  C210 8998   1.791   3.655   7.647 -0.4116  0.1403 -0.2573
   92SAPS  H10R 8999   1.713   3.619   7.576 -1.4123  2.2896 -0.3580
   92SAPS  H10S 9000   1.731   3.713   7.721  0.0352 -0.7325  0.8160
   92SAPS  C211 9001   1.866   3.547   7.720 -0.4120  0.2803  0.3000
   92SAPS  H11R 9002   1.908   3.466   7.658  0.6392 -1.5001  3.1578
   92SAPS  C212 9003   1.897   3.547   7.854  0.3935 -0.6085  0.7541
   92SAPS  H12R 9004   1.952   3.462   7.899  0.6275 -0.9064 -0.0884
   92SAPS  C213 9005   1.871   3.664   7.947  0.1364 -0.0982  0.1319
   92SAPS  H13R 9006   1.903   3.757   7.895  3.0825 -0.7039  0.6282
   92SAPS  H13S 9007   1.927   3.648   8.042 -0.7086  0.3005  0.7052
   92SAPS  C214 9008   1.721   3.659   7.978 -0.0502 -0.3538 -0.0259
   92SAPS  H14R 9009   1.645   3.631   7.905 -2.3332 -2.1719  2.8168
   92SAPS  C215 9010   1.667   3.678   8.098 -0.4037  0.1005 -0.3458
   92SAPS  H15R 9011   1.559   3.661   8.112 -0.1682 -0.1274  1.4470
   92SAPS  C216 9012   1.728   3.714   8.233 -0.3521 -0.9438  0.3039
   92SAPS  H16R 9013   1.712   3.817   8.269 -0.9481  0.2701 -3.0761
   92SAPS  H16S 9014   1.836   3.690   8.241 -0.4424 -0.7779  2.3826
   92SAPS  C217 9015   1.673   3.618   8.333  0.8384  0.4102 -0.8710
   92SAPS  H17R 9016   1.679   3.512   8.303 -2.0514  0.9835 -3.9711
   92SAPS  H17S 9017   1.566   3.641   8.348  0.8157 -0.1211 -0.1527
   92SAPS  C218 9018   1.739   3.621   8.474  0.0435 -0.5811 -0.2868
   92SAPS  H18R 9019   1.849   3.628   8.459  0.1509 -0.3543  0.5769
   92SAPS  H18S 9020   1.705   3.528   8.525 -1.8689  0.1529 -0.1739
   92SAPS  C219 9021   1.708   3.746   8.555  0.2338  0.6564 -0.7225
   92SAPS  H19R 9022   1.604   3.754   8.593  1.1726  1.8271  1.8627
   92SAPS  H19S 9023   1.711   3.829   8.481 -0.9562  0.5037 -0.9605
   92SAPS  C220 9024   1.796   3.761   8.686 -0.0198 -0.5669 -0.3964
   92SAPS  H20R 9025   1.791   3.871   8.702 -2.7871 -0.4930 -1.1769
   92SAPS  H20S 9026   1.902   3.729   8.680 -0.7637 -2.9485 -1.8709
   92SAPS  H20T 9027   1.743   3.715   8.772  0.8936  2.1698  1.7912
   92SAPS   C33 9028   1.601   3.325   7.128 -0.1165  0.0594  0.2257
   92SAPS   H3X 9029   1.518   3.252   7.122 -0.8082  0.7960  0.5596
   92SAPS   H3Y 9030   1.557   3.427   7.128  0.2129  0.2199 -1.0171
   92SAPS   C34 9031   1.681   3.294   7.255 -0.2913  0.4328 -0.8160
   92SAPS   H4X 9032   1.763   3.368   7.271  0.2255 -0.6838  2.2041
   92SAPS   H4Y 9033   1.720   3.191   7.245 -0.4059 -0.1266  3.0114
   92SAPS   C35 9034   1.599   3.298   7.384 -0.7712  0.7174  0.4803
   92SAPS   H5X 9035   1.511   3.231   7.376 -0.1982  0.1498 -1.7484
   92SAPS   H5Y 9036   1.567   3.404   7.397 -0.5381  1.0656 -1.5535
   92SAPS   C36 9037   1.697   3.259   7.487 -0.5273 -0.2015 -0.4788
   92SAPS   H6X 9038   1.773   3.338   7.504  1.6027 -2.6089  2.1761
   92SAPS   H6Y 9039   1.754   3.166   7.467 -0.0311 -0.2987  1.2770
   92SAPS   C37 9040   1.630   3.236   7.625 -0.0801 -0.4537  0.1236
   92SAPS   H7X 9041   1.563   3.147   7.625  0.3695 -0.8053 -1.1466
   92SAPS   H7Y 9042   1.576   3.327   7.660 -0.8610 -0.5849 -0.6914
   92SAPS   C38 9043   1.733   3.203   7.728  0.2595  0.6285 -0.6813
   92SAPS   H8X 9044   1.816   3.275   7.712  2.3592 -1.7551 -1.2921
   92SAPS   H8Y 9045   1.786   3.109   7.700 -1.4690 -0.1715 -1.3993
   92SAPS   C39 9046   1.687   3.197   7.873 -0.2683 -1.1308 -0.0009
   92SAPS   H9X 9047   1.604   3.123   7.881  2.1695 -4.1203 -0.5947
   92SAPS   H9Y 9048   1.635   3.292   7.895  0.9411 -0.1476 -1.2279
   92SAPS  C310 9049   1.812   3.180   7.966 -0.0611 -0.5690  0.3637
   92SAPS  H10X 9050   1.883   3.264   7.951  1.1684 -1.0447  2.9425
   92SAPS  H10Y 9051   1.868   3.094   7.924 -0.6272  0.3965 -2.5678
   92SAPS  C311 9052   1.780   3.141   8.116  0.5664 -0.4421 -0.2646
   92SAPS  H11X 9053   1.874   3.116   8.170  0.0304 -0.9918  0.4413
   92SAPS  H11Y 9054   1.725   3.046   8.102 -1.0327  0.7619 -2.8920
   92SAPS  C312 9055   1.696   3.256   8.178  0.5114 -0.1669 -0.0635
   92SAPS  H12X 9056   1.602   3.284   8.126 -0.1176  0.5800  1.4113
   92SAPS  H12Y 9057   1.751   3.352   8.181 -1.0440  0.7788 -0.5725
   92SAPS  C313 9058   1.659   3.228   8.330 -0.0525 -0.1349 -0.5172
   92SAPS  H13X 9059   1.587   3.302   8.373  2.4734  2.9720 -1.2205
   92SAPS  H13Y 9060   1.755   3.230   8.386  0.0978  0.6234 -0.7829
   92SAPS  C314 9061   1.599   3.084   8.350  0.1070 -0.5139 -0.0362
   92SAPS  H14X 9062   1.652   3.002   8.296  0.4917 -0.3754  0.1244
   92SAPS  H14Y 9063   1.501   3.102   8.302  0.7473 -0.9732 -1.5574
   92SAPS  C315 9064   1.583   3.028   8.492  0.0808 -0.2693  0.3826
   92SAPS  H15X 9065   1.548   3.111   8.558 -2.2850 -1.8754  1.3117
   92SAPS  H15Y 9066   1.676   2.984   8.534  1.4752  1.5525 -0.6586
   92SAPS  C316 9067   1.462   2.939   8.490  0.7974 -0.1025  0.6990
   92SAPS  H16X 9068   1.491   2.856   8.422  0.4492  0.2443  0.1133
   92SAPS  H16Y 9069   1.377   2.984   8.434 -1.2788 -3.0766  1.2328
   92SAPS  C317 9070   1.422   2.883   8.626  0.3540  0.0532 -0.4752
   92SAPS  H17X 9071   1.379   2.956   8.698  1.8299 -0.3729  0.9066
   92SAPS  H17Y 9072   1.506   2.848   8.690 -1.1739  2.0097  2.9233
   92SAPS  C318 9073   1.320   2.771   8.615  0.5595  0.0139 -0.3725
   92SAPS  H18X 9074   1.294   2.715   8.707 -1.2880 -1.7940 -1.8880
   92SAPS  H18Y 9075   1.360   2.688   8.553 -0.0913 -0.3714 -0.2919
   92SAPS  H18Z 9076   1.224   2.797   8.565 -0.0502 -0.1173  0.6901
   93SAPS     N 9077   2.947   4.788   6.265 -0.0039 -0.9718 -0.0303
   93SAPS   HN1 9078   3.038   4.818   6.304 -0.3623  3.2040 -1.8662
   93SAPS   HN2 9079   2.958   4.732   6.179  2.4891  1.3091 -1.3508
   93SAPS   HN3 9080   2.895   4.875   6.240  0.5542 -1.3166 -2.6179
   93SAPS   C12 9081   2.880   4.703   6.376  0.1341 -0.4379 -0.8393
   93SAPS  H12A 9082   2.848   4.767   6.457 -1.7887 -2.4168  0.0614
   93SAPS   C13 9083   2.745   4.643   6.327  0.4131 -0.0026  0.5184
   93SAPS  O13A 9084   2.711   4.642   6.201  0.0395  0.1850 -0.3789
   93SAPS  O13B 9085   2.688   4.568   6.407  0.1794 -0.1916 -0.2427
   93SAPS   C11 9086   2.977   4.594   6.432 -0.7744 -0.6601 -0.0684
   93SAPS  H11A 9087   3.005   4.526   6.349  2.2112  1.2619 -0.7912
   93SAPS  H11B 9088   2.919   4.538   6.508 -3.1580  0.9142 -0.5922
   93SAPS     P 9089   3.206   4.585   6.554 -0.3462 -0.4033 -0.4646
   93SAPS   O13 9090   3.190   4.442   6.516 -0.0857  0.3889 -0.7440
   93SAPS   O14 9091   3.334   4.657   6.539 -0.1173 -0.2796  0.2101
   93SAPS   O12 9092   3.092   4.668   6.482  0.2592 -0.2084 -0.0578
   93SAPS   O11 9093   3.157   4.610   6.705  0.1378 -0.0766 -0.2079
   93SAPS    C1 9094   3.138   4.743   6.751  0.3396  0.1369 -0.2617
   93SAPS    HA 9095   3.076   4.799   6.678 -0.3929  0.7306  0.7997
   93SAPS    HB 9096   3.067   4.740   6.836 -1.1640  0.6918 -1.4466
   93SAPS    C2 9097   3.267   4.810   6.798  0.0368  0.4170 -0.7929
   93SAPS    HS 9098   3.335   4.813   6.710 -0.2680 -1.9193 -1.1661
   93SAPS   O21 9099   3.326   4.732   6.908 -0.1521  0.2330 -0.5487
   93SAPS   C21 9100   3.450   4.693   6.913 -0.2227  0.2283  0.5429
   93SAPS   O22 9101   3.540   4.739   6.838  0.1243  0.1173  0.3617
   93SAPS   C22 9102   3.468   4.593   7.029  0.4859 -0.1385 -0.3366
   93SAPS   H2R 9103   3.441   4.488   7.004  1.1943 -0.0831 -1.3919
   93SAPS   H2S 9104   3.571   4.612   7.064 -0.1334  1.6080  0.6702
   93SAPS    C3 9105   3.245   4.958   6.854  0.0992  0.0150  0.5248
   93SAPS    HX 9106   3.199   5.025   6.777  0.8193 -0.4375 -0.3213
   93SAPS    HY 9107   3.350   4.991   6.864 -0.2688  2.1624 -1.7046
   93SAPS   O31 9108   3.163   4.968   6.979 -0.3046 -0.0614  0.6086
   93SAPS   C31 9109   3.238   4.979   7.088 -0.1334  0.1028 -0.4095
   93SAPS   O32 9110   3.361   4.974   7.091 -0.2111 -0.3120  0.1634
   93SAPS   C32 9111   3.151   5.001   7.209 -0.1444  0.2366 -0.4865
   93SAPS   H2X 9112   3.064   4.932   7.196  1.5693 -2.4401  1.2621
   93SAPS   H2Y 9113   3.115   5.106   7.201  1.5721  0.8847 -0.2166
   93SAPS   C23 9114   3.383   4.644   7.152  0.0903 -1.1440 -0.0467
   93SAPS   H3R 9115   3.279   4.624   7.120  0.9015  0.1680 -4.0357
   93SAPS   H3S 9116   3.406   4.751   7.167 -1.6584 -0.7995  0.3911
   93SAPS   C24 9117   3.412   4.566   7.284  0.2522 -0.3065 -0.2147
   93SAPS   H4R 9118   3.516   4.571   7.322 -0.9956 -0.8572  3.6480
   93SAPS   H4S 9119   3.392   4.457   7.284 -2.8244  0.1587  0.8409
   93SAPS   C25 9120   3.327   4.630   7.385 -0.5917  0.4926  0.3907
   93SAPS   H5R 9121   3.253   4.700   7.343  0.6135 -1.3283 -5.7035
   93SAPS   C26 9122   3.336   4.598   7.515  0.2079  0.7069  0.6446
   93SAPS   H6R 9123   3.266   4.640   7.588 -0.3117  0.1230  0.4985
   93SAPS   C27 9124   3.418   4.483   7.569 -0.2631  0.3905 -1.0274
   93SAPS   H7R 9125   3.501   4.530   7.625 -1.2555  1.1074 -0.1168
   93SAPS   H7S 9126   3.483   4.427   7.499  2.6866  2.2099  0.0539
   93SAPS   C28 9127   3.326   4.411   7.662 -0.4377  0.5852  0.9454
   93SAPS   H8R 9128   3.285   4.326   7.606  2.9621  1.0339 -2.6602
   93SAPS   C29 9129   3.303   4.425   7.793 -0.3045  0.4279  0.0259
   93SAPS   H9R 9130   3.225   4.362   7.839 -0.4331 -1.2804 -2.3553
   93SAPS  C210 9131   3.373   4.524   7.884  0.1650 -0.5969  0.0810
   93SAPS  H10R 9132   3.293   4.577   7.939  1.3365  1.5056 -0.1368
   93SAPS  H10S 9133   3.423   4.597   7.817 -0.1925 -0.2762  0.1623
   93SAPS  C211 9134   3.474   4.464   7.983 -0.0894  0.0566  0.4960
   93SAPS  H11R 9135   3.559   4.419   7.929 -1.0323  2.3346 -3.1977
   93SAPS  C212 9136   3.481   4.472   8.120 -0.4119 -0.6598  0.3134
   93SAPS  H12R 9137   3.568   4.429   8.171  0.4660  1.9935  1.2299
   93SAPS  C213 9138   3.390   4.543   8.212 -0.0381 -0.5786  0.1206
   93SAPS  H13R 9139   3.346   4.632   8.163 -0.3711  0.1163  1.6177
   93SAPS  H13S 9140   3.452   4.582   8.296 -0.7055  0.5556  0.1128
   93SAPS  C214 9141   3.282   4.449   8.273 -0.5667  0.6150 -0.2629
   93SAPS  H14R 9142   3.217   4.394   8.203 -0.5687 -0.6673  0.7173
   93SAPS  C215 9143   3.264   4.408   8.403  0.6502  0.8411 -0.7704
   93SAPS  H15R 9144   3.206   4.322   8.439 -0.5382  1.0947 -2.0068
   93SAPS  C216 9145   3.344   4.458   8.525  0.0215  0.3758  0.6708
   93SAPS  H16R 9146   3.433   4.513   8.488  1.3271 -0.4592  2.4565
   93SAPS  H16S 9147   3.367   4.377   8.598 -1.0495  0.3768  1.0203
   93SAPS  C217 9148   3.268   4.575   8.594  0.6603 -0.4961 -0.6513
   93SAPS  H17R 9149   3.167   4.542   8.626  0.6758 -0.1613 -0.2544
   93SAPS  H17S 9150   3.252   4.670   8.539 -0.5404  0.2809  0.9672
   93SAPS  C218 9151   3.336   4.611   8.733 -0.0909 -0.0633  0.2105
   93SAPS  H18R 9152   3.445   4.625   8.716  0.4336  0.3263  3.3773
   93SAPS  H18S 9153   3.334   4.513   8.786  0.5678 -1.6407 -2.4522
   93SAPS  C219 9154   3.274   4.719   8.820 -0.2149 -0.4843 -1.2276
   93SAPS  H19R 9155   3.174   4.687   8.858  0.6912 -1.7816  0.1870
   93SAPS  H19S 9156   3.247   4.816   8.774 -1.0546  0.4519  1.1346
   93SAPS  C220 9157   3.348   4.748   8.955  0.1868 -0.5973  0.5997
   93SAPS  H20R 9158   3.456   4.766   8.939  0.0851  0.0066  0.5711
   93SAPS  H20S 9159   3.336   4.661   9.024  0.1976 -0.4969  0.7294
   93SAPS  H20T 9160   3.294   4.825   9.014 -1.4019 -1.2175  0.0214
   93SAPS   C33 9161   3.222   4.986   7.344  0.2096 -0.1327 -1.0722
   93SAPS   H3X 9162   3.289   5.073   7.359 -1.6821  1.0708  0.9180
   93SAPS   H3Y 9163   3.286   4.896   7.353  0.3954  0.1561  0.9501
   93SAPS   C34 9164   3.122   4.985   7.455 -0.1955 -0.2518  0.2562
   93SAPS   H4X 9165   3.042   4.908   7.446 -1.6924  1.3632 -1.0290
   93SAPS   H4Y 9166   3.063   5.080   7.457  0.1480  0.0084 -1.1848
   93SAPS   C35 9167   3.184   4.977   7.589  0.3774 -0.1664 -0.1800
   93SAPS   H5X 9168   3.263   5.054   7.600 -0.6677  0.7524  1.2290
   93SAPS   H5Y 9169   3.238   4.880   7.597 -0.7039 -0.6713  1.6619
   93SAPS   C36 9170   3.089   4.984   7.712  0.2951  0.8668 -0.3771
   93SAPS   H6X 9171   3.027   4.891   7.712 -1.9277  2.2644 -0.4185
   93SAPS   H6Y 9172   3.025   5.075   7.711  0.8459  1.3034 -3.0672
   93SAPS   C37 9173   3.177   4.990   7.839 -0.0079  0.5565  0.1619
   93SAPS   H7X 9174   3.245   5.078   7.830  0.1974  0.2263 -2.4694
   93SAPS   H7Y 9175   3.233   4.894   7.843 -0.5099  0.2909  1.0168
   93SAPS   C38 9176   3.104   5.005   7.966  0.4567 -0.2039 -0.1523
   93SAPS   H8X 9177   3.021   4.932   7.960 -1.0740  1.4689 -0.1457
   93SAPS   H8Y 9178   3.066   5.109   7.965 -0.7031 -0.6112  0.1402
   93SAPS   C39 9179   3.175   4.988   8.099 -0.2566 -0.2840  0.0818
   93SAPS   H9X 9180   3.210   4.883   8.094  1.3179  0.2595 -1.2289
   93SAPS   H9Y 9181   3.097   4.991   8.178  2.0527 -2.6641  2.6574
   93SAPS  C310 9182   3.272   5.097   8.137  0.3409  0.0465  0.0240
   93SAPS  H10X 9183   3.219   5.193   8.120  0.5929  0.4094  1.2200
   93SAPS  H10Y 9184   3.367   5.081   8.082  2.3432  0.0041  3.2330
   93SAPS  C311 9185   3.315   5.090   8.279 -0.1139 -0.6558  0.4179
   93SAPS  H11X 9186   3.224   5.119   8.336 -0.2828  1.7247 -0.9591
   93SAPS  H11Y 9187   3.404   5.153   8.299  0.3855 -0.4488 -2.1574
   93SAPS  C312 9188   3.364   4.951   8.327 -0.1620 -0.4387 -0.2067
   93SAPS  H12X 9189   3.453   4.931   8.264 -0.2993 -1.3427 -0.1268
   93SAPS  H12Y 9190   3.300   4.864   8.301  0.6530 -0.2005 -3.4343
   93SAPS  C313 9191   3.413   4.945   8.474  0.3095  0.1864  0.0833
   93SAPS  H13X 9192   3.460   4.846   8.490 -2.3975 -1.6161 -2.2639
   93SAPS  H13Y 9193   3.326   4.954   8.543  0.6309  0.8165  0.4210
   93SAPS  C314 9194   3.515   5.050   8.509 -0.0049 -0.1565 -0.2368
   93SAPS  H14X 9195   3.484   5.156   8.498  0.3765  0.0804  0.8250
   93SAPS  H14Y 9196   3.612   5.027   8.458 -0.7040 -0.4765 -1.4622
   93SAPS  C315 9197   3.535   5.046   8.662 -0.0026 -0.1838  0.5710
   93SAPS  H15X 9198   3.642   5.075   8.671 -0.5294  3.3069 -2.1354
   93SAPS  H15Y 9199   3.513   4.946   8.707  0.4519 -0.0010  1.2092
   93SAPS  C316 9200   3.466   5.156   8.753 -0.0334  0.0394  0.1833
   93SAPS  H16X 9201   3.358   5.134   8.739  0.0102 -1.5813  1.9640
   93SAPS  H16Y 9202   3.472   5.263   8.725 -3.2703  0.1580 -0.4774
   93SAPS  C317 9203   3.496   5.142   8.906 -0.3758  0.0985  0.9128
   93SAPS  H17X 9204   3.605   5.155   8.920 -0.2316 -1.0478  0.9895
   93SAPS  H17Y 9205   3.473   5.036   8.929 -3.2517 -0.1579 -2.3614
   93SAPS  C318 9206   3.424   5.245   8.987 -0.1705  0.1458  0.4652
   93SAPS  H18X 9207   3.320   5.209   9.000  0.6358 -1.3315  4.0578
   93SAPS  H18Y 9208   3.436   5.347   8.945  2.5849 -0.6337 -0.9386
   93SAPS  H18Z 9209   3.470   5.253   9.088 -1.1304  1.4822  0.8164
   94SAPS     N 9210   2.606   6.397   5.724 -0.3227 -0.7212  0.5753
   94SAPS   HN1 9211   2.642   6.477   5.669  3.3033 -1.5692  1.4204
   94SAPS   HN2 9212   2.688   6.339   5.751 -0.4796 -1.3414 -0.2349
   94SAPS   HN3 9213   2.550   6.330   5.668  1.0689 -1.6490  0.2193
   94SAPS   C12 9214   2.542   6.451   5.850  0.3455  1.0473  0.5650
   94SAPS  H12A 9215   2.456   6.502   5.812  1.7788  2.4355 -0.9664
   94SAPS   C13 9216   2.494   6.345   5.941  0.6688  0.0088 -0.2074
   94SAPS  O13A 9217   2.512   6.224   5.914  0.5041  0.2223  0.5588
   94SAPS  O13B 9218   2.453   6.382   6.060 -0.1023  0.3691  0.2733
   94SAPS   C11 9219   2.643   6.542   5.927  0.2466  0.4287  0.0650
   94SAPS  H11A 9220   2.722   6.487   5.984  0.3174 -0.2564 -0.6791
   94SAPS  H11B 9221   2.582   6.592   6.005 -0.5418 -2.2614  1.2682
   94SAPS     P 9222   2.830   6.709   5.884 -0.1556 -0.3946  0.1353
   94SAPS   O13 9223   2.942   6.618   5.840  0.1220  0.1876 -0.4675
   94SAPS   O14 9224   2.829   6.846   5.843  0.2913  0.2798  0.2128
   94SAPS   O12 9225   2.693   6.640   5.834  0.3071  0.1147 -0.3378
   94SAPS   O11 9226   2.821   6.695   6.042 -0.1067  0.3812  0.7065
   94SAPS    C1 9227   2.788   6.795   6.135  0.4329 -0.6025 -0.0559
   94SAPS    HA 9228   2.731   6.876   6.083 -1.2993 -0.7887  1.4657
   94SAPS    HB 9229   2.722   6.763   6.218  1.6705  2.7215  2.4587
   94SAPS    C2 9230   2.914   6.873   6.197  0.7726 -0.0102 -0.5251
   94SAPS    HS 9231   2.958   6.936   6.117 -1.2203 -0.6817 -2.2466
   94SAPS   O21 9232   3.007   6.778   6.246  0.5722  0.0739  0.3636
   94SAPS   C21 9233   3.128   6.827   6.261 -1.0670  0.2772 -0.2674
   94SAPS   O22 9234   3.169   6.940   6.234  0.0266  0.1918 -0.3693
   94SAPS   C22 9235   3.215   6.705   6.291  0.0463 -0.2804  0.0101
   94SAPS   H2R 9236   3.154   6.625   6.340 -1.6960  0.5645 -0.7020
   94SAPS   H2S 9237   3.242   6.668   6.190  1.2972 -0.1042  0.2613
   94SAPS    C3 9238   2.859   6.967   6.306  0.4055 -0.2754 -0.3618
   94SAPS    HX 9239   2.787   7.031   6.251  1.2233  1.6206  0.6821
   94SAPS    HY 9240   2.935   7.040   6.341  1.7944 -1.5358 -0.6243
   94SAPS   O31 9241   2.801   6.900   6.416  0.5256  0.1173  0.7351
   94SAPS   C31 9242   2.865   6.878   6.528 -0.2176 -0.2559  0.0624
   94SAPS   O32 9243   2.977   6.918   6.545  0.2696 -0.5577  0.2237
   94SAPS   C32 9244   2.782   6.808   6.632  0.2084  0.6363 -0.0217
   94SAPS   H2X 9245   2.723   6.732   6.576 -1.7646 -0.2192  3.0001
   94SAPS   H2Y 9246   2.700   6.878   6.658  1.2123  2.5838 -1.7290
   94SAPS   C23 9247   3.341   6.724   6.366  0.1458  0.2409 -0.0725
   94SAPS   H3R 9248   3.359   6.833   6.375 -1.1955  0.5373 -0.6895
   94SAPS   H3S 9249   3.419   6.676   6.303 -2.5204 -1.9530 -1.9349
   94SAPS   C24 9250   3.338   6.666   6.511  0.9158  0.1315  0.2777
   94SAPS   H4R 9251   3.256   6.724   6.557  0.1287 -0.0023 -0.9162
   94SAPS   H4S 9252   3.431   6.696   6.564  1.2704  0.0899 -0.3111
   94SAPS   C25 9253   3.314   6.517   6.519 -0.1373  0.2295 -0.1027
   94SAPS   H5R 9254   3.349   6.477   6.422  0.4767  1.3089 -0.3466
   94SAPS   C26 9255   3.289   6.449   6.634  0.8027  0.4910  0.4095
   94SAPS   H6R 9256   3.258   6.344   6.625  0.9998  0.3720  1.0949
   94SAPS   C27 9257   3.274   6.516   6.770 -0.7207  0.9093  0.2019
   94SAPS   H7R 9258   3.221   6.444   6.836 -1.4711 -0.5169 -1.8578
   94SAPS   H7S 9259   3.208   6.605   6.768 -3.0494 -0.6687  1.6256
   94SAPS   C28 9260   3.404   6.567   6.817 -0.3280  0.1860 -0.8350
   94SAPS   H8R 9261   3.485   6.592   6.747 -0.0882  2.3362  0.1415
   94SAPS   C29 9262   3.427   6.599   6.947 -0.3017  0.0747  0.3463
   94SAPS   H9R 9263   3.530   6.634   6.963 -0.5663  2.7039 -2.6686
   94SAPS  C210 9264   3.337   6.583   7.071 -0.3047  0.5958 -0.3207
   94SAPS  H10R 9265   3.228   6.576   7.050 -0.8153  4.0290  0.6360
   94SAPS  H10S 9266   3.359   6.666   7.140  1.3368 -0.6996  0.8042
   94SAPS  C211 9267   3.387   6.456   7.136  0.4327 -0.4764  0.8795
   94SAPS  H11R 9268   3.486   6.423   7.103  0.2872 -0.3218  0.2659
   94SAPS  C212 9269   3.323   6.386   7.234  1.0397 -0.5178 -0.6218
   94SAPS  H12R 9270   3.386   6.303   7.270  2.0494 -0.0466 -1.2465
   94SAPS  C213 9271   3.190   6.422   7.288  0.0392  0.6292  0.0238
   94SAPS  H13R 9272   3.114   6.444   7.209 -1.3257 -2.0495  0.4586
   94SAPS  H13S 9273   3.213   6.515   7.345 -0.8901 -0.2568  1.9570
   94SAPS  C214 9274   3.143   6.316   7.388  0.0190 -0.7619  0.6889
   94SAPS  H14R 9275   3.133   6.216   7.343  0.0385 -1.0187  1.2428
   94SAPS  C215 9276   3.107   6.335   7.517 -0.0929  0.8226  0.2561
   94SAPS  H15R 9277   3.087   6.247   7.580  0.7613  1.6086  1.6546
   94SAPS  C216 9278   3.106   6.466   7.589 -0.0971 -0.5710 -0.2610
   94SAPS  H16R 9279   3.047   6.455   7.683  0.4257 -1.2785 -0.0009
   94SAPS  H16S 9280   3.067   6.538   7.514  2.0291 -0.9486 -1.8242
   94SAPS  C217 9281   3.246   6.521   7.620 -0.1846  0.1510 -0.0037
   94SAPS  H17R 9282   3.304   6.538   7.527 -1.2675 -0.0498 -0.7335
   94SAPS  H17S 9283   3.306   6.453   7.684 -2.6712 -0.4102  1.9248
   94SAPS  C218 9284   3.245   6.654   7.693 -0.7532 -0.0608 -0.3647
   94SAPS  H18R 9285   3.204   6.737   7.632 -1.2299 -0.7826 -1.0535
   94SAPS  H18S 9286   3.350   6.686   7.712 -1.0079  0.6147 -0.0606
   94SAPS  C219 9287   3.192   6.648   7.835 -0.1068  0.0296 -0.0181
   94SAPS  H19R 9288   3.244   6.567   7.890  0.0744 -0.4896 -0.9511
   94SAPS  H19S 9289   3.088   6.609   7.831 -1.7890  4.0991 -1.6205
   94SAPS  C220 9290   3.205   6.775   7.914 -0.5996  0.2170 -0.1322
   94SAPS  H20R 9291   3.312   6.805   7.906 -0.4305 -0.2673  0.2414
   94SAPS  H20S 9292   3.188   6.748   8.021  0.3598 -0.8755 -0.2393
   94SAPS  H20T 9293   3.142   6.855   7.870  0.2394  1.3879  0.7451
   94SAPS   C33 9294   2.859   6.741   6.751  0.5386  0.0343  0.0327
   94SAPS   H3X 9295   2.959   6.699   6.728  0.8533 -0.1576  1.6415
   94SAPS   H3Y 9296   2.793   6.655   6.777  2.1549 -1.6853 -1.2985
   94SAPS   C34 9297   2.877   6.848   6.861 -0.0125 -0.6103  0.4037
   94SAPS   H4X 9298   2.776   6.892   6.876 -0.6662 -1.5856 -0.9778
   94SAPS   H4Y 9299   2.947   6.925   6.822 -0.2924  0.6732  2.3076
   94SAPS   C35 9300   2.929   6.774   6.984 -0.2477  0.5879 -0.3902
   94SAPS   H5X 9301   3.035   6.740   6.975 -0.4464  0.1364 -1.1123
   94SAPS   H5Y 9302   2.867   6.683   6.998  1.0909 -0.2949  0.0530
   94SAPS   C36 9303   2.919   6.859   7.114 -0.2873 -0.7003 -0.4319
   94SAPS   H6X 9304   2.822   6.912   7.124  2.4758  4.5999  2.5872
   94SAPS   H6Y 9305   2.994   6.939   7.097 -0.5466 -0.5466 -0.8869
   94SAPS   C37 9306   2.965   6.790   7.247 -0.2185 -0.1141 -0.7436
   94SAPS   H7X 9307   3.075   6.776   7.250  0.0544  1.8312  2.3363
   94SAPS   H7Y 9308   2.923   6.689   7.265 -1.3351  0.6488  1.2992
   94SAPS   C38 9309   2.918   6.874   7.364 -0.2251  0.1685 -0.6313
   94SAPS   H8X 9310   2.810   6.899   7.373  0.1002  1.3634  0.1518
   94SAPS   H8Y 9311   2.979   6.966   7.356 -1.0994  0.7594 -0.5692
   94SAPS   C39 9312   2.964   6.790   7.479  0.2593  0.3268 -0.3839
   94SAPS   H9X 9313   3.070   6.760   7.471  0.8095  1.4549  1.8911
   94SAPS   H9Y 9314   2.894   6.704   7.490  1.2184 -0.9148 -3.0993
   94SAPS  C310 9315   2.956   6.862   7.617 -0.7925  0.5766 -0.1103
   94SAPS  H10X 9316   3.035   6.940   7.605  2.0950 -2.1239  0.1412
   94SAPS  H10Y 9317   2.991   6.792   7.695  0.7177 -0.0215 -1.2609
   94SAPS  C311 9318   2.812   6.911   7.646 -0.4062 -0.3704  0.5442
   94SAPS  H11X 9319   2.736   6.834   7.621 -0.0123 -0.0845 -1.7349
   94SAPS  H11Y 9320   2.790   6.993   7.574 -1.7118 -0.3817  0.8975
   94SAPS  C312 9321   2.789   6.958   7.785 -0.3332  0.4684 -0.6928
   94SAPS  H12X 9322   2.848   7.050   7.803 -0.0779  0.5800 -1.9683
   94SAPS  H12Y 9323   2.829   6.883   7.856  0.8290  0.5337 -1.2574
   94SAPS  C313 9324   2.638   6.971   7.830  0.1841  0.2824 -0.0291
   94SAPS  H13X 9325   2.581   6.876   7.818  0.6641 -0.1182  0.7945
   94SAPS  H13Y 9326   2.582   7.045   7.769 -1.5866 -0.9295  0.0409
   94SAPS  C314 9327   2.638   7.027   7.977  0.0413 -0.4503  0.7125
   94SAPS  H14X 9328   2.712   7.109   7.991 -0.3372 -0.3321  2.1539
   94SAPS  H14Y 9329   2.657   6.945   8.049  0.3460 -1.1402 -0.1308
   94SAPS  C315 9330   2.503   7.085   8.022 -0.0294  0.3813  0.2358
   94SAPS  H15X 9331   2.440   6.993   8.028  0.0257  0.4250  3.0243
   94SAPS  H15Y 9332   2.462   7.149   7.941  1.4429  0.2687 -0.6200
   94SAPS  C316 9333   2.500   7.156   8.158 -0.4036  0.0868  0.1434
   94SAPS  H16X 9334   2.562   7.248   8.152 -2.4841  1.7250  2.0333
   94SAPS  H16Y 9335   2.529   7.101   8.250  0.0722  0.8481  0.4530
   94SAPS  C317 9336   2.358   7.210   8.191  0.3631  0.1913  0.0381
   94SAPS  H17X 9337   2.306   7.114   8.210 -1.6668  1.2078 -0.1244
   94SAPS  H17Y 9338   2.314   7.275   8.112 -0.6803  2.2503  2.2112
   94SAPS  C318 9339   2.361   7.291   8.324 -0.3899 -0.5765 -0.0691
   94SAPS  H18X 9340   2.410   7.234   8.405 -1.4259 -0.4325  0.6779
   94SAPS  H18Y 9341   2.256   7.300   8.360  0.0942 -2.8913  2.2159
   94SAPS  H18Z 9342   2.399   7.394   8.305 -0.7474 -0.5336 -0.5835
   95SAPS     N 9343   6.606   4.548   6.035 -0.1610 -0.3435 -0.2861
   95SAPS   HN1 9344   6.669   4.506   5.963 -1.3948 -2.6178 -0.1359
   95SAPS   HN2 9345   6.511   4.517   6.007  0.6255 -3.0898 -0.2636
   95SAPS   HN3 9346   6.598   4.651   6.028 -1.9512 -0.4208  0.1905
   95SAPS   C12 9347   6.622   4.499   6.177 -0.1599  0.3459 -0.6338
   95SAPS  H12A 9348   6.627   4.391   6.179 -0.0317  0.3231 -1.6820
   95SAPS   C13 9349   6.745   4.552   6.255 -0.2052  0.0836  0.1881
   95SAPS  O13A 9350   6.816   4.643   6.204  0.5251  0.1533  0.2136
   95SAPS  O13B 9351   6.767   4.500   6.364 -0.1422  0.0133  0.2928
   95SAPS   C11 9352   6.493   4.545   6.253  0.0217  0.1572 -0.4684
   95SAPS  H11A 9353   6.498   4.511   6.358  4.7083 -0.1184 -0.5906
   95SAPS  H11B 9354   6.408   4.493   6.204 -0.5607  0.4038  0.2484
   95SAPS     P 9355   6.325   4.747   6.274 -0.0521  0.1947  0.4243
   95SAPS   O13 9356   6.348   4.871   6.351 -0.0311 -0.5434  0.2657
   95SAPS   O14 9357   6.247   4.759   6.152  0.8286 -0.6842  0.2680
   95SAPS   O12 9358   6.470   4.690   6.241  0.0835  0.5112 -0.0403
   95SAPS   O11 9359   6.257   4.642   6.368  0.3842 -0.4811  0.1069
   95SAPS    C1 9360   6.225   4.673   6.506  0.7094  0.7836  0.0854
   95SAPS    HA 9361   6.206   4.779   6.533  1.4976  0.7901  0.6627
   95SAPS    HB 9362   6.127   4.630   6.535  1.3050  1.4394  3.4574
   95SAPS    C2 9363   6.339   4.618   6.596  0.2237  0.0238  0.1270
   95SAPS    HS 9364   6.436   4.658   6.559 -0.3384  0.4016 -0.9767
   95SAPS   O21 9365   6.330   4.475   6.611 -0.3044  0.2041 -0.0923
   95SAPS   C21 9366   6.446   4.426   6.653 -0.2611 -0.4177 -0.3786
   95SAPS   O22 9367   6.550   4.489   6.659 -0.1151 -0.4955  0.3568
   95SAPS   C22 9368   6.416   4.279   6.689 -0.4730 -0.4842 -0.4112
   95SAPS   H2R 9369   6.320   4.288   6.745 -1.9749 -1.8442 -2.6117
   95SAPS   H2S 9370   6.381   4.229   6.597 -0.2985  1.5444 -1.6398
   95SAPS    C3 9371   6.322   4.678   6.735 -0.2130  0.2435 -0.0919
   95SAPS    HX 9372   6.386   4.623   6.807 -1.9435  1.5630  2.5943
   95SAPS    HY 9373   6.215   4.666   6.762 -0.0163 -1.7859 -0.0768
   95SAPS   O31 9374   6.334   4.822   6.728 -0.3626 -0.1650 -0.1783
   95SAPS   C31 9375   6.446   4.884   6.733 -0.3699  0.9486 -0.3692
   95SAPS   O32 9376   6.554   4.827   6.708  0.2192 -0.2460  0.5925
   95SAPS   C32 9377   6.417   5.027   6.775 -0.0855 -0.4722 -1.1697
   95SAPS   H2X 9378   6.307   5.043   6.763 -0.5014 -1.9690  0.2946
   95SAPS   H2Y 9379   6.473   5.100   6.712 -0.1980 -0.3793 -1.1629
   95SAPS   C23 9380   6.533   4.213   6.762 -0.1086 -0.3348  0.5943
   95SAPS   H3R 9381   6.556   4.274   6.852  0.4488 -0.8378  0.8040
   95SAPS   H3S 9382   6.620   4.203   6.693  1.1813  0.4614  2.0325
   95SAPS   C24 9383   6.502   4.074   6.817  0.3092  0.2005  0.2981
   95SAPS   H4R 9384   6.479   4.004   6.735  1.5415 -0.9189  0.8815
   95SAPS   H4S 9385   6.407   4.088   6.874  0.4754  0.7901  0.4386
   95SAPS   C25 9386   6.611   4.017   6.904 -1.2784  0.5086 -0.5215
   95SAPS   H5R 9387   6.696   3.978   6.844 -0.9196 -0.5231  0.6049
   95SAPS   C26 9388   6.627   4.027   7.037 -0.2907  1.0993 -0.7208
   95SAPS   H6R 9389   6.702   3.958   7.078  2.2857  4.0552 -0.1093
   95SAPS   C27 9390   6.533   4.100   7.137 -0.1969  0.3640  0.3093
   95SAPS   H7R 9391   6.451   4.028   7.155  1.2357 -1.6085 -0.5631
   95SAPS   H7S 9392   6.488   4.184   7.080  2.6362 -0.0157 -2.8064
   95SAPS   C28 9393   6.602   4.141   7.258 -0.0900 -0.1439  0.0142
   95SAPS   H8R 9394   6.711   4.152   7.257 -0.1153  0.8948  2.1283
   95SAPS   C29 9395   6.553   4.184   7.369 -0.0520 -0.3375  0.2058
   95SAPS   H9R 9396   6.624   4.211   7.449 -2.4070  0.2949  2.2221
   95SAPS  C210 9397   6.411   4.193   7.420  0.8919 -0.0921  0.2993
   95SAPS  H10R 9398   6.385   4.129   7.506 -1.2915 -0.1652 -0.3707
   95SAPS  H10S 9399   6.343   4.157   7.340  0.3470 -2.6557  1.8301
   95SAPS  C211 9400   6.389   4.341   7.462 -0.2531 -0.1925  0.4256
   95SAPS  H11R 9401   6.385   4.408   7.375 -1.3189 -2.8010 -1.6717
   95SAPS  C212 9402   6.365   4.395   7.581 -0.3228 -0.6875 -0.2324
   95SAPS  H12R 9403   6.372   4.504   7.597 -0.6406 -0.9983  2.5343
   95SAPS  C213 9404   6.353   4.316   7.705 -0.3032  0.3807  0.2355
   95SAPS  H13R 9405   6.394   4.372   7.791  1.3807  1.5283 -1.2498
   95SAPS  H13S 9406   6.407   4.219   7.699 -0.1805  0.2524  2.5909
   95SAPS  C214 9407   6.205   4.299   7.745  0.2178  0.4408  0.8391
   95SAPS  H14R 9408   6.139   4.291   7.657  2.0072  1.2967 -0.6454
   95SAPS  C215 9409   6.143   4.293   7.866 -0.2603 -0.3149  0.4477
   95SAPS  H15R 9410   6.034   4.279   7.870 -0.3179  0.2470  0.8931
   95SAPS  C216 9411   6.215   4.309   7.999 -0.4524 -0.3508 -0.3796
   95SAPS  H16R 9412   6.324   4.306   7.978 -0.3083 -0.1575  0.3134
   95SAPS  H16S 9413   6.199   4.230   8.076 -0.0699  2.1746  2.4713
   95SAPS  C217 9414   6.175   4.446   8.071  0.0600  0.1005 -0.7836
   95SAPS  H17R 9415   6.214   4.423   8.173  1.1563 -0.7588 -1.3734
   95SAPS  H17S 9416   6.065   4.440   8.085 -0.0186 -0.6444 -1.6205
   95SAPS  C218 9417   6.235   4.571   8.020  0.4189 -0.4431  0.2841
   95SAPS  H18R 9418   6.186   4.609   7.927 -1.3496 -1.7207  0.6299
   95SAPS  H18S 9419   6.340   4.541   8.000  0.5820 -1.2421  2.1452
   95SAPS  C219 9420   6.242   4.680   8.136 -0.1159 -0.3148  0.4324
   95SAPS  H19R 9421   6.339   4.734   8.138 -0.2185 -0.1242  0.2193
   95SAPS  H19S 9422   6.258   4.623   8.231 -1.3929 -0.9595  0.2830
   95SAPS  C220 9423   6.115   4.764   8.137  0.3796  0.2662  0.3282
   95SAPS  H20R 9424   6.088   4.799   8.035 -0.5639 -0.8734  0.1605
   95SAPS  H20S 9425   6.141   4.853   8.198  0.8889  0.8353 -0.7099
   95SAPS  H20T 9426   6.025   4.710   8.174 -0.8612  0.8950 -1.6210
   95SAPS   C33 9427   6.458   5.064   6.920 -0.5217 -0.4779 -0.0225
   95SAPS   H3X 9428   6.453   5.175   6.924 -0.9520 -0.3298 -2.8267
   95SAPS   H3Y 9429   6.561   5.026   6.935 -0.8265 -0.6700  1.8187
   95SAPS   C34 9430   6.371   5.006   7.029 -0.9713  0.0885 -0.3681
   95SAPS   H4X 9431   6.382   4.895   7.029 -0.1675  0.1636 -0.2996
   95SAPS   H4Y 9432   6.267   5.037   7.004 -0.4064  1.8136 -0.7009
   95SAPS   C35 9433   6.396   5.058   7.171 -0.8199 -0.7116  0.1206
   95SAPS   H5X 9434   6.396   5.168   7.177 -1.7159 -0.7861  3.6423
   95SAPS   H5Y 9435   6.494   5.015   7.203 -0.9224 -1.4453 -0.4989
   95SAPS   C36 9436   6.290   5.011   7.274 -0.6659 -0.5849 -0.7485
   95SAPS   H6X 9437   6.322   4.916   7.320  1.8452  0.3780 -0.3478
   95SAPS   H6Y 9438   6.189   4.989   7.233 -1.1920  1.2351 -0.5462
   95SAPS   C37 9439   6.287   5.109   7.395 -0.1598 -0.1529  0.2946
   95SAPS   H7X 9440   6.252   5.209   7.361 -1.7786 -1.7379 -3.2217
   95SAPS   H7Y 9441   6.389   5.108   7.439 -0.9154 -2.7401  2.2550
   95SAPS   C38 9442   6.193   5.055   7.505 -1.0486 -0.0355 -0.6341
   95SAPS   H8X 9443   6.230   4.960   7.550 -0.1521  0.0285 -1.2198
   95SAPS   H8Y 9444   6.093   5.039   7.458 -0.7841  0.5376 -1.4138
   95SAPS   C39 9445   6.190   5.154   7.626  0.4752 -0.0509 -0.2065
   95SAPS   H9X 9446   6.159   5.255   7.593  2.0539  0.3104 -0.7065
   95SAPS   H9Y 9447   6.293   5.157   7.669  0.8316 -1.9910 -0.8202
   95SAPS  C310 9448   6.085   5.120   7.739 -0.5088  0.2231 -0.8310
   95SAPS  H10X 9449   6.095   5.017   7.780  0.3085  1.3552  2.0560
   95SAPS  H10Y 9450   5.983   5.137   7.697 -0.9161  0.5244  0.2529
   95SAPS  C311 9451   6.098   5.207   7.863  0.9635  0.2960  1.8364
   95SAPS  H11X 9452   6.111   5.314   7.837  3.3609  0.2097  2.4268
   95SAPS  H11Y 9453   6.193   5.171   7.909  2.2424 -1.6469 -1.9546
   95SAPS  C312 9454   5.978   5.187   7.953  0.2975 -0.8878  0.4053
   95SAPS  H12X 9455   5.977   5.079   7.982  0.7829 -0.5407  1.7966
   95SAPS  H12Y 9456   5.886   5.225   7.904 -0.0042 -2.3327 -0.2143
   95SAPS  C313 9457   5.987   5.257   8.095 -0.6312 -0.0639  0.2153
   95SAPS  H13X 9458   5.890   5.239   8.146  0.9734 -1.3963  3.0620
   95SAPS  H13Y 9459   5.995   5.366   8.075  0.8032 -0.0139  0.8945
   95SAPS  C314 9460   6.097   5.202   8.184 -0.9517 -0.1927 -0.2436
   95SAPS  H14X 9461   6.192   5.222   8.130 -0.0592 -0.9229  1.0049
   95SAPS  H14Y 9462   6.089   5.093   8.205 -1.4661 -0.1811 -0.3654
   95SAPS  C315 9463   6.121   5.270   8.316 -0.0904 -0.2622  0.0023
   95SAPS  H15X 9464   6.171   5.369   8.306  1.0296 -0.2990  3.6653
   95SAPS  H15Y 9465   6.190   5.208   8.378 -0.4745  0.9420  1.6938
   95SAPS  C316 9466   5.986   5.292   8.383 -0.5249  0.4138 -0.1305
   95SAPS  H16X 9467   5.921   5.202   8.386  3.6833 -3.0088 -0.0761
   95SAPS  H16Y 9468   5.935   5.378   8.335 -0.3931  0.8062  0.4247
   95SAPS  C317 9469   5.997   5.332   8.523 -0.1522 -0.1025 -0.3085
   95SAPS  H17X 9470   6.021   5.244   8.586  0.0106 -0.3221 -0.6729
   95SAPS  H17Y 9471   5.889   5.346   8.546 -0.2391  1.0636 -1.3000
   95SAPS  C318 9472   6.084   5.452   8.561  0.5277 -0.1570  0.3007
   95SAPS  H18X 9473   6.059   5.549   8.513 -0.3660  0.1044  1.2483
   95SAPS  H18Y 9474   6.192   5.427   8.559  0.8123  1.0028  0.0314
   95SAPS  H18Z 9475   6.066   5.479   8.667 -0.0033  0.1478  0.1348
   96SAPS     N 9476   1.326   6.450   6.123  0.0188  0.4292  0.4103
   96SAPS   HN1 9477   1.226   6.476   6.111 -0.9430 -2.9205  0.2588
   96SAPS   HN2 9478   1.385   6.523   6.169 -0.0991 -0.5867  2.2507
   96SAPS   HN3 9479   1.376   6.441   6.032  0.0314  0.6008  0.3983
   96SAPS   C12 9480   1.346   6.324   6.195  0.1271  0.1876 -0.0737
   96SAPS  H12A 9481   1.394   6.338   6.291 -0.0612 -2.4698  0.4977
   96SAPS   C13 9482   1.210   6.235   6.228 -0.6973  0.3949 -0.2599
   96SAPS  O13A 9483   1.104   6.295   6.211 -0.5200  0.6018 -0.2632
   96SAPS  O13B 9484   1.228   6.152   6.319 -0.1321  0.2799  0.0072
   96SAPS   C11 9485   1.431   6.229   6.105 -0.2528  0.6457 -0.0532
   96SAPS  H11A 9486   1.371   6.212   6.014 -1.8016  1.8170  0.6944
   96SAPS  H11B 9487   1.436   6.129   6.153 -1.9563  0.3727 -0.4155
   96SAPS     P 9488   1.683   6.279   6.155  0.4225  0.3911 -0.0727
   96SAPS   O13 9489   1.741   6.142   6.151  0.2645  0.0061  0.1637
   96SAPS   O14 9490   1.775   6.390   6.117  0.1795 -0.4463 -0.6548
   96SAPS   O12 9491   1.556   6.285   6.066  0.2117  0.0575 -0.5648
   96SAPS   O11 9492   1.629   6.305   6.303 -0.1508 -1.2781  0.1701
   96SAPS    C1 9493   1.662   6.422   6.373 -1.1527  0.1629 -0.2462
   96SAPS    HA 9494   1.754   6.471   6.336 -0.0775 -1.0571  0.7124
   96SAPS    HB 9495   1.579   6.490   6.345 -0.3884  1.0343 -0.4579
   96SAPS    C2 9496   1.660   6.405   6.535 -0.1332  0.3228 -0.1671
   96SAPS    HS 9497   1.615   6.487   6.595  0.0508 -0.9727  1.8521
   96SAPS   O21 9498   1.799   6.378   6.576 -0.2481 -0.4696  0.3707
   96SAPS   C21 9499   1.858   6.482   6.627 -0.0304  0.2747 -0.0189
   96SAPS   O22 9500   1.820   6.596   6.617 -0.4411  0.1153  0.7725
   96SAPS   C22 9501   1.988   6.439   6.686 -0.8217  0.1870 -0.4037
   96SAPS   H2R 9502   2.047   6.378   6.615  1.6791  1.0817  0.7794
   96SAPS   H2S 9503   2.037   6.539   6.690 -1.8856  0.7446 -0.7729
   96SAPS    C3 9504   1.568   6.290   6.588 -0.1095  0.6065  0.7509
   96SAPS    HX 9505   1.623   6.197   6.561  1.1912  1.6555 -0.3176
   96SAPS    HY 9506   1.475   6.271   6.529 -0.7201  0.0181  1.8667
   96SAPS   O31 9507   1.541   6.290   6.738 -0.6571  0.7335  1.0805
   96SAPS   C31 9508   1.427   6.345   6.771  0.3007 -0.4590  0.4265
   96SAPS   O32 9509   1.365   6.423   6.700 -0.0067 -1.1302 -0.4745
   96SAPS   C32 9510   1.409   6.316   6.917  0.7144  0.1311 -0.3968
   96SAPS   H2X 9511   1.475   6.231   6.943  0.5182  0.7710  2.6308
   96SAPS   H2Y 9512   1.302   6.295   6.935  1.1776 -2.1156 -0.0074
   96SAPS   C23 9513   1.953   6.377   6.824  0.0473  0.4261  0.5823
   96SAPS   H3R 9514   2.042   6.323   6.864 -0.8880 -0.5171  1.4310
   96SAPS   H3S 9515   1.873   6.301   6.814  0.7287 -0.1253 -1.0811
   96SAPS   C24 9516   1.907   6.473   6.932  0.1004 -0.6650 -0.7942
   96SAPS   H4R 9517   1.881   6.404   7.015  0.5449  0.2283  0.1107
   96SAPS   H4S 9518   1.823   6.535   6.895  0.0053  0.6336  1.4433
   96SAPS   C25 9519   2.007   6.575   6.975 -0.0127 -0.1893  0.7253
   96SAPS   H5R 9520   2.032   6.651   6.899 -3.2122  1.0452  0.7370
   96SAPS   C26 9521   2.066   6.593   7.090 -0.2483  0.1488 -0.4573
   96SAPS   H6R 9522   2.136   6.676   7.106 -1.2296  0.4512  3.0212
   96SAPS   C27 9523   2.035   6.518   7.218  0.0234  0.0275  1.0552
   96SAPS   H7R 9524   2.126   6.461   7.245 -0.8762 -1.0418  1.8987
   96SAPS   H7S 9525   1.951   6.446   7.209 -1.8001  1.9755  1.6511
   96SAPS   C28 9526   1.996   6.619   7.324  0.0402  0.3735 -0.3770
   96SAPS   H8R 9527   1.889   6.643   7.330 -0.2093 -1.0023  2.6397
   96SAPS   C29 9528   2.079   6.675   7.412  0.6909 -0.3451 -0.3620
   96SAPS   H9R 9529   2.036   6.742   7.488 -0.6285 -0.0431 -1.3568
   96SAPS  C210 9530   2.228   6.655   7.420  1.1688 -0.5516  0.8429
   96SAPS  H10R 9531   2.258   6.628   7.316 -0.8049 -1.4078  0.4603
   96SAPS  H10S 9532   2.243   6.568   7.487 -1.4627 -0.6310  1.4309
   96SAPS  C211 9533   2.300   6.773   7.477 -0.6021 -0.3659 -0.4686
   96SAPS  H11R 9534   2.310   6.855   7.406  0.3645 -0.7269 -0.7679
   96SAPS  C212 9535   2.355   6.788   7.598 -0.4603  0.4072 -0.3347
   96SAPS  H12R 9536   2.405   6.884   7.618 -3.4106  2.0570 -0.3819
   96SAPS  C213 9537   2.353   6.687   7.710  0.1744 -0.7884  0.7149
   96SAPS  H13R 9538   2.444   6.711   7.770 -0.4037 -1.2953  1.8298
   96SAPS  H13S 9539   2.368   6.584   7.673 -2.8819 -1.3525  0.8368
   96SAPS  C214 9540   2.242   6.700   7.810  0.2225 -0.0534  0.1697
   96SAPS  H14R 9541   2.148   6.737   7.766  0.9492  0.5706 -0.8904
   96SAPS  C215 9542   2.247   6.660   7.938 -0.2349  0.4835  0.1995
   96SAPS  H15R 9543   2.153   6.669   7.994  0.4998  0.3464  1.4880
   96SAPS  C216 9544   2.364   6.609   8.027  0.0681 -0.0462 -0.2181
   96SAPS  H16R 9545   2.454   6.672   8.009  0.6302 -1.3257 -2.1349
   96SAPS  H16S 9546   2.399   6.507   8.003 -0.6384 -0.7618  1.6837
   96SAPS  C217 9547   2.338   6.605   8.183  0.9086  0.3509 -0.0653
   96SAPS  H17R 9548   2.435   6.590   8.236 -0.3463  0.2024  2.3564
   96SAPS  H17S 9549   2.269   6.521   8.207  1.7762 -0.5993 -0.8185
   96SAPS  C218 9550   2.275   6.737   8.240  0.2015  0.2039 -0.0738
   96SAPS  H18R 9551   2.170   6.740   8.203 -1.2901 -3.2029  3.2323
   96SAPS  H18S 9552   2.330   6.820   8.192  0.5444  0.9499  1.5465
   96SAPS  C219 9553   2.281   6.740   8.394 -0.2225 -0.1063  0.4284
   96SAPS  H19R 9554   2.223   6.652   8.429 -3.0039  1.2909 -0.3729
   96SAPS  H19S 9555   2.227   6.826   8.440 -0.9548 -0.1954 -0.2469
   96SAPS  C220 9556   2.427   6.755   8.450 -0.2716  0.2567  0.0362
   96SAPS  H20R 9557   2.427   6.746   8.560 -0.4054 -2.6933 -0.1437
   96SAPS  H20S 9558   2.471   6.853   8.420 -1.4887  0.3809 -1.4873
   96SAPS  H20T 9559   2.492   6.680   8.401 -2.6152 -1.4479 -0.6087
   96SAPS   C33 9560   1.456   6.446   6.993  0.2541  0.3619 -0.1376
   96SAPS   H3X 9561   1.374   6.521   6.982  1.3860  1.8460  1.1733
   96SAPS   H3Y 9562   1.546   6.481   6.940 -0.4149  2.9928  0.3345
   96SAPS   C34 9563   1.483   6.429   7.143  0.0322 -0.1541  0.1227
   96SAPS   H4X 9564   1.553   6.343   7.156  1.0333  0.8424  1.6465
   96SAPS   H4Y 9565   1.384   6.395   7.181  0.6566 -0.8231  1.2320
   96SAPS   C35 9566   1.530   6.555   7.220 -0.7309 -0.0480  0.0407
   96SAPS   H5X 9567   1.441   6.622   7.213 -1.0382 -0.5792 -1.7753
   96SAPS   H5Y 9568   1.609   6.606   7.162 -1.1859  0.9973  0.3201
   96SAPS   C36 9569   1.564   6.516   7.362  1.1012 -0.6304  0.0077
   96SAPS   H6X 9570   1.661   6.473   7.394  2.1471  1.8049  0.2841
   96SAPS   H6Y 9571   1.483   6.447   7.396  0.8763 -0.6677 -0.5785
   96SAPS   C37 9572   1.556   6.636   7.465 -0.4404 -0.0560  0.6317
   96SAPS   H7X 9573   1.448   6.663   7.461 -0.0135  1.6265 -0.9108
   96SAPS   H7Y 9574   1.622   6.714   7.420  0.9735 -1.9979 -0.8280
   96SAPS   C38 9575   1.598   6.620   7.611  0.0533  0.6499  0.6128
   96SAPS   H8X 9576   1.538   6.535   7.650  0.9866 -0.7622 -0.8531
   96SAPS   H8Y 9577   1.589   6.712   7.672 -1.4913  0.1126  1.2297
   96SAPS   C39 9578   1.757   6.591   7.623 -0.2113 -0.1848  0.0288
   96SAPS   H9X 9579   1.810   6.677   7.575 -0.3089 -0.7287 -1.0722
   96SAPS   H9Y 9580   1.776   6.493   7.575 -1.9526 -0.9000  0.7060
   96SAPS  C310 9581   1.793   6.570   7.775 -0.4434  0.2401 -0.4381
   96SAPS  H10X 9582   1.701   6.544   7.832 -1.2546  0.8957 -1.4020
   96SAPS  H10Y 9583   1.827   6.665   7.821 -0.3605 -1.0695  2.4251
   96SAPS  C311 9584   1.906   6.464   7.807  0.6904  0.1427  0.2815
   96SAPS  H11X 9585   1.997   6.514   7.769 -0.7219  2.5553 -0.1515
   96SAPS  H11Y 9586   1.881   6.372   7.749 -0.9080  1.5013 -1.3202
   96SAPS  C312 9587   1.924   6.430   7.953  0.3665 -0.2505 -0.3645
   96SAPS  H12X 9588   1.923   6.524   8.012 -0.5257 -0.9495  0.7982
   96SAPS  H12Y 9589   2.023   6.382   7.971  0.3039  0.3374  1.8079
   96SAPS  C313 9590   1.827   6.336   8.022  0.6690 -0.1638  0.5488
   96SAPS  H13X 9591   1.842   6.230   7.993  3.3201  0.2270  0.2583
   96SAPS  H13Y 9592   1.720   6.361   8.001  0.7224 -0.1838  0.2415
   96SAPS  C314 9593   1.859   6.318   8.171  0.0362 -0.2958  0.3791
   96SAPS  H14X 9594   1.913   6.408   8.209  1.0323 -0.0265 -1.5785
   96SAPS  H14Y 9595   1.931   6.234   8.183 -0.3466 -0.9086 -1.4406
   96SAPS  C315 9596   1.733   6.287   8.252  0.6234  0.0406  0.1107
   96SAPS  H15X 9597   1.695   6.192   8.209  0.9829  1.5240 -3.8972
   96SAPS  H15Y 9598   1.657   6.366   8.238  1.2150  0.2149 -2.6975
   96SAPS  C316 9599   1.750   6.279   8.402 -0.6563  0.1744 -0.7766
   96SAPS  H16X 9600   1.793   6.374   8.441  2.9515  0.0983 -3.9766
   96SAPS  H16Y 9601   1.828   6.202   8.421 -1.8795 -0.9767 -0.2159
   96SAPS  C317 9602   1.619   6.261   8.482 -0.4752  0.3330  0.2983
   96SAPS  H17X 9603   1.541   6.324   8.434  0.1348 -0.6994 -2.2287
   96SAPS  H17Y 9604   1.644   6.301   8.583  1.2777  1.1493 -0.4070
   96SAPS  C318 9605   1.583   6.115   8.486 -0.4711 -0.1810 -0.0179
   96SAPS  H18X 9606   1.578   6.063   8.389 -0.0042  0.8214 -0.5967
   96SAPS  H18Y 9607   1.486   6.099   8.538  0.1674 -0.7826  1.0249
   96SAPS  H18Z 9608   1.655   6.063   8.552 -1.1132 -0.3738  0.5514
   97SAPS     N 9609   0.239   4.541   6.314  0.1741  0.5891 -0.1799
   97SAPS   HN1 9610   0.312   4.615   6.313 -0.0665  0.8306 -0.1205
   97SAPS   HN2 9611   0.153   4.590   6.280  0.9086  2.2788  0.2747
   97SAPS   HN3 9612   0.227   4.512   6.413 -1.2840  3.8258  0.7452
   97SAPS   C12 9613   0.264   4.420   6.239 -0.2994  0.6329  0.4316
   97SAPS  H12A 9614   0.183   4.349   6.247  1.7345 -1.9800 -0.3971
   97SAPS   C13 9615   0.294   4.432   6.087 -0.4723  0.1437 -1.0358
   97SAPS  O13A 9616   0.285   4.542   6.029  0.2123  0.1314  0.3957
   97SAPS  O13B 9617   0.316   4.330   6.031 -0.2269  0.6550  0.2431
   97SAPS   C11 9618   0.389   4.357   6.295 -0.0062 -0.3599  0.1468
   97SAPS  H11A 9619   0.472   4.431   6.305  0.2975 -0.3056 -2.1973
   97SAPS  H11B 9620   0.426   4.277   6.227 -0.3100 -1.2557  1.0181
   97SAPS     P 9621   0.317   4.150   6.427 -0.2986 -0.0560 -0.0452
   97SAPS   O13 9622   0.184   4.139   6.369  0.3656  0.7118  0.1065
   97SAPS   O14 9623   0.419   4.074   6.361 -0.2078 -0.0969 -0.1873
   97SAPS   O12 9624   0.362   4.300   6.424  0.1993  0.2244 -0.2868
   97SAPS   O11 9625   0.316   4.120   6.581 -0.0154 -0.5119  0.6662
   97SAPS    C1 9626   0.208   4.162   6.666  0.6034 -0.1133 -0.0633
   97SAPS    HA 9627   0.217   4.269   6.696  0.1007  0.3680 -1.5099
   97SAPS    HB 9628   0.110   4.152   6.614  0.8109 -1.0087 -0.3057
   97SAPS    C2 9629   0.208   4.084   6.801 -0.8485 -0.3353 -0.5345
   97SAPS    HS 9630   0.108   4.093   6.848 -0.1113 -2.3395  1.6392
   97SAPS   O21 9631   0.314   4.127   6.895 -0.9527 -0.2857 -0.4336
   97SAPS   C21 9632   0.293   4.239   6.960  0.1417 -0.0360 -0.1266
   97SAPS   O22 9633   0.210   4.325   6.934  0.5636  0.2199 -0.3853
   97SAPS   C22 9634   0.403   4.243   7.070  0.3093  0.4190  0.0007
   97SAPS   H2R 9635   0.402   4.159   7.143  1.9637  0.6772  0.3603
   97SAPS   H2S 9636   0.502   4.245   7.020  1.1703  0.3207  1.6502
   97SAPS    C3 9637   0.226   3.934   6.769  0.2234 -0.3445 -1.1025
   97SAPS    HX 9638   0.319   3.904   6.716  1.2860  2.4340 -0.9672
   97SAPS    HY 9639   0.153   3.914   6.688  1.9092 -1.6170 -2.3946
   97SAPS   O31 9640   0.177   3.862   6.881  0.4866 -0.1372  0.3916
   97SAPS   C31 9641   0.279   3.795   6.938  0.2013 -0.2453  0.5099
   97SAPS   O32 9642   0.386   3.774   6.885 -0.5772 -0.4709  0.1416
   97SAPS   C32 9643   0.224   3.745   7.068  0.1810 -0.5261 -0.2653
   97SAPS   H2X 9644   0.239   3.635   7.072  1.7285 -0.3774 -1.0265
   97SAPS   H2Y 9645   0.116   3.769   7.066  0.6586  1.7923 -0.5509
   97SAPS   C23 9646   0.410   4.373   7.155  0.5963  0.1516  0.4428
   97SAPS   H3R 9647   0.385   4.456   7.086 -0.2233 -1.5550 -1.3905
   97SAPS   H3S 9648   0.513   4.384   7.196  1.3982 -2.3323 -0.7202
   97SAPS   C24 9649   0.301   4.378   7.263  0.0928  0.1003 -0.6493
   97SAPS   H4R 9650   0.199   4.345   7.233  0.4235 -0.9151 -0.6642
   97SAPS   H4S 9651   0.291   4.484   7.295 -0.0974  0.1791 -0.9603
   97SAPS   C25 9652   0.336   4.281   7.372 -0.6682 -0.0904  0.6106
   97SAPS   H5R 9653   0.394   4.193   7.343  1.4838  0.4968  2.8088
   97SAPS   C26 9654   0.294   4.291   7.499 -0.5644 -0.3226 -0.8770
   97SAPS   H6R 9655   0.330   4.215   7.571 -0.4860  1.0489  0.6067
   97SAPS   C27 9656   0.200   4.392   7.551  0.0736 -0.0224  0.2945
   97SAPS   H7R 9657   0.197   4.487   7.494 -0.6957 -0.0365  0.3086
   97SAPS   H7S 9658   0.230   4.409   7.657 -0.0513 -4.6599  1.2604
   97SAPS   C28 9659   0.051   4.353   7.550  0.0119  0.3974 -0.2779
   97SAPS   H8R 9660   0.020   4.292   7.463 -1.5388 -1.3991  1.4451
   97SAPS   C29 9661  -0.036   4.375   7.650  0.1802 -0.3707  0.3922
   97SAPS   H9R 9662  -0.140   4.340   7.643  0.7815 -2.2872  0.3503
   97SAPS  C210 9663  -0.000   4.443   7.782 -0.3625  0.0123  0.1053
   97SAPS  H10R 9664   0.059   4.534   7.758  0.8940 -0.0675  2.5887
   97SAPS  H10S 9665   0.061   4.372   7.842  1.1377  0.9643 -0.2347
   97SAPS  C211 9666  -0.128   4.478   7.863  0.6201  0.3145  0.3014
   97SAPS  H11R 9667  -0.223   4.501   7.812  0.9769  1.2680  0.0522
   97SAPS  C212 9668  -0.125   4.485   7.994 -0.0950  0.2641  0.4029
   97SAPS  H12R 9669  -0.220   4.501   8.048  1.5942 -0.0793  3.6818
   97SAPS  C213 9670  -0.006   4.469   8.083  0.7194 -0.2709 -0.1903
   97SAPS  H13R 9671   0.094   4.464   8.035  2.0907 -1.9131  2.5546
   97SAPS  H13S 9672  -0.008   4.382   8.152 -0.2517 -0.4827 -0.4816
   97SAPS  C214 9673   0.016   4.595   8.160  0.1354 -0.6820 -0.2718
   97SAPS  H14R 9674   0.054   4.676   8.096  0.8427  0.1383  1.1351
   97SAPS  C215 9675  -0.003   4.614   8.291  0.6332  0.7770 -0.1443
   97SAPS  H15R 9676   0.048   4.700   8.336  1.4841  0.7690 -1.0515
   97SAPS  C216 9677  -0.061   4.517   8.392 -0.1830 -0.1563  0.1565
   97SAPS  H16R 9678   0.014   4.449   8.437 -1.3199 -1.6986 -0.2168
   97SAPS  H16S 9679  -0.129   4.444   8.344 -1.1212  1.9330 -1.8732
   97SAPS  C217 9680  -0.137   4.593   8.494  0.0296 -0.3639 -0.0795
   97SAPS  H17R 9681  -0.220   4.646   8.444 -0.3739 -0.7926  0.1311
   97SAPS  H17S 9682  -0.080   4.673   8.546 -0.2857 -1.0102  1.3149
   97SAPS  C218 9683  -0.198   4.496   8.601  0.4533 -0.3725 -0.6562
   97SAPS  H18R 9684  -0.260   4.554   8.673  0.7447 -0.1081 -0.6173
   97SAPS  H18S 9685  -0.121   4.445   8.663  1.2508  1.0878 -0.3935
   97SAPS  C219 9686  -0.321   4.408   8.545 -0.8238  0.4707 -1.3182
   97SAPS  H19R 9687  -0.362   4.334   8.618 -1.8601  0.6643 -1.6880
   97SAPS  H19S 9688  -0.274   4.357   8.459 -0.3101 -0.8323 -0.3048
   97SAPS  C220 9689  -0.442   4.487   8.505  0.1269 -0.2512 -0.3813
   97SAPS  H20R 9690  -0.500   4.542   8.581  1.4132 -0.6007  0.8872
   97SAPS  H20S 9691  -0.517   4.419   8.458 -0.4168 -0.9523  1.4363
   97SAPS  H20T 9692  -0.414   4.562   8.428 -1.7591  0.1043 -0.7662
   97SAPS   C33 9693   0.299   3.820   7.188 -0.6411  0.7114  0.4812
   97SAPS   H3X 9694   0.270   3.927   7.180  0.3268  0.9987  0.7169
   97SAPS   H3Y 9695   0.407   3.803   7.168 -0.9967 -0.1877 -0.8034
   97SAPS   C34 9696   0.269   3.769   7.325  0.2502 -0.2003 -0.5413
   97SAPS   H4X 9697   0.317   3.675   7.357  2.6160  1.4560  1.1556
   97SAPS   H4Y 9698   0.161   3.745   7.334  0.5656 -1.3444  0.4913
   97SAPS   C35 9699   0.301   3.876   7.435 -0.1539 -0.0191 -0.9179
   97SAPS   H5X 9700   0.235   3.961   7.410 -0.4236 -0.2434 -0.9743
   97SAPS   H5Y 9701   0.407   3.904   7.418 -0.4972  0.9553 -1.5293
   97SAPS   C36 9702   0.283   3.824   7.570  0.0280  0.6825 -0.0315
   97SAPS   H6X 9703   0.364   3.757   7.606  1.0171  2.2874  0.8679
   97SAPS   H6Y 9704   0.183   3.777   7.586  0.4971 -0.1197  0.6241
   97SAPS   C37 9705   0.307   3.943   7.675 -0.5603 -0.2471 -0.2399
   97SAPS   H7X 9706   0.246   3.906   7.761  0.3100  0.7505  0.8467
   97SAPS   H7Y 9707   0.257   4.035   7.639 -1.1157  1.7840  4.8531
   97SAPS   C38 9708   0.456   3.971   7.713  0.4436 -0.4877 -0.3930
   97SAPS   H8X 9709   0.516   3.989   7.622  0.6925 -2.1976 -0.5939
   97SAPS   H8Y 9710   0.499   3.880   7.759 -1.4130 -0.9924  0.4591
   97SAPS   C39 9711   0.473   4.094   7.812  0.2409 -0.5936 -0.6250
   97SAPS   H9X 9712   0.439   4.183   7.754 -2.0070  1.1684  3.0295
   97SAPS   H9Y 9713   0.575   4.102   7.855 -1.1853  3.2559  2.6947
   97SAPS  C310 9714   0.378   4.094   7.935  0.4336  0.6579  0.1554
   97SAPS  H10X 9715   0.281   4.057   7.895 -0.2146 -0.7743  2.8080
   97SAPS  H10Y 9716   0.365   4.203   7.953 -1.7028  0.4707 -0.0295
   97SAPS  C311 9717   0.429   4.019   8.060  0.2307  0.7181 -0.6006
   97SAPS  H11X 9718   0.528   4.064   8.081 -0.1791  2.0747 -1.4123
   97SAPS  H11Y 9719   0.433   3.910   8.041 -0.0391  0.7233 -0.7007
   97SAPS  C312 9720   0.334   4.044   8.174  0.1928  0.0038 -0.3807
   97SAPS  H12X 9721   0.241   3.988   8.151 -0.4055  0.4015  0.9749
   97SAPS  H12Y 9722   0.299   4.149   8.176 -1.4940 -0.5093  2.3369
   97SAPS  C313 9723   0.398   4.013   8.308 -0.4482  0.0069 -0.4007
   97SAPS  H13X 9724   0.453   4.108   8.327  0.4495 -0.3929 -0.9502
   97SAPS  H13Y 9725   0.477   3.935   8.306 -0.1028  0.1333  2.5775
   97SAPS  C314 9726   0.300   3.967   8.410 -0.2128 -0.3173  0.3935
   97SAPS  H14X 9727   0.359   3.930   8.496 -0.4340  0.4653  0.8945
   97SAPS  H14Y 9728   0.252   3.876   8.367 -0.6541  0.9075 -1.8675
   97SAPS  C315 9729   0.191   4.067   8.436  0.0789  0.2667 -1.2088
   97SAPS  H15X 9730   0.143   4.115   8.347  2.3606  2.6382 -1.2910
   97SAPS  H15Y 9731   0.237   4.149   8.495  2.3642 -2.1224  0.5468
   97SAPS  C316 9732   0.084   4.010   8.534  0.1374  0.5612  0.3543
   97SAPS  H16X 9733   0.132   3.959   8.620  1.4868  3.0183  1.1477
   97SAPS  H16Y 9734   0.017   3.945   8.473  0.5609  1.9917 -1.7038
   97SAPS  C317 9735   0.014   4.131   8.595  0.3193  0.3733  0.3105
   97SAPS  H17X 9736  -0.024   4.206   8.522  1.8574  3.0217  2.0601
   97SAPS  H17Y 9737   0.092   4.188   8.649  2.9462  0.6635 -3.4289
   97SAPS  C318 9738  -0.106   4.082   8.686  0.0080 -0.7281 -0.1747
   97SAPS  H18X 9739  -0.060   4.043   8.779 -0.1212  1.9035  1.0850
   97SAPS  H18Y 9740  -0.174   4.004   8.645  0.5324 -0.6096 -1.3205
   97SAPS  H18Z 9741  -0.161   4.170   8.724 -0.0719 -0.5619 -0.6631
   98SAPS     N 9742   5.975   2.925   5.875 -0.1260 -0.0282 -0.2480
   98SAPS   HN1 9743   5.999   2.975   5.788  0.2712  0.8653  0.3624
   98SAPS   HN2 9744   6.054   2.861   5.898 -0.9177 -0.5050  1.3309
   98SAPS   HN3 9745   5.885   2.872   5.873 -0.3676  0.3691 -0.1160
   98SAPS   C12 9746   5.972   3.028   5.989  1.0103 -0.5712  0.0953
   98SAPS  H12A 9747   5.999   2.982   6.082 -2.2505  0.4497  1.7028
   98SAPS   C13 9748   6.074   3.143   5.972  0.0943  0.0683 -0.2859
   98SAPS  O13A 9749   6.138   3.145   5.869 -0.7744 -0.0706  0.7205
   98SAPS  O13B 9750   6.081   3.231   6.064 -0.0381  0.3020  0.0512
   98SAPS   C11 9751   5.827   3.079   5.998 -0.4874 -0.3868 -0.3381
   98SAPS  H11A 9752   5.813   3.134   5.903 -0.4154 -2.2530 -1.4638
   98SAPS  H11B 9753   5.811   3.144   6.087 -2.0970  1.1001 -1.6546
   98SAPS     P 9754   5.581   2.993   5.984 -0.0920  0.0450 -0.4864
   98SAPS   O13 9755   5.559   3.102   5.884  0.4804  0.1016 -0.3336
   98SAPS   O14 9756   5.505   2.863   5.967  0.2864  0.2023  0.6396
   98SAPS   O12 9757   5.739   2.966   6.000  0.2620  0.2109  0.4969
   98SAPS   O11 9758   5.543   3.055   6.131  0.2932  0.0038  0.0603
   98SAPS    C1 9759   5.593   3.001   6.253  0.4447 -0.2707  0.8658
   98SAPS    HA 9760   5.575   2.892   6.249 -0.5043 -0.1028 -0.6225
   98SAPS    HB 9761   5.703   3.006   6.262  0.3822 -2.3873  4.2423
   98SAPS    C2 9762   5.528   3.062   6.375  0.4278 -0.5742  0.7988
   98SAPS    HS 9763   5.419   3.051   6.357  0.4185  0.6834 -0.0384
   98SAPS   O21 9764   5.582   3.199   6.377  0.2222  0.7193  0.0905
   98SAPS   C21 9765   5.499   3.276   6.442 -0.2378 -0.2098  0.0638
   98SAPS   O22 9766   5.379   3.257   6.461 -0.5700  0.0545 -0.3398
   98SAPS   C22 9767   5.567   3.405   6.485 -0.6598  1.0900  0.9807
   98SAPS   H2R 9768   5.630   3.452   6.407  0.8926 -1.5346  0.5341
   98SAPS   H2S 9769   5.490   3.483   6.504 -0.1013  1.9586 -0.2297
   98SAPS    C3 9770   5.556   2.976   6.502 -0.8457  0.8747  0.4158
   98SAPS    HX 9771   5.664   2.982   6.525 -0.6974  1.6403 -0.4175
   98SAPS    HY 9772   5.527   2.870   6.493 -3.0499  1.5313 -0.9927
   98SAPS   O31 9773   5.492   3.040   6.619 -0.3838 -0.7776  0.1708
   98SAPS   C31 9774   5.355   3.011   6.631 -1.0701  0.2809 -0.0981
   98SAPS   O32 9775   5.294   2.950   6.541 -0.2276  0.1167  0.0090
   98SAPS   C32 9776   5.292   3.057   6.765  0.1195  1.0603  0.2072
   98SAPS   H2X 9777   5.212   3.126   6.731  1.0647  1.2934 -1.6623
   98SAPS   H2Y 9778   5.377   3.107   6.817  0.9640  0.0063 -0.1216
   98SAPS   C23 9779   5.652   3.382   6.610 -0.5283  0.0922 -0.4418
   98SAPS   H3R 9780   5.724   3.466   6.622 -1.7174  1.2942 -1.4089
   98SAPS   H3S 9781   5.717   3.293   6.600  0.3112  0.5465  0.7095
   98SAPS   C24 9782   5.555   3.371   6.727 -0.2888 -0.2448  0.3528
   98SAPS   H4R 9783   5.614   3.333   6.813  1.5410 -1.2002 -1.2526
   98SAPS   H4S 9784   5.473   3.300   6.699  1.7098 -2.1320 -1.1074
   98SAPS   C25 9785   5.488   3.499   6.769 -0.2707  0.0190 -0.4305
   98SAPS   H5R 9786   5.392   3.517   6.720 -0.3899 -1.0960 -0.6249
   98SAPS   C26 9787   5.529   3.579   6.870 -0.0111  0.7519 -1.0530
   98SAPS   H6R 9788   5.484   3.674   6.904 -0.9367 -0.5300  1.6138
   98SAPS   C27 9789   5.653   3.554   6.955 -0.2940 -0.3062  0.6096
   98SAPS   H7R 9790   5.732   3.503   6.896  0.8942  1.3454  0.6956
   98SAPS   H7S 9791   5.625   3.487   7.039 -1.3594  1.1605  1.4751
   98SAPS   C28 9792   5.722   3.674   7.023  0.3772 -0.1136 -0.1812
   98SAPS   H8R 9793   5.801   3.724   6.966  0.6648  0.4081  0.6542
   98SAPS   C29 9794   5.682   3.732   7.138 -0.4129 -0.0168  0.0033
   98SAPS   H9R 9795   5.760   3.800   7.176  0.5739 -0.3213 -1.3724
   98SAPS  C210 9796   5.576   3.679   7.235 -0.0364 -0.5358  0.7261
   98SAPS  H10R 9797   5.620   3.628   7.323  1.9933  1.1544  0.7610
   98SAPS  H10S 9798   5.513   3.599   7.191 -2.0765  1.9498 -1.1879
   98SAPS  C211 9799   5.476   3.778   7.281 -0.0590 -0.8504 -0.1751
   98SAPS  H11R 9800   5.397   3.789   7.205 -0.8681 -2.4248  0.4006
   98SAPS  C212 9801   5.483   3.867   7.387 -0.3138  0.6070 -0.0640
   98SAPS  H12R 9802   5.407   3.944   7.402  1.5153  2.0658  2.6465
   98SAPS  C213 9803   5.590   3.872   7.499 -0.4166 -0.5635  0.4847
   98SAPS  H13R 9804   5.566   3.965   7.555 -0.3430  0.8572 -1.6945
   98SAPS  H13S 9805   5.691   3.895   7.459 -0.4420  0.0912  0.7798
   98SAPS  C214 9806   5.605   3.752   7.585  1.1605  0.8739  0.2538
   98SAPS  H14R 9807   5.650   3.666   7.533 -1.3124 -0.5260  0.2240
   98SAPS  C215 9808   5.572   3.741   7.714  0.1072  0.1282 -0.4495
   98SAPS  H15R 9809   5.604   3.647   7.762  4.8949  0.0544 -3.1627
   98SAPS  C216 9810   5.494   3.848   7.784 -0.2054  0.1886  0.4650
   98SAPS  H16R 9811   5.465   3.931   7.716 -2.5517 -0.5854  0.4142
   98SAPS  H16S 9812   5.556   3.893   7.864 -2.0405  2.7918  0.5184
   98SAPS  C217 9813   5.356   3.792   7.839 -0.1248  0.0649 -0.3494
   98SAPS  H17R 9814   5.377   3.702   7.902 -1.0522  0.8686  1.1696
   98SAPS  H17S 9815   5.287   3.759   7.759 -0.9083  0.8466 -0.0169
   98SAPS  C218 9816   5.285   3.904   7.927 -1.1048  0.1575  0.0820
   98SAPS  H18R 9817   5.313   4.006   7.892 -0.1512  0.2525  1.0515
   98SAPS  H18S 9818   5.309   3.897   8.035 -1.6308  2.0715  0.3455
   98SAPS  C219 9819   5.138   3.883   7.929  0.5168 -0.1564  0.2400
   98SAPS  H19R 9820   5.097   3.872   7.826  0.1516 -1.4524  0.5060
   98SAPS  H19S 9821   5.093   3.978   7.966 -0.0483 -0.2357 -0.2333
   98SAPS  C220 9822   5.089   3.765   8.020 -0.6497  0.5772 -0.0891
   98SAPS  H20R 9823   4.980   3.744   8.011 -1.2054  2.4093  1.7013
   98SAPS  H20S 9824   5.119   3.774   8.127  0.6081  0.9376 -0.4531
   98SAPS  H20T 9825   5.134   3.670   7.985  0.9928  0.5581  1.8788
   98SAPS   C33 9826   5.223   2.940   6.841 -0.5671 -0.2392  0.0231
   98SAPS   H3X 9827   5.306   2.876   6.879 -0.4736 -0.0504  0.1394
   98SAPS   H3Y 9828   5.155   2.877   6.780 -0.1688 -0.3469 -0.3105
   98SAPS   C34 9829   5.147   2.978   6.971  0.5275  0.1366 -0.1998
   98SAPS   H4X 9830   5.081   2.891   6.993 -0.1895  0.3327 -1.4951
   98SAPS   H4Y 9831   5.072   3.057   6.950 -0.1541 -0.4990 -0.2390
   98SAPS   C35 9832   5.243   2.998   7.087  0.4574 -0.6152  0.7190
   98SAPS   H5X 9833   5.285   3.098   7.063  1.1996 -1.1929 -0.4952
   98SAPS   H5Y 9834   5.332   2.933   7.074 -1.0274 -2.9983  1.7537
   98SAPS   C36 9835   5.178   2.987   7.223 -0.1552 -0.4032  0.1447
   98SAPS   H6X 9836   5.134   2.887   7.245 -2.1589  0.8375  2.2613
   98SAPS   H6Y 9837   5.090   3.052   7.241  1.1787  1.4935  0.0394
   98SAPS   C37 9838   5.280   3.031   7.338  0.2734  0.6447  0.1396
   98SAPS   H7X 9839   5.285   3.142   7.335 -1.4438  0.7373 -0.2106
   98SAPS   H7Y 9840   5.384   2.998   7.321  0.2749  1.3921 -1.4242
   98SAPS   C38 9841   5.251   2.964   7.476 -0.6867 -0.4316  0.4454
   98SAPS   H8X 9842   5.238   2.856   7.457 -0.5025 -0.9473  2.8488
   98SAPS   H8Y 9843   5.161   3.007   7.526 -0.9287 -1.0718  0.5612
   98SAPS   C39 9844   5.364   2.994   7.578  0.5574  0.4295  0.7741
   98SAPS   H9X 9845   5.395   3.100   7.587  1.6300  0.3425 -1.3061
   98SAPS   H9Y 9846   5.459   2.949   7.540 -0.5098 -1.5030  0.2213
   98SAPS  C310 9847   5.319   2.935   7.712  0.4413 -0.2375  0.6059
   98SAPS  H10X 9848   5.277   2.833   7.705  1.1674 -0.8093  3.4275
   98SAPS  H10Y 9849   5.232   2.995   7.747 -0.1728  1.0956 -2.7608
   98SAPS  C311 9850   5.429   2.941   7.814 -0.5662 -0.4054 -0.1590
   98SAPS  H11X 9851   5.449   3.044   7.851 -1.7073 -1.1143  2.7412
   98SAPS  H11Y 9852   5.522   2.899   7.770 -0.7417 -0.3810 -0.5508
   98SAPS  C312 9853   5.408   2.856   7.937  0.2773 -0.1203  0.8100
   98SAPS  H12X 9854   5.426   2.750   7.912 -0.9434 -0.1592  0.0179
   98SAPS  H12Y 9855   5.302   2.864   7.969 -0.1394 -2.9549  0.3956
   98SAPS  C313 9856   5.497   2.891   8.057  0.7503 -0.5223 -0.1375
   98SAPS  H13X 9857   5.481   2.827   8.146  0.0160  1.3505  1.1283
   98SAPS  H13Y 9858   5.462   2.991   8.091 -5.9811 -3.4592  3.5291
   98SAPS  C314 9859   5.657   2.898   8.035  0.1811  0.2479 -0.0337
   98SAPS  H14X 9860   5.675   2.991   7.977  0.6873  0.9720  1.2450
   98SAPS  H14Y 9861   5.695   2.805   7.987 -2.3983 -1.1952  0.5023
   98SAPS  C315 9862   5.739   2.930   8.160  0.0505 -0.3300  0.8533
   98SAPS  H15X 9863   5.704   2.848   8.227  0.8848 -1.7141 -0.3439
   98SAPS  H15Y 9864   5.698   3.024   8.203 -1.3960 -0.1238 -0.8645
   98SAPS  C316 9865   5.892   2.945   8.151 -0.2128 -0.3463  0.5603
   98SAPS  H16X 9866   5.913   3.004   8.243 -1.9406  0.1607  0.6574
   98SAPS  H16Y 9867   5.935   3.006   8.068  0.5210 -0.0658  1.1338
   98SAPS  C317 9868   5.969   2.813   8.144  0.0088 -0.4248 -0.9532
   98SAPS  H17X 9869   6.059   2.838   8.084  0.9743 -0.2103  0.5376
   98SAPS  H17Y 9870   5.906   2.742   8.086  1.2410 -2.1700 -0.2407
   98SAPS  C318 9871   6.017   2.763   8.283  0.0310 -0.5654 -0.8461
   98SAPS  H18X 9872   5.928   2.736   8.344  0.3087 -1.2940 -0.7638
   98SAPS  H18Y 9873   6.079   2.842   8.331 -0.6916  0.8664 -2.1598
   98SAPS  H18Z 9874   6.063   2.664   8.262  0.0401  0.1258 -5.0746
   99SAPS     N 9875   4.610   1.131   5.756  0.2487 -0.4430 -0.6919
   99SAPS   HN1 9876   4.558   1.213   5.795 -3.2704 -2.5911 -0.4833
   99SAPS   HN2 9877   4.714   1.142   5.761  0.2244 -0.3825 -0.2510
   99SAPS   HN3 9878   4.581   1.129   5.656 -1.7529 -2.5434 -0.1369
   99SAPS   C12 9879   4.555   1.005   5.825  0.0200 -0.1094  0.8065
   99SAPS  H12A 9880   4.476   0.970   5.761 -1.3578  2.1134  1.1899
   99SAPS   C13 9881   4.642   0.881   5.824  0.0091  0.8876  0.4686
   99SAPS  O13A 9882   4.761   0.892   5.782  0.2325  0.5552  0.5430
   99SAPS  O13B 9883   4.606   0.786   5.898 -0.4025  0.5166  0.5820
   99SAPS   C11 9884   4.509   1.045   5.966  0.0499  0.8557  0.1949
   99SAPS  H11A 9885   4.603   1.047   6.026  1.7190  0.1450 -2.1937
   99SAPS  H11B 9886   4.460   0.949   5.993  2.6144 -1.4000 -2.3213
   99SAPS     P 9887   4.388   1.204   6.120 -0.4586  0.4944 -0.0120
   99SAPS   O13 9888   4.518   1.260   6.166  0.3097 -0.2578 -0.2001
   99SAPS   O14 9889   4.274   1.293   6.122 -0.1515 -0.1811  0.0933
   99SAPS   O12 9890   4.421   1.165   5.971 -0.5385 -0.5870 -0.1113
   99SAPS   O11 9891   4.358   1.061   6.181  0.1600  0.0560  0.0514
   99SAPS    C1 9892   4.234   1.034   6.236  0.3852 -0.2239  0.3777
   99SAPS    HA 9893   4.151   1.044   6.162  1.3322  0.3566 -0.6357
   99SAPS    HB 9894   4.229   0.927   6.265 -0.8103  0.1417  1.6740
   99SAPS    C2 9895   4.195   1.115   6.367  0.4415  0.0175  0.3427
   99SAPS    HS 9896   4.177   1.221   6.341 -0.2395  0.0638  0.9928
   99SAPS   O21 9897   4.302   1.096   6.461 -0.3193 -0.3417 -0.4333
   99SAPS   C21 9898   4.325   1.201   6.546 -0.5007 -0.3561 -0.0956
   99SAPS   O22 9899   4.277   1.313   6.534 -0.0093  0.0724  0.6726
   99SAPS   C22 9900   4.431   1.149   6.653  0.1406 -0.8711 -0.6131
   99SAPS   H2R 9901   4.527   1.133   6.599  0.0693  1.3875 -1.5492
   99SAPS   H2S 9902   4.457   1.221   6.734 -0.2133 -0.0417 -1.2238
   99SAPS    C3 9903   4.054   1.068   6.422 -0.3076  0.3910  0.0144
   99SAPS    HX 9904   4.070   0.961   6.445  1.3653  0.3900 -1.0348
   99SAPS    HY 9905   3.980   1.090   6.342  0.6668 -0.3485 -1.1176
   99SAPS   O31 9906   4.025   1.146   6.544 -0.2834  0.6113  0.7208
   99SAPS   C31 9907   3.948   1.256   6.520  0.6992  0.5822  0.6036
   99SAPS   O32 9908   3.944   1.315   6.412 -0.9120  0.5412  0.2170
   99SAPS   C32 9909   3.873   1.302   6.645 -0.6465  0.7591  0.5255
   99SAPS   H2X 9910   3.870   1.413   6.636  0.1075  0.6931 -0.8486
   99SAPS   H2Y 9911   3.925   1.265   6.736 -1.1192 -0.5551  0.2843
   99SAPS   C23 9912   4.393   1.016   6.716 -0.7221 -0.7192 -0.0246
   99SAPS   H3R 9913   4.490   0.975   6.750 -1.2722 -1.9003  0.1649
   99SAPS   H3S 9914   4.347   0.948   6.641  0.3578 -2.0693  0.4877
   99SAPS   C24 9915   4.295   1.021   6.838 -0.8360  0.0693  0.0402
   99SAPS   H4R 9916   4.319   0.935   6.903 -0.4941 -0.2151 -0.4520
   99SAPS   H4S 9917   4.193   0.992   6.803 -1.1177  1.5610 -0.4587
   99SAPS   C25 9918   4.308   1.136   6.937  0.2996 -0.7214  0.8631
   99SAPS   H5R 9919   4.408   1.181   6.932  0.4067 -0.7717  2.2262
   99SAPS   C26 9920   4.203   1.176   7.014 -0.5126  0.1085  0.3365
   99SAPS   H6R 9921   4.220   1.265   7.075 -0.0576 -0.8365  1.6353
   99SAPS   C27 9922   4.065   1.113   7.010  0.1091 -0.1937  0.5759
   99SAPS   H7R 9923   4.030   1.122   6.905  0.6826 -1.2187  0.2841
   99SAPS   H7S 9924   3.990   1.176   7.063 -1.4052 -1.1101 -0.3938
   99SAPS   C28 9925   4.062   0.966   7.061  0.2851  0.1136  0.8315
   99SAPS   H8R 9926   4.055   0.884   6.987  0.7363  1.7949 -1.1866
   99SAPS   C29 9927   4.055   0.932   7.187  0.8152 -0.3101 -0.5321
   99SAPS   H9R 9928   4.050   0.826   7.217  3.7687 -0.7428 -1.2818
   99SAPS  C210 9929   4.041   1.014   7.312 -0.1067  0.5986 -0.3238
   99SAPS  H10R 9930   3.933   1.039   7.317 -0.5683 -1.4441  2.0701
   99SAPS  H10S 9931   4.088   1.112   7.289 -0.2775  0.4413 -1.4075
   99SAPS  C211 9932   4.107   0.957   7.434  0.2273  1.0558  0.4941
   99SAPS  H11R 9933   4.034   0.926   7.511 -0.8747 -0.4181 -1.0638
   99SAPS  C212 9934   4.240   0.963   7.461 -0.8125  0.1750  0.4658
   99SAPS  H12R 9935   4.283   0.923   7.554 -0.5914  0.3653  0.4442
   99SAPS  C213 9936   4.338   1.030   7.370 -0.1826  0.2797  0.3884
   99SAPS  H13R 9937   4.332   1.140   7.378  2.7974  0.5408 -0.0876
   99SAPS  H13S 9938   4.323   1.001   7.263  3.3246  1.7151 -0.6338
   99SAPS  C214 9939   4.475   0.973   7.394  0.0304  0.6091 -0.3076
   99SAPS  H14R 9940   4.497   0.885   7.332  1.1083 -0.9664  2.1592
   99SAPS  C215 9941   4.575   1.022   7.469  0.1699  0.3284 -0.5388
   99SAPS  H15R 9942   4.663   0.955   7.470 -0.4659 -0.5406 -0.9720
   99SAPS  C216 9943   4.592   1.157   7.538 -0.7363 -0.4229 -0.1114
   99SAPS  H16R 9944   4.495   1.211   7.532 -0.3232  0.2651 -0.6389
   99SAPS  H16S 9945   4.669   1.217   7.485 -0.1555  0.6519  1.8667
   99SAPS  C217 9946   4.640   1.139   7.689  0.6437  0.1633  0.6029
   99SAPS  H17R 9947   4.673   1.232   7.739  2.1205 -0.9901  1.8366
   99SAPS  H17S 9948   4.728   1.072   7.683  0.5499  0.1373 -2.2731
   99SAPS  C218 9949   4.528   1.088   7.777  0.1166  0.6457 -0.3470
   99SAPS  H18R 9950   4.561   1.050   7.876 -0.9192  2.0486  0.5748
   99SAPS  H18S 9951   4.479   1.009   7.716  2.0169  0.0090 -1.1233
   99SAPS  C219 9952   4.424   1.195   7.812  0.9127 -0.6008  0.0084
   99SAPS  H19R 9953   4.404   1.255   7.721  1.4509  0.1970  0.4157
   99SAPS  H19S 9954   4.471   1.268   7.881 -1.4052  0.7763  0.2544
   99SAPS  C220 9955   4.300   1.124   7.882 -0.3865  0.5476 -0.6250
   99SAPS  H20R 9956   4.217   1.196   7.901  0.4919  0.9236  2.2614
   99SAPS  H20S 9957   4.328   1.071   7.976  1.4477  0.3991 -1.2200
   99SAPS  H20T 9958   4.263   1.060   7.800  2.2310 -0.8991 -0.7924
   99SAPS   C33 9959   3.726   1.248   6.635  0.2025  0.5634 -0.6628
   99SAPS   H3X 9960   3.732   1.139   6.653  2.3710  1.0326  2.2401
   99SAPS   H3Y 9961   3.681   1.268   6.535 -1.4014  0.3940 -0.0039
   99SAPS   C34 9962   3.622   1.303   6.735 -0.3390  0.0471 -0.1707
   99SAPS   H4X 9963   3.537   1.231   6.741 -1.0314  0.8899  0.5483
   99SAPS   H4Y 9964   3.586   1.397   6.689  1.1672 -0.1108 -1.7528
   99SAPS   C35 9965   3.687   1.328   6.878  0.1590 -0.3177  0.2207
   99SAPS   H5X 9966   3.758   1.413   6.871 -0.0328 -0.1813 -0.0966
   99SAPS   H5Y 9967   3.751   1.239   6.900  0.4425  0.2101  1.6205
   99SAPS   C36 9968   3.586   1.356   6.985  0.0546 -1.1327 -0.4935
   99SAPS   H6X 9969   3.515   1.271   6.996  0.7452 -2.0962 -2.8387
   99SAPS   H6Y 9970   3.546   1.456   6.960  0.3074 -1.1595 -1.0273
   99SAPS   C37 9971   3.647   1.377   7.125 -0.2126  0.2859 -0.6605
   99SAPS   H7X 9972   3.725   1.456   7.122  0.9865 -0.6086  2.7430
   99SAPS   H7Y 9973   3.715   1.293   7.147  1.7357  1.8090 -0.6044
   99SAPS   C38 9974   3.539   1.386   7.229 -0.0821 -0.7551  0.2254
   99SAPS   H8X 9975   3.460   1.310   7.210 -0.0719 -0.2819 -1.8961
   99SAPS   H8Y 9976   3.483   1.477   7.199 -0.1871 -0.5642  0.9684
   99SAPS   C39 9977   3.595   1.373   7.373  0.0759 -0.0267 -0.0683
   99SAPS   H9X 9978   3.680   1.445   7.374 -0.6705  0.9275 -1.3424
   99SAPS   H9Y 9979   3.636   1.270   7.371 -1.1285 -0.5180 -0.8887
   99SAPS  C310 9980   3.503   1.392   7.495  0.6495  0.1230 -0.2256
   99SAPS  H10X 9981   3.449   1.296   7.504 -0.9671  0.9197 -1.0067
   99SAPS  H10Y 9982   3.423   1.466   7.472 -1.0098 -1.1940  1.0025
   99SAPS  C311 9983   3.578   1.439   7.624 -0.4093  0.6389 -0.5879
   99SAPS  H11X 9984   3.655   1.516   7.603  0.9440 -0.7744 -0.9334
   99SAPS  H11Y 9985   3.636   1.356   7.669  0.7094  1.4564 -0.4876
   99SAPS  C312 9986   3.483   1.500   7.723  0.0249 -0.0307 -0.1711
   99SAPS  H12X 9987   3.417   1.578   7.678  0.2916 -0.3970 -1.1981
   99SAPS  H12Y 9988   3.545   1.547   7.803 -1.0301  2.4284 -0.6885
   99SAPS  C313 9989   3.380   1.399   7.781  0.2775  0.3221 -0.2479
   99SAPS  H13X 9990   3.355   1.331   7.697  1.5485  0.3429 -0.6556
   99SAPS  H13Y 9991   3.288   1.450   7.817 -0.5556 -1.3185  0.0511
   99SAPS  C314 9992   3.434   1.317   7.909 -0.0026 -0.7513  0.3494
   99SAPS  H14X 9993   3.527   1.262   7.886  0.9875  1.2199 -0.5327
   99SAPS  H14Y 9994   3.351   1.249   7.941  0.4461 -1.3711  0.2067
   99SAPS  C315 9995   3.470   1.412   8.035  0.4868  0.9175  0.1707
   99SAPS  H15X 9996   3.373   1.448   8.074  0.6322  1.2241  0.2518
   99SAPS  H15Y 9997   3.525   1.501   7.998 -0.3280  0.9206 -1.1055
   99SAPS  C316 9998   3.551   1.334   8.141 -0.1274 -0.2298  0.0955
   99SAPS  H16X 9999   3.658   1.332   8.112 -0.4562 -0.3714 -1.1876
   99SAPS  H16Y10000   3.521   1.227   8.135 -0.6096 -0.1458  0.9086
   99SAPS  C31710001   3.532   1.377   8.281  0.4600 -0.0371 -0.4370
   99SAPS  H17X10002   3.428   1.403   8.308 -0.1060 -0.3049 -2.2379
   99SAPS  H17Y10003   3.590   1.471   8.286  2.2976 -0.6892 -4.8263
   99SAPS  C31810004   3.581   1.277   8.391 -0.3067 -0.2646  0.5021
   99SAPS  H18X10005   3.584   1.335   8.486  1.7518  1.3593 -0.4745
   99SAPS  H18Y10006   3.684   1.238   8.377 -1.6488 -3.4860 -1.4677
   99SAPS  H18Z10007   3.525   1.182   8.402  1.8754 -1.5775  0.8918
  100SAPS     N10008   0.012   4.904   6.162  0.2073 -0.1703  0.2014
  100SAPS   HN110009  -0.073   4.917   6.221 -0.0305  0.2407 -0.2246
  100SAPS   HN210010   0.024   4.801   6.158 -0.3180 -0.4652  3.1871
  100SAPS   HN310011   0.099   4.931   6.213  0.7584  1.0893 -1.3343
  100SAPS   C1210012   0.006   4.975   6.030 -0.1232 -0.2374 -0.1397
  100SAPS  H12A10013   0.093   4.948   5.973  0.6851  0.2718  0.8163
  100SAPS   C1310014  -0.124   4.937   5.946  0.0027 -0.1076 -0.1267
  100SAPS  O13A10015  -0.178   4.826   5.966 -0.2901  0.0666  0.2043
  100SAPS  O13B10016  -0.137   4.996   5.837 -0.1078  0.1651 -0.2557
  100SAPS   C1110017  -0.020   5.125   6.067 -0.6006 -0.5766  0.1118
  100SAPS  H11A10018  -0.123   5.128   6.109 -0.9073 -2.8452 -0.3773
  100SAPS  H11B10019  -0.008   5.179   5.971 -0.7553 -1.0693 -0.1853
  100SAPS     P10020   0.084   5.330   6.195  0.8316  0.4844  0.2331
  100SAPS   O1310021   0.184   5.396   6.108 -0.3610 -0.3668 -0.6181
  100SAPS   O1410022  -0.059   5.378   6.186  0.1536  0.0202 -0.2212
  100SAPS   O1210023   0.071   5.174   6.163  0.2580 -0.3240  0.3424
  100SAPS   O1110024   0.141   5.330   6.343  0.1188 -0.6122 -0.1278
  100SAPS    C110025   0.069   5.261   6.444  0.3788 -0.2796  0.1063
  100SAPS    HA10026  -0.039   5.263   6.420  0.4414 -1.7473 -0.4096
  100SAPS    HB10027   0.098   5.154   6.434 -0.3096 -0.3152 -2.0442
  100SAPS    C210028   0.094   5.312   6.586  0.3347  0.0391  0.0634
  100SAPS    HS10029   0.052   5.232   6.651  1.1671 -0.0530  0.4986
  100SAPS   O2110030   0.022   5.435   6.608 -0.2519  0.1126  0.7538
  100SAPS   C2110031  -0.114   5.428   6.616  0.1351  0.2077  0.7138
  100SAPS   O2210032  -0.176   5.324   6.621 -0.6762 -0.4398 -1.0518
  100SAPS   C2210033  -0.179   5.557   6.605  0.2990 -0.8129  0.1736
  100SAPS   H2R10034  -0.104   5.638   6.612 -0.4532  0.1114 -1.6938
  100SAPS   H2S10035  -0.214   5.558   6.499  1.3798 -0.3834 -0.1991
  100SAPS    C310036   0.254   5.322   6.607  0.1221 -0.2326  0.0825
  100SAPS    HX10037   0.313   5.363   6.523 -0.0493  0.8032  0.4577
  100SAPS    HY10038   0.297   5.219   6.605  0.4418 -0.1347  1.0828
  100SAPS   O3110039   0.286   5.393   6.733  0.1240  0.6740 -0.2238
  100SAPS   C3110040   0.295   5.520   6.732  0.2098  0.0176  0.4383
  100SAPS   O3210041   0.279   5.591   6.640  0.3415 -0.6566 -0.0293
  100SAPS   C3210042   0.350   5.568   6.866 -0.0988 -0.0929  0.1683
  100SAPS   H2X10043   0.458   5.590   6.855 -0.3049  1.2267  0.6193
  100SAPS   H2Y10044   0.339   5.481   6.936  0.2127  0.7807  1.3420
  100SAPS   C2310045  -0.300   5.589   6.699  0.0323 -0.2459 -0.1066
  100SAPS   H3R10046  -0.388   5.533   6.659 -0.7406 -0.9891  2.4472
  100SAPS   H3S10047  -0.333   5.694   6.688 -0.8012 -0.7309 -2.8972
  100SAPS   C2410048  -0.292   5.543   6.847  0.5368  0.2042  0.0742
  100SAPS   H4R10049  -0.295   5.432   6.853  0.5740  0.2240  0.4429
  100SAPS   H4S10050  -0.384   5.567   6.904  0.0249 -1.3522 -0.0599
  100SAPS   C2510051  -0.174   5.608   6.923  0.0596  0.3539  0.5624
  100SAPS   H5R10052  -0.180   5.717   6.932  0.5278  0.4803 -0.4238
  100SAPS   C2610053  -0.062   5.547   6.958 -0.0434  0.5127 -0.1751
  100SAPS   H6R10054   0.006   5.610   7.016  2.1901 -0.6066 -1.4515
  100SAPS   C2710055  -0.034   5.397   6.952 -0.0365  0.4278 -1.0543
  100SAPS   H7R10056   0.059   5.373   6.895 -0.1633 -1.2041 -0.6241
  100SAPS   H7S10057  -0.110   5.336   6.899  1.1347  0.6009 -3.0253
  100SAPS   C2810058  -0.010   5.309   7.073 -0.2488 -0.0497 -0.5138
  100SAPS   H8R10059   0.053   5.220   7.063  0.5986 -0.5282  5.2397
  100SAPS   C2910060  -0.052   5.321   7.200 -0.2675 -0.8961 -0.0514
  100SAPS   H9R10061  -0.031   5.242   7.274 -1.7097 -1.0838  0.1914
  100SAPS  C21010062  -0.128   5.439   7.258 -0.0640 -0.4632 -0.1983
  100SAPS  H10R10063  -0.066   5.529   7.241  1.5756 -1.5207 -0.0775
  100SAPS  H10S10064  -0.124   5.436   7.369  3.5254  2.6207 -0.0564
  100SAPS  C21110065  -0.271   5.460   7.210  0.1507 -0.0201  0.1146
  100SAPS  H11R10066  -0.307   5.404   7.123  0.4801 -1.3972  0.8257
  100SAPS  C21210067  -0.365   5.522   7.278  0.3285  0.0035 -0.1228
  100SAPS  H12R10068  -0.468   5.524   7.239 -0.1202 -0.8101  0.9666
  100SAPS  C21310069  -0.338   5.590   7.410  0.5103  0.2930 -0.0830
  100SAPS  H13R10070  -0.334   5.700   7.398 -1.0284  0.5516  1.3439
  100SAPS  H13S10071  -0.240   5.556   7.450  0.3248 -0.5990 -0.3544
  100SAPS  C21410072  -0.455   5.569   7.506 -0.7767 -0.0679 -0.8290
  100SAPS  H14R10073  -0.542   5.631   7.482 -0.8650 -0.9456 -2.9969
  100SAPS  C21510074  -0.465   5.499   7.621  0.4721 -0.5511 -0.1446
  100SAPS  H15R10075  -0.554   5.515   7.684  0.4869  1.3002 -0.5243
  100SAPS  C21610076  -0.340   5.419   7.671  0.6896 -0.5905  0.7586
  100SAPS  H16R10077  -0.259   5.394   7.599 -1.3234 -1.1807 -1.4426
  100SAPS  H16S10078  -0.367   5.319   7.712  1.2162 -0.3221  1.7919
  100SAPS  C21710079  -0.269   5.481   7.794  0.5147  0.3717  0.3635
  100SAPS  H17R10080  -0.230   5.582   7.772 -2.8105  2.1229  1.7506
  100SAPS  H17S10081  -0.192   5.409   7.829  1.0589  1.1474  0.7752
  100SAPS  C21810082  -0.366   5.497   7.911 -0.1220  0.3634  0.7853
  100SAPS  H18R10083  -0.414   5.403   7.946  0.1154  0.5540  1.6462
  100SAPS  H18S10084  -0.447   5.566   7.879  0.8656  1.0294 -0.3704
  100SAPS  C21910085  -0.313   5.590   8.024  0.7947  0.9997  0.5079
  100SAPS  H19R10086  -0.282   5.687   7.982  2.2391  0.4877  0.3382
  100SAPS  H19S10087  -0.221   5.549   8.071 -0.8305 -1.1469  2.0288
  100SAPS  C22010088  -0.426   5.593   8.128  0.7293  0.7104 -0.3808
  100SAPS  H20R10089  -0.516   5.647   8.091 -0.0186  1.1239  1.8776
  100SAPS  H20S10090  -0.392   5.647   8.219  3.3812 -0.8369 -0.3547
  100SAPS  H20T10091  -0.467   5.491   8.146  1.4130  0.2824 -1.1659
  100SAPS   C3310092   0.286   5.699   6.912  0.1209  0.2102 -0.6141
  100SAPS   H3X10093   0.179   5.701   6.883  0.0133 -2.1542 -0.6029
  100SAPS   H3Y10094   0.328   5.786   6.858  0.7738 -0.6983 -1.5885
  100SAPS   C3410095   0.289   5.716   7.071 -0.1058 -0.1019  0.7637
  100SAPS   H4X10096   0.227   5.638   7.121 -0.5681  0.0254  0.4058
  100SAPS   H4Y10097   0.246   5.815   7.099  0.2377  0.1355  0.4558
  100SAPS   C3510098   0.434   5.719   7.130  0.2920  0.3391  0.3264
  100SAPS   H5X10099   0.498   5.786   7.070  1.4097 -2.1606 -1.4412
  100SAPS   H5Y10100   0.469   5.614   7.115 -1.0953 -0.0976 -0.0240
  100SAPS   C3610101   0.427   5.752   7.283 -0.2693  0.0132  0.8685
  100SAPS   H6X10102   0.350   5.689   7.331  0.8986  0.3147  3.3030
  100SAPS   H6Y10103   0.397   5.859   7.283 -3.6588 -0.8099 -0.0176
  100SAPS   C3710104   0.558   5.735   7.353  0.5738 -0.1109  0.3280
  100SAPS   H7X10105   0.641   5.787   7.301  2.4649 -0.0331  3.2103
  100SAPS   H7Y10106   0.584   5.629   7.375 -2.6017 -0.8953  0.7039
  100SAPS   C3810107   0.569   5.804   7.486 -0.3500  0.3621 -0.1752
  100SAPS   H8X10108   0.501   5.748   7.553 -0.4345 -1.4046 -1.6507
  100SAPS   H8Y10109   0.507   5.897   7.487 -2.3002 -0.8422 -1.1899
  100SAPS   C3910110   0.700   5.815   7.548  0.2410 -0.3668 -1.1630
  100SAPS   H9X10111   0.743   5.910   7.510  1.6507 -0.9657 -1.1388
  100SAPS   H9Y10112   0.767   5.736   7.507 -0.1681 -1.0023 -0.6360
  100SAPS  C31010113   0.697   5.809   7.702  0.1596 -0.9030 -0.5902
  100SAPS  H10X10114   0.662   5.711   7.740 -1.9475  0.0409  0.0753
  100SAPS  H10Y10115   0.625   5.887   7.735  0.7708 -0.0756 -1.1682
  100SAPS  C31110116   0.832   5.843   7.768 -0.1183 -0.2197  0.1056
  100SAPS  H11X10117   0.869   5.945   7.741 -1.3145  0.4730  0.9427
  100SAPS  H11Y10118   0.899   5.763   7.732 -1.1662 -0.2412 -1.9486
  100SAPS  C31210119   0.807   5.851   7.915  0.0260 -0.5019  0.1709
  100SAPS  H12X10120   0.778   5.754   7.961  1.3792 -0.5607  0.9391
  100SAPS  H12Y10121   0.724   5.924   7.930 -0.1815 -0.0722 -2.5709
  100SAPS  C31310122   0.933   5.890   7.994 -0.2321  0.2982  0.3484
  100SAPS  H13X10123   0.972   5.986   7.955 -0.8034  0.0232 -0.9551
  100SAPS  H13Y10124   1.012   5.814   7.977 -0.3656  0.4083 -0.8062
  100SAPS  C31410125   0.913   5.908   8.151  0.1453 -0.1105 -0.5467
  100SAPS  H14X10126   0.817   5.962   8.164 -0.7627 -1.7899  0.0590
  100SAPS  H14Y10127   0.996   5.974   8.185  0.6778 -2.2015  2.7136
  100SAPS  C31510128   0.919   5.771   8.217 -0.0284  0.3963  0.3298
  100SAPS  H15X10129   1.019   5.730   8.191 -2.0991 -2.8039 -3.7195
  100SAPS  H15Y10130   0.842   5.697   8.184  0.4885 -0.5221  1.1152
  100SAPS  C31610131   0.899   5.792   8.372 -0.0135 -0.0255  0.0875
  100SAPS  H16X10132   0.803   5.849   8.376 -1.5608 -2.4190 -0.5409
  100SAPS  H16Y10133   0.975   5.856   8.420 -0.0197  0.3236 -0.3632
  100SAPS  C31710134   0.876   5.664   8.457 -0.4355 -0.6466  0.1746
  100SAPS  H17X10135   0.789   5.616   8.407 -1.8726  1.0464  0.9348
  100SAPS  H17Y10136   0.853   5.688   8.563  1.6377  1.1858  0.2955
  100SAPS  C31810137   1.005   5.581   8.458 -0.1380  0.4973  0.5340
  100SAPS  H18X10138   1.047   5.565   8.357 -1.6697  0.1733 -0.0729
  100SAPS  H18Y10139   0.988   5.481   8.502  2.3461 -0.3573 -0.2892
  100SAPS  H18Z10140   1.076   5.624   8.532  0.4683 -0.5604  0.5822
  101OSM      N10141   1.094   3.668  10.968  0.1533 -0.4791 -0.0415
  101OSM    C1510142   1.145   3.525  10.962 -0.2364 -0.2599 -0.2066
  101OSM   H15A10143   1.208   3.512  11.049 -1.2647 -1.6209  0.3658
  101OSM   H15B10144   1.217   3.509  10.883  0.9771 -2.2892  1.2225
  101OSM   H15C10145   1.070   3.448  10.952  1.7643 -2.0800 -2.2125
  101OSM    C1410146   0.992   3.691  11.078  0.4461  0.8615 -0.2317
  101OSM   H14A10147   0.903   3.647  11.036  1.5844  1.4298 -3.4663
  101OSM   H14B10148   0.977   3.789  11.121 -0.9014  1.2442 -1.5107
  101OSM   H14C10149   1.019   3.631  11.164  0.9761  1.0461 -0.2659
  101OSM    C1310150   1.216   3.755  10.991 -0.1124  0.3601 -0.7370
  101OSM   H13A10151   1.191   3.860  10.981  0.6105  0.6016 -0.1013
  101OSM   H13B10152   1.281   3.735  10.907 -0.0436 -1.4479 -0.2857
  101OSM   H13C10153   1.267   3.733  11.083 -1.3457 -0.9632 -0.3455
  101OSM    C1210154   1.027   3.697  10.836 -0.7430  0.4323 -0.1042
  101OSM   H12A10155   1.088   3.667  10.753  0.2774 -0.0036  0.7757
  101OSM   H12B10156   0.999   3.800  10.824  0.7472  0.5489 -3.4036
  101OSM    C1110157   0.886   3.624  10.817 -0.5506  0.2681  0.3506
  101OSM   H11A10158   0.906   3.517  10.837  1.1726  0.9670  2.8338
  101OSM   H11B10159   0.862   3.625  10.709 -0.7771 -0.2477  0.3962
  101OSM      P10160   0.714   3.817  10.852 -0.4387  0.3184 -0.2156
  101OSM    O1310161   0.581   3.823  10.915  0.4865 -0.1744  0.3587
  101OSM    O1410162   0.809   3.926  10.884  0.5727 -0.3081  0.7807
  101OSM    O1110163   0.699   3.810  10.697 -0.5043  0.1555  0.1791
  101OSM    O1210164   0.780   3.677  10.889 -0.2958 -0.2042 -0.0263
  101OSM    C1S10165   0.592   3.753  10.631  0.1072 -0.3329 -0.5159
  101OSM    H1S10166   0.493   3.787  10.669 -0.1537 -0.3864 -1.1389
  101OSM    H1T10167   0.596   3.643  10.641  0.6171 -0.3593 -1.0223
  101OSM     NF10168   0.486   3.757  10.403  0.4801 -0.1975  0.0351
  101OSM    HNF10169   0.501   3.684  10.336 -0.8620 -1.0861  0.6550
  101OSM    C2S10170   0.601   3.794  10.481  0.0259 -0.1406 -0.0435
  101OSM    H2S10171   0.609   3.905  10.476  0.2917 -0.1544  0.0548
  101OSM    C3S10172   0.722   3.728  10.416  0.7657 -0.5687 -0.5833
  101OSM    H3S10173   0.696   3.622  10.399 -2.4435 -0.0383  0.4649
  101OSM     O310174   0.845   3.742  10.489 -0.1841 -0.0410  0.2831
  101OSM    HO310175   0.820   3.789  10.569  1.3743 -2.9974  2.6899
  101OSM    C4S10176   0.737   3.792  10.281 -0.3064  0.2055  0.0758
  101OSM    H4S10177   0.671   3.739  10.211 -1.2124  0.0616  1.0198
  101OSM    C5S10178   0.796   3.907  10.254  0.1019  0.0750  0.2695
  101OSM    H5S10179   0.843   3.968  10.333  1.2553  0.0703 -0.3916
  101OSM    C6S10180   0.813   3.971  10.117  0.4040  0.1431  0.3013
  101OSM    H6S10181   0.914   4.017  10.114  0.7053 -0.5597 -1.3558
  101OSM    H6T10182   0.764   4.071  10.127  1.5712  0.8381 -0.6366
  101OSM    C7S10183   0.788   3.903   9.980  0.2486  0.3409 -0.4804
  101OSM    H7S10184   0.686   3.863   9.959  0.0029  0.6798  0.0670
  101OSM    H7T10185   0.841   3.806   9.988  0.4927  0.5865  1.0380
  101OSM    C8S10186   0.825   3.996   9.864  0.4401 -0.1619  0.0211
  101OSM    H8S10187   0.930   4.033   9.866  1.0036 -1.6822  0.5028
  101OSM    H8T10188   0.753   4.080   9.855  1.4167  0.5306 -1.8211
  101OSM    C9S10189   0.810   3.918   9.723 -0.1932 -0.7418  0.3176
  101OSM    H9S10190   0.702   3.895   9.710  0.6071 -3.5443 -2.9235
  101OSM    H9T10191   0.863   3.821   9.720 -1.8186 -1.6531 -0.0398
  101OSM   C10S10192   0.857   3.992   9.600 -0.0789 -1.4031 -0.1734
  101OSM   H10S10193   0.963   4.019   9.621 -0.4292  0.9266 -1.1225
  101OSM   H10T10194   0.796   4.084   9.590  0.0037 -1.0422  2.2107
  101OSM   C11S10195   0.840   3.906   9.478  0.4698  0.7165 -0.4504
  101OSM   H11S10196   0.734   3.873   9.467  0.4199  0.8799 -0.4742
  101OSM   H11T10197   0.899   3.813   9.483  0.6831  0.9200  1.2446
  101OSM   C12S10198   0.886   3.989   9.360 -0.2505 -0.8495  0.3055
  101OSM   H12S10199   0.988   4.027   9.381 -1.0157  1.0063  0.8879
  101OSM   H12T10200   0.826   4.082   9.349  0.5905 -0.3870 -0.5162
  101OSM   C13S10201   0.869   3.909   9.231  0.6931 -0.0870  0.6907
  101OSM   H13S10202   0.884   3.807   9.273  1.0478 -0.7500 -0.9614
  101OSM   H13T10203   0.942   3.935   9.151  0.0163 -0.4579 -0.0598
  101OSM   C14S10204   0.727   3.919   9.174 -0.3070  0.2334 -0.4894
  101OSM   H14S10205   0.697   4.026   9.163 -0.2570  0.2967 -0.0233
  101OSM   H14T10206   0.659   3.870   9.247  0.7176 -0.1474  0.2312
  101OSM   C15S10207   0.719   3.856   9.036  0.1180  0.0537  0.6582
  101OSM   H15S10208   0.612   3.849   9.007  0.2781 -0.4413  0.1698
  101OSM   H15T10209   0.775   3.760   9.027 -1.1941 -0.6830  0.1577
  101OSM   C16S10210   0.774   3.953   8.924 -0.2711  0.2591  0.7168
  101OSM   H16S10211   0.885   3.963   8.935 -0.2752  2.5588 -0.6718
  101OSM   H16T10212   0.728   4.053   8.936 -1.0203 -0.0678  0.6046
  101OSM   C17S10213   0.741   3.897   8.787  0.4825 -0.2516  0.1121
  101OSM   H17S10214   0.631   3.893   8.770  0.4206  1.8383 -0.2770
  101OSM   H17T10215   0.778   3.793   8.786  2.2273  0.3292  0.1566
  101OSM   C18S10216   0.803   3.979   8.677 -0.3789 -0.5036  0.4713
  101OSM   H18S10217   0.822   3.916   8.588 -1.3147  0.3002 -0.3139
  101OSM   H18T10218   0.903   4.023   8.699  0.4866 -2.0789 -0.1005
  101OSM   H18U10219   0.732   4.056   8.640  1.6184  1.9158  1.3856
  101OSM    C1F10220   0.361   3.780  10.439  0.2600  0.0152  0.5144
  101OSM     OF10221   0.334   3.885  10.494  0.0613  0.0814 -0.0835
  101OSM    C2F10222   0.253   3.670  10.425  0.4049  0.4841 -0.1366
  101OSM    H2F10223   0.211   3.652  10.527 -0.3727  0.8356 -0.3858
  101OSM    H2G10224   0.296   3.578  10.380  0.3947  1.6263 -2.6633
  101OSM    C3F10225   0.138   3.692  10.319 -0.0361 -1.0472  0.0406
  101OSM    H3F10226   0.070   3.773  10.351  1.3790 -0.0726  0.7117
  101OSM    H3G10227   0.075   3.601  10.323 -1.6087 -0.0132 -0.5720
  101OSM    C4F10228   0.197   3.687  10.172 -0.2710 -0.2898  0.1355
  101OSM    H4F10229   0.252   3.590  10.163  0.3458  0.0893 -0.2954
  101OSM    H4G10230   0.270   3.766  10.143 -0.8152  0.0463 -0.3546
  101OSM    C5F10231   0.087   3.688  10.068  0.5719  0.7006 -0.2764
  101OSM    H5F10232   0.004   3.629  10.112 -0.3147  0.3995 -2.2557
  101OSM    H5G10233   0.109   3.623   9.980  2.2439 -1.5608  1.6811
  101OSM    C6F10234   0.034   3.825  10.043 -0.4807 -0.0481  0.3497
  101OSM    H6F10235   0.115   3.885   9.994 -0.0208 -0.9556 -0.0201
  101OSM    H6G10236   0.018   3.877  10.140 -0.3071  0.8718 -0.1034
  101OSM    C7F10237  -0.101   3.837   9.972  0.3549 -0.1865  0.4948
  101OSM    H7F10238  -0.109   3.945   9.946  0.3969  0.5520  3.2710
  101OSM    H7G10239  -0.187   3.808  10.036  0.7673  0.1588  1.2153
  101OSM    C8F10240  -0.108   3.753   9.844  0.3061  0.3376 -0.0395
  101OSM    H8F10241  -0.208   3.772   9.799 -0.1562  0.6912  1.0910
  101OSM    H8G10242  -0.125   3.649   9.880 -0.8837  0.9294  1.2113
  101OSM    C9F10243   0.008   3.784   9.748  0.2520  0.3724  0.0549
  101OSM    H9F10244   0.027   3.891   9.737  0.2247  0.3697 -0.0190
  101OSM   C10F10245   0.094   3.702   9.685  0.1715 -0.1508 -0.5133
  101OSM   H10F10246   0.171   3.754   9.626  1.1833  1.1625  1.8060
  101OSM   C11F10247   0.102   3.556   9.691 -0.1842 -0.1061  0.4548
  101OSM   H11F10248   0.014   3.508   9.740  0.1754 -1.3286 -0.0826
  101OSM   H11G10249   0.190   3.541   9.757  1.0689  2.0179 -0.6380
  101OSM   C12F10250   0.120   3.502   9.546  0.2319 -0.9695 -0.0339
  101OSM   H12F10251   0.128   3.391   9.549  1.3132 -0.8882  0.6865
  101OSM   H12G10252   0.218   3.533   9.506  0.0201  1.1782  0.9998
  101OSM   C13F10253  -0.009   3.535   9.466 -0.2599  0.5290  0.7153
  101OSM   H13F10254   0.012   3.624   9.404  1.0649  0.1939  0.6555
  101OSM   H13G10255  -0.099   3.542   9.531 -0.4696  0.5718  0.4217
  101OSM   C14F10256  -0.029   3.427   9.357  0.3659 -0.2682  0.7678
  101OSM   H14F10257  -0.133   3.442   9.320  1.4077  0.1317 -2.3192
  101OSM   H14G10258  -0.013   3.326   9.401  2.4826 -0.1859  0.3015
  101OSM   C15F10259   0.067   3.447   9.238  0.0696  0.0196 -0.2297
  101OSM   H15F10260   0.169   3.438   9.279  0.3116 -2.8182 -1.1804
  101OSM   H15G10261   0.056   3.550   9.200 -1.7190  0.5414  1.5008
  101OSM   C16F10262   0.056   3.346   9.127  1.0146 -0.6274 -0.0715
  101OSM   H16F10263  -0.047   3.362   9.087 -0.0822  0.9425  3.0248
  101OSM   H16G10264   0.048   3.244   9.171 -0.8063  0.6106  2.8145
  101OSM   C17F10265   0.155   3.358   9.011 -0.6358  0.2627  0.7118
  101OSM   H17F10266   0.254   3.327   9.051  0.0385  2.8917  1.2960
  101OSM   H17G10267   0.164   3.463   8.975 -3.6754  0.9241  1.5541
  101OSM   C18F10268   0.110   3.283   8.883  0.4545  0.0201  1.2686
  101OSM   H18F10269  -0.001   3.285   8.871  0.4117  1.3004  1.7407
  101OSM   H18G10270   0.138   3.175   8.884  0.3682 -0.0644 -0.8220
  101OSM   H18H10271   0.158   3.320   8.790 -0.1235 -1.5534  0.3114
  102OSM      N10272   0.509   3.476  11.061  0.0890  0.1246 -0.1919
  102OSM    C1510273   0.606   3.533  11.164 -0.2987  0.2837 -0.5424
  102OSM   H15A10274   0.626   3.636  11.139  0.9863 -0.1729 -1.5643
  102OSM   H15B10275   0.697   3.474  11.157  0.4157  1.3920 -0.8903
  102OSM   H15C10276   0.567   3.511  11.262  0.9990  1.2669  0.2310
  102OSM    C1410277   0.450   3.345  11.106 -0.0901  0.6138 -0.1116
  102OSM   H14A10278   0.513   3.260  11.087 -1.4355 -0.7055  1.0504
  102OSM   H14B10279   0.370   3.326  11.035 -0.3795  0.3949  0.2713
  102OSM   H14C10280   0.410   3.345  11.206 -0.5593  0.7494 -0.2943
  102OSM    C1310281   0.402   3.579  11.054  0.8983  0.2995  0.3970
  102OSM   H13A10282   0.352   3.590  11.149 -0.1153  0.2251 -0.1186
  102OSM   H13B10283   0.321   3.558  10.987  0.2733  0.1452  1.1923
  102OSM   H13C10284   0.440   3.676  11.024  0.8837  0.1975  0.0470
  102OSM    C1210285   0.585   3.457  10.931 -0.1422 -0.2440  0.0673
  102OSM   H12A10286   0.663   3.384  10.945 -0.1464  0.2372  3.6622
  102OSM   H12B10287   0.639   3.549  10.913 -1.0164  0.0324 -1.2420
  102OSM    C1110288   0.502   3.429  10.800 -0.3813 -0.3040 -0.8641
  102OSM   H11A10289   0.565   3.429  10.708 -0.9089  0.1097 -1.2363
  102OSM   H11B10290   0.438   3.520  10.797  0.6452  0.4370 -0.6983
  102OSM      P10291   0.470   3.168  10.775  0.2312 -0.3340  0.2712
  102OSM    O1310292   0.537   3.115  10.893  0.1603  0.0513 -0.0482
  102OSM    O1410293   0.354   3.086  10.731 -0.3849  0.0692 -0.3305
  102OSM    O1110294   0.578   3.191  10.666  0.4249  0.1291  0.6760
  102OSM    O1210295   0.411   3.312  10.797  0.0289 -0.4175  0.3124
  102OSM    C1S10296   0.602   3.103  10.557  0.4471 -0.1077  0.6537
  102OSM    H1S10297   0.505   3.064  10.520  0.3144 -1.3260  2.1528
  102OSM    H1T10298   0.669   3.019  10.585 -0.1633 -0.6451  0.5331
  102OSM     NF10299   0.703   3.099  10.333  0.2528  0.5986  0.4812
  102OSM    HNF10300   0.785   3.046  10.312 -2.0116 -3.2131  0.4083
  102OSM    C2S10301   0.691   3.178  10.446 -0.3795  0.7086  0.5069
  102OSM    H2S10302   0.642   3.273  10.417  0.7778  0.4074 -2.9482
  102OSM    C3S10303   0.828   3.217  10.507  0.4384  0.6459 -0.3701
  102OSM    H3S10304   0.889   3.124  10.514  1.0226  1.1178  1.6935
  102OSM     O310305   0.815   3.281  10.635 -0.0081 -0.4909 -0.1493
  102OSM    HO310306   0.722   3.273  10.657  0.0644  0.6977  0.6876
  102OSM    C4S10307   0.908   3.291  10.410 -0.0626  0.4502  0.2527
  102OSM    H4S10308   0.979   3.232  10.350 -2.7987 -0.7523 -2.0234
  102OSM    C5S10309   0.926   3.424  10.399 -0.0292 -0.0961 -0.0533
  102OSM    H5S10310   0.858   3.484  10.462 -0.9218 -1.6701  0.5591
  102OSM    C6S10311   1.016   3.511  10.315 -0.0895 -0.2609 -0.3189
  102OSM    H6S10312   1.062   3.590  10.378  2.4284 -1.7331 -0.2009
  102OSM    H6T10313   0.952   3.565  10.242  1.1224 -1.0811 -2.0384
  102OSM    C7S10314   1.129   3.447  10.229  0.2273  0.2896 -0.2347
  102OSM    H7S10315   1.195   3.391  10.300 -0.1365  1.4579  1.0778
  102OSM    H7T10316   1.199   3.521  10.183  0.9981 -0.2864 -0.0068
  102OSM    C8S10317   1.095   3.355  10.115  0.1535 -0.1165 -0.2199
  102OSM    H8S10318   1.017   3.287  10.156  0.2523 -0.6276 -0.8574
  102OSM    H8T10319   1.181   3.286  10.099 -0.6043 -1.2922  0.6454
  102OSM    C9S10320   1.036   3.435   9.985  0.0795  0.1792  0.0788
  102OSM    H9S10321   0.951   3.489  10.031  0.4734  1.3321 -0.5126
  102OSM    H9T10322   1.004   3.364   9.906  0.0067  1.3240 -0.9520
  102OSM   C10S10323   1.129   3.526   9.916 -0.2037 -0.0727  0.2442
  102OSM   H10S10324   1.221   3.468   9.896 -0.4671  0.5513 -3.4536
  102OSM   H10T10325   1.148   3.617   9.976 -2.4690  1.0985 -0.6933
  102OSM   C11S10326   1.064   3.579   9.787  0.1386  0.3027  0.4707
  102OSM   H11S10327   1.098   3.681   9.758 -2.4240  0.7417 -1.4210
  102OSM   H11T10328   0.954   3.584   9.803 -0.0258 -2.2469  0.5066
  102OSM   C12S10329   1.085   3.474   9.671  0.0399  0.1315 -0.7836
  102OSM   H12S10330   1.062   3.374   9.714  0.4495 -0.2449 -1.4434
  102OSM   H12T10331   1.188   3.472   9.630  1.4095  1.3458  2.2913
  102OSM   C13S10332   0.992   3.512   9.553 -0.8494 -0.3638 -0.0838
  102OSM   H13S10333   1.001   3.622   9.537  0.8802 -0.0823  2.1811
  102OSM   H13T10334   0.890   3.478   9.579 -0.3219 -1.0461  1.1839
  102OSM   C14S10335   1.032   3.441   9.426  0.5385  0.6382  0.5169
  102OSM   H14S10336   0.985   3.341   9.432 -0.6207  1.0755 -0.7932
  102OSM   H14T10337   1.140   3.424   9.410  0.7200  0.9360  1.3572
  102OSM   C15S10338   0.965   3.496   9.310 -0.4945 -0.3790  0.2018
  102OSM   H15S10339   0.994   3.601   9.289 -1.4371  0.1815  1.5267
  102OSM   H15T10340   0.855   3.502   9.324 -0.3754 -0.0254  1.0289
  102OSM   C16S10341   0.995   3.420   9.174 -0.5483 -0.5785  0.4328
  102OSM   H16S10342   0.944   3.322   9.170 -0.1442 -0.7585 -0.4718
  102OSM   H16T10343   1.104   3.399   9.180 -0.4060  0.0729  0.2657
  102OSM   C17S10344   0.969   3.518   9.055  0.2368  0.8094  0.3332
  102OSM   H17S10345   1.015   3.619   9.049  0.5401  0.5852 -2.4088
  102OSM   H17T10346   0.859   3.533   9.051 -0.0483 -1.0667  0.0989
  102OSM   C18S10347   1.008   3.444   8.915 -0.0056 -0.0592  0.0164
  102OSM   H18S10348   0.945   3.352   8.914 -1.8030  1.1305 -0.6736
  102OSM   H18T10349   1.115   3.424   8.898  0.0288  0.0344  0.1200
  102OSM   H18U10350   0.970   3.507   8.831  0.6940 -0.3800 -0.5511
  102OSM    C1F10351   0.603   3.067  10.254 -0.1110 -0.1792  0.4699
  102OSM     OF10352   0.493   3.111  10.274 -0.3388  0.1881  0.3377
  102OSM    C2F10353   0.648   2.987  10.135  0.3843 -0.6609  0.2151
  102OSM    H2F10354   0.677   2.882  10.157 -0.5457 -0.8566  0.5608
  102OSM    H2G10355   0.727   3.040  10.077 -1.7318  0.7881 -1.5114
  102OSM    C3F10356   0.534   2.959  10.029  0.2693 -0.1538  0.2375
  102OSM    H3F10357   0.496   3.054   9.984 -0.2725 -0.8050 -0.7128
  102OSM    H3G10358   0.455   2.916  10.094 -1.7888 -2.0586 -3.2562
  102OSM    C4F10359   0.569   2.855   9.922 -1.3077 -0.5441  0.7946
  102OSM    H4F10360   0.552   2.754   9.964  0.2241 -0.6430  1.2188
  102OSM    H4G10361   0.678   2.852   9.902 -1.5345 -2.1411 -0.4286
  102OSM    C5F10362   0.486   2.875   9.794 -0.3388 -0.5297  0.1901
  102OSM    H5F10363   0.505   2.977   9.755 -2.1262 -0.5299 -0.7605
  102OSM    H5G10364   0.379   2.875   9.825  0.0821 -0.2235  1.7126
  102OSM    C6F10365   0.508   2.770   9.680 -0.1449 -0.5326  0.5932
  102OSM    H6F10366   0.481   2.672   9.724  0.1146  0.3300  2.8006
  102OSM    H6G10367   0.613   2.757   9.646 -0.7020 -1.2522 -0.9083
  102OSM    C7F10368   0.420   2.809   9.553 -0.3890 -0.3714  0.5751
  102OSM    H7F10369   0.457   2.911   9.531 -0.2065 -0.7113 -0.8045
  102OSM    H7G10370   0.311   2.798   9.571 -0.3525 -1.6311  0.1097
  102OSM    C8F10371   0.462   2.734   9.421  0.1076  0.1273  0.4510
  102OSM    H8F10372   0.572   2.727   9.425  0.1051 -0.1062  0.1476
  102OSM    H8G10373   0.444   2.791   9.328  1.4968  0.2562  0.2492
  102OSM    C9F10374   0.418   2.588   9.422  0.2224 -0.0934 -0.0686
  102OSM    H9F10375   0.437   2.540   9.520 -0.3505 -0.7831 -0.2807
  102OSM   C10F10376   0.358   2.512   9.329  0.0152 -0.3224 -0.8996
  102OSM   H10F10377   0.341   2.407   9.359  3.1516 -0.4540  0.8710
  102OSM   C11F10378   0.313   2.550   9.187 -0.2593 -0.1143 -0.4084
  102OSM   H11F10379   0.317   2.657   9.161 -1.4077  0.7595  2.5647
  102OSM   H11G10380   0.210   2.512   9.170  0.1024 -0.7869 -1.1737
  102OSM   C12F10381   0.391   2.471   9.074  0.1711  0.2278  0.1071
  102OSM   H12F10382   0.352   2.367   9.069 -1.4955  0.8737 -1.5211
  102OSM   H12G10383   0.499   2.475   9.100  0.4781  1.7763 -1.2037
  102OSM   C13F10384   0.365   2.527   8.937  0.6739  0.4307  0.7677
  102OSM   H13F10385   0.395   2.633   8.934 -3.2458  1.7301  1.3248
  102OSM   H13G10386   0.254   2.527   8.923  0.9462 -2.0837 -2.8449
  102OSM   C14F10387   0.431   2.442   8.833 -0.4290  0.1714  0.3658
  102OSM   H14F10388   0.394   2.338   8.821  0.8002 -0.1896 -0.5615
  102OSM   H14G10389   0.536   2.431   8.865 -1.0721 -1.8037  2.0168
  102OSM   C15F10390   0.441   2.502   8.692 -0.6508 -0.8429 -0.4438
  102OSM   H15F10391   0.335   2.532   8.680  0.3209  3.9722  0.8699
  102OSM   H15G10392   0.476   2.425   8.620 -1.6041  0.0466 -1.9120
  102OSM   C16F10393   0.533   2.628   8.674  0.2416  0.0705 -0.8678
  102OSM   H16F10394   0.632   2.599   8.716 -0.3657 -1.7855 -0.6281
  102OSM   H16G10395   0.483   2.710   8.728 -1.2157  0.1380 -2.2509
  102OSM   C17F10396   0.550   2.667   8.527  0.1567 -0.0611 -0.7224
  102OSM   H17F10397   0.590   2.770   8.518 -0.8530  0.2743 -1.5096
  102OSM   H17G10398   0.449   2.672   8.480  0.1927 -2.5712 -1.2358
  102OSM   C18F10399   0.641   2.575   8.448  0.4169  0.0471  0.6998
  102OSM   H18F10400   0.630   2.472   8.487 -1.0376  0.1458  0.5980
  102OSM   H18G10401   0.745   2.611   8.463  0.8771 -1.2302  0.6451
  102OSM   H18H10402   0.620   2.591   8.340 -0.9137  2.9983  1.2835
  103OSM      N10403   0.427   5.357  11.195 -0.0836 -0.1710 -0.1661
  103OSM    C1510404   0.362   5.238  11.257  0.5546  0.0501 -0.4886
  103OSM   H15A10405   0.266   5.218  11.212  0.1055  1.4785 -0.2046
  103OSM   H15B10406   0.355   5.242  11.364  0.1939  0.2989 -0.5200
  103OSM   H15C10407   0.422   5.151  11.232  0.2018 -1.1518  2.4260
  103OSM    C1410408   0.355   5.477  11.243  0.6388 -0.2077  0.4006
  103OSM   H14A10409   0.349   5.485  11.351  1.5044  0.9658  0.3871
  103OSM   H14B10410   0.253   5.472  11.209  0.3852 -1.6004  1.2718
  103OSM   H14C10411   0.391   5.572  11.205 -0.8923  0.3848  0.3848
  103OSM    C1310412   0.567   5.359  11.255 -0.9987 -0.1453  0.1869
  103OSM   H13A10413   0.632   5.287  11.208  0.4046 -0.0611  1.9211
  103OSM   H13B10414   0.565   5.353  11.363 -1.6027  1.3623  0.2929
  103OSM   H13C10415   0.622   5.445  11.219 -1.2485  1.1663  2.7323
  103OSM    C1210416   0.441   5.340  11.043  0.0031 -0.1464 -0.1307
  103OSM   H12A10417   0.341   5.342  11.000  1.3564  0.1659 -3.6049
  103OSM   H12B10418   0.466   5.236  11.025  0.1973 -0.1892  0.3598
  103OSM    C1110419   0.528   5.447  10.973 -0.1548  0.3199 -0.1329
  103OSM   H11A10420   0.504   5.554  10.986 -3.0951 -0.4335  1.5206
  103OSM   H11B10421   0.494   5.444  10.867  0.0571  2.1857 -0.2739
  103OSM      P10422   0.759   5.344  10.896 -0.8112 -0.2822 -0.3309
  103OSM    O1310423   0.894   5.410  10.880  0.2919  0.3481 -0.0535
  103OSM    O1410424   0.762   5.204  10.936 -0.3750  0.9480  0.1759
  103OSM    O1110425   0.685   5.359  10.766 -0.3077 -0.5488  0.9172
  103OSM    O1210426   0.666   5.429  10.996 -0.3244  0.0068 -0.5864
  103OSM    C1S10427   0.696   5.484  10.690 -0.2940  0.1397 -0.4524
  103OSM    H1S10428   0.801   5.521  10.693  0.5800 -2.2466  0.5589
  103OSM    H1T10429   0.635   5.563  10.739 -0.2045 -0.7391  1.1326
  103OSM     NF10430   0.691   5.588  10.455 -0.0219 -0.5417 -0.3321
  103OSM    HNF10431   0.608   5.637  10.433 -0.5760 -1.4009 -0.2033
  103OSM    C2S10432   0.665   5.464  10.538  0.4922  0.2225  0.4332
  103OSM    H2S10433   0.741   5.387  10.512  0.3291  0.6392 -1.3976
  103OSM    C3S10434   0.520   5.403  10.522 -0.1187 -0.0972  0.1311
  103OSM    H3S10435   0.449   5.488  10.519 -0.6062 -0.0728  5.0255
  103OSM     O310436   0.485   5.317  10.628 -0.4049  0.6508  0.2430
  103OSM    HO310437   0.568   5.311  10.675 -0.1390  0.7383 -0.2060
  103OSM    C4S10438   0.507   5.338  10.391 -0.3043 -0.2313  0.1770
  103OSM    H4S10439   0.601   5.303  10.346  0.3524  0.4858  0.9676
  103OSM    C5S10440   0.392   5.342  10.330 -0.1164  0.5320  0.1233
  103OSM    H5S10441   0.307   5.386  10.383 -0.8216 -0.7699  0.1218
  103OSM    C6S10442   0.370   5.292  10.186 -0.2482  0.1598 -0.2484
  103OSM    H6S10443   0.465   5.312  10.131  2.5221 -1.7457  3.3947
  103OSM    H6T10444   0.284   5.342  10.137 -0.5660  1.2768  1.3740
  103OSM    C7S10445   0.332   5.148  10.160 -0.1741  0.0206  0.0798
  103OSM    H7S10446   0.241   5.117  10.215 -1.2600  2.7162 -0.0642
  103OSM    H7T10447   0.416   5.082  10.193 -0.5176  0.7329  2.6096
  103OSM    C8S10448   0.295   5.137  10.009  0.0523 -0.3001  0.5853
  103OSM    H8S10449   0.225   5.213   9.969  3.2402  2.5047 -0.1446
  103OSM    H8T10450   0.247   5.038   9.993 -1.4009  0.7239 -2.0239
  103OSM    C9S10451   0.414   5.146   9.908  0.0544 -0.4477  0.1443
  103OSM    H9S10452   0.487   5.063   9.916  1.7484  0.8722 -0.8627
  103OSM    H9T10453   0.468   5.240   9.933  0.5327  0.0680 -2.5170
  103OSM   C10S10454   0.367   5.138   9.767  0.9560  0.1926  0.8513
  103OSM   H10S10455   0.267   5.185   9.752  0.5474 -0.6505  0.8595
  103OSM   H10T10456   0.350   5.031   9.743 -0.1463  0.4785  0.2608
  103OSM   C11S10457   0.448   5.212   9.664  0.7042  0.1918 -0.4252
  103OSM   H11S10458   0.542   5.156   9.651  1.6109  0.9641  2.2406
  103OSM   H11T10459   0.462   5.318   9.696 -0.7729  0.5742 -0.9642
  103OSM   C12S10460   0.376   5.230   9.523  0.2286 -0.0345 -0.1634
  103OSM   H12S10461   0.272   5.270   9.526  0.7084  1.2296  0.6015
  103OSM   H12T10462   0.375   5.135   9.466  3.1709 -0.6988  0.6825
  103OSM   C13S10463   0.450   5.330   9.429  0.2912 -0.2464  0.2292
  103OSM   H13S10464   0.540   5.275   9.396 -0.4733 -0.5654 -1.4041
  103OSM   H13T10465   0.480   5.418   9.490  0.4867 -0.6425  0.7203
  103OSM   C14S10466   0.372   5.379   9.304  0.3756 -0.2824  0.2669
  103OSM   H14S10467   0.446   5.438   9.246  1.2092 -0.4986  1.0750
  103OSM   H14T10468   0.286   5.439   9.341  0.0327 -0.6841  0.1284
  103OSM   C15S10469   0.308   5.262   9.219 -0.1756  0.0050 -0.5173
  103OSM   H15S10470   0.222   5.231   9.283 -1.6786  2.2322 -1.3312
  103OSM   H15T10471   0.378   5.177   9.204  2.0851  1.9736 -1.7623
  103OSM   C16S10472   0.261   5.314   9.084  0.0985 -0.1905 -0.3998
  103OSM   H16S10473   0.348   5.344   9.023 -0.4370  1.7094 -0.2894
  103OSM   H16T10474   0.201   5.407   9.091 -1.1530 -0.9657 -0.4197
  103OSM   C17S10475   0.187   5.195   9.022  0.1528 -0.8854 -0.4572
  103OSM   H17S10476   0.257   5.110   9.014  3.5195  1.7149 -0.9686
  103OSM   H17T10477   0.170   5.239   8.921 -0.6717  3.7524  1.4198
  103OSM   C18S10478   0.056   5.161   9.093 -0.6222  0.8478  0.3317
  103OSM   H18S10479   0.071   5.105   9.188  0.5263  0.7724  0.1095
  103OSM   H18T10480  -0.011   5.096   9.032 -0.0755  1.0764 -0.5158
  103OSM   H18U10481   0.003   5.256   9.117 -1.6260  0.5843 -0.7585
  103OSM    C1F10482   0.804   5.651  10.440  0.4115 -0.1532 -0.4755
  103OSM     OF10483   0.907   5.616  10.489 -0.1714  0.4019 -0.5054
  103OSM    C2F10484   0.801   5.779  10.362 -0.9909 -0.0235 -0.1299
  103OSM    H2F10485   0.838   5.867  10.419 -0.2817 -0.2009 -0.3110
  103OSM    H2G10486   0.697   5.814  10.342 -0.1786  2.9433  0.2848
  103OSM    C3F10487   0.892   5.771  10.240  0.1157  0.0152  0.1390
  103OSM    H3F10488   0.876   5.677  10.182 -0.2729 -1.0005  1.8264
  103OSM    H3G10489   0.995   5.772  10.282 -0.5896 -1.8993  2.1222
  103OSM    C4F10490   0.869   5.881  10.141 -0.0760  0.8547  0.2234
  103OSM    H4F10491   0.924   5.968  10.184  1.7664  0.0050 -0.2909
  103OSM    H4G10492   0.760   5.895  10.127 -0.2724  0.0236  0.8337
  103OSM    C5F10493   0.944   5.854  10.007  0.1370  0.0245 -1.0013
  103OSM    H5F10494   0.935   5.748   9.977 -0.8353 -0.0451 -0.5053
  103OSM    H5G10495   1.052   5.857  10.033  0.1975 -2.8293 -0.6126
  103OSM    C6F10496   0.900   5.957   9.901 -0.2909  0.4018 -0.0317
  103OSM    H6F10497   0.886   6.060   9.940 -1.7807 -0.8127  2.9879
  103OSM    H6G10498   0.797   5.936   9.867 -0.8295  2.2296  0.3926
  103OSM    C7F10499   1.001   5.961   9.785 -0.2801  0.1820 -0.9340
  103OSM    H7F10500   1.009   5.859   9.741 -1.2268 -1.0853  1.6046
  103OSM    H7G10501   1.097   5.999   9.825 -1.0397  1.6722 -0.4748
  103OSM    C8F10502   0.968   6.061   9.668  1.6826  0.7278  0.6283
  103OSM    H8F10503   0.919   6.153   9.709 -1.7022  0.5523 -2.4678
  103OSM    H8G10504   0.895   6.016   9.597  4.5105  0.4775 -2.3672
  103OSM    C9F10505   1.087   6.094   9.583 -0.1427  0.2525  0.1184
  103OSM    H9F10506   1.168   6.148   9.635  1.8286 -0.8395 -1.6705
  103OSM   C10F10507   1.104   6.059   9.455 -0.5700  0.1373  0.4259
  103OSM   H10F10508   1.201   6.090   9.413  0.3707 -2.2189  0.6534
  103OSM   C11F10509   1.017   5.985   9.362 -0.2518 -0.2241  0.0987
  103OSM   H11F10510   0.944   5.916   9.410 -1.0897  1.2629  1.0098
  103OSM   H11G10511   1.073   5.931   9.282 -2.6132  1.3186 -2.7771
  103OSM   C12F10512   0.932   6.087   9.279 -0.0095 -0.4355  0.0831
  103OSM   H12F10513   1.003   6.156   9.229  1.8660 -2.2021  0.1593
  103OSM   H12G10514   0.862   6.150   9.338  0.0591 -0.2781 -0.0025
  103OSM   C13F10515   0.847   6.004   9.184  0.4365 -0.2900 -0.1591
  103OSM   H13F10516   0.909   5.926   9.135  1.5413  0.6017 -0.2122
  103OSM   H13G10517   0.770   5.958   9.250 -0.0926  0.7243 -0.0548
  103OSM   C14F10518   0.771   6.083   9.082  0.7599  0.2674  0.2320
  103OSM   H14F10519   0.719   6.007   9.019  1.5780 -0.9723  0.9948
  103OSM   H14G10520   0.838   6.134   9.010 -1.8003 -0.0930 -2.6351
  103OSM   C15F10521   0.665   6.177   9.152  0.4870  0.7027 -0.5496
  103OSM   H15F10522   0.715   6.249   9.220  3.6034 -1.6230 -0.1946
  103OSM   H15G10523   0.599   6.108   9.210  0.9768  0.2074 -0.5759
  103OSM   C16F10524   0.577   6.240   9.044 -0.3168  0.7973  0.0635
  103OSM   H16F10525   0.506   6.316   9.081 -1.5818 -0.9711  1.4689
  103OSM   H16G10526   0.520   6.152   9.007  0.2602  1.3231 -2.2120
  103OSM   C17F10527   0.651   6.291   8.919 -0.4403  0.2999 -0.2844
  103OSM   H17F10528   0.689   6.211   8.852 -1.5438  0.4522 -1.1250
  103OSM   H17G10529   0.726   6.366   8.950  0.6882 -0.4869 -1.0494
  103OSM   C18F10530   0.546   6.358   8.831  0.2168 -0.1798 -0.3203
  103OSM   H18F10531   0.591   6.402   8.739 -0.2688 -0.0046 -0.4775
  103OSM   H18G10532   0.475   6.426   8.883  2.3959  1.9314  0.0778
  103OSM   H18H10533   0.480   6.280   8.787 -0.4296  0.0553  0.2127
  104OSM      N10534   4.776   4.432  10.845  0.0693  0.0432  0.1810
  104OSM    C1510535   4.645   4.415  10.904 -0.0625 -0.1351 -0.3542
  104OSM   H15A10536   4.627   4.493  10.977  2.2802 -0.0591  0.1979
  104OSM   H15B10537   4.630   4.324  10.959 -0.1188  0.3952  0.5255
  104OSM   H15C10538   4.571   4.422  10.825 -0.3471  1.4724  0.0104
  104OSM    C1410539   4.875   4.437  10.954 -0.1604  0.0099  0.6304
  104OSM   H14A10540   4.868   4.526  11.014  0.3018 -1.5422  3.1536
  104OSM   H14B10541   4.976   4.423  10.918 -0.4518 -2.7680  0.6829
  104OSM   H14C10542   4.870   4.350  11.017  1.9837 -0.7048 -0.0801
  104OSM    C1310543   4.807   4.317  10.756 -0.3219 -0.7487  0.5137
  104OSM   H13A10544   4.909   4.332  10.722 -0.3125 -1.4188  0.2342
  104OSM   H13B10545   4.742   4.314  10.670 -3.4007  3.1345  2.3390
  104OSM   H13C10546   4.815   4.223  10.808  0.1797 -0.9275  0.1204
  104OSM    C1210547   4.785   4.564  10.776 -0.2971  0.5629 -0.4469
  104OSM   H12A10548   4.887   4.584  10.747  0.5814 -0.9082  1.3585
  104OSM   H12B10549   4.758   4.639  10.849  0.6321 -0.0640  0.5718
  104OSM    C1110550   4.698   4.590  10.648 -0.1763 -0.1627  0.1531
  104OSM   H11A10551   4.732   4.535  10.558 -0.8435 -0.2725 -0.0372
  104OSM   H11B10552   4.723   4.696  10.628 -2.8318  0.1620 -2.0651
  104OSM      P10553   4.468   4.484  10.572 -0.1370  0.0869  0.0568
  104OSM    O1310554   4.498   4.343  10.609 -0.3452 -0.1662 -0.3668
  104OSM    O1410555   4.329   4.527  10.579  0.7141  0.0572  0.0790
  104OSM    O1110556   4.512   4.500  10.421  0.5868 -0.2539  0.5130
  104OSM    O1210557   4.559   4.576  10.663  0.4829  0.5200  0.1298
  104OSM    C1S10558   4.543   4.629  10.372  0.3065  0.2361  0.2048
  104OSM    H1S10559   4.643   4.661  10.407  1.1319 -1.7399 -0.2055
  104OSM    H1T10560   4.468   4.706  10.398 -1.0098 -0.6959 -0.7099
  104OSM     NF10561   4.603   4.743  10.159 -0.2764  0.1499  0.3301
  104OSM    HNF10562   4.551   4.813  10.112 -0.9032  0.1553  1.0125
  104OSM    C2S10563   4.530   4.635  10.216 -0.1937  0.1827  0.1445
  104OSM    H2S10564   4.586   4.544  10.186  0.2043  0.4619  0.0225
  104OSM    C3S10565   4.386   4.624  10.172 -0.3430  0.3366 -0.3667
  104OSM    H3S10566   4.331   4.719  10.187 -0.7194 -0.1509  1.6607
  104OSM     O310567   4.301   4.543  10.243 -0.1242 -0.1112  0.2347
  104OSM    HO310568   4.339   4.515  10.327 -2.8955  0.5398  1.8541
  104OSM    C4S10569   4.375   4.601  10.023 -0.0961  0.0735 -0.0991
  104OSM    H4S10570   4.370   4.690   9.959  0.4164 -0.4714 -0.9177
  104OSM    C5S10571   4.367   4.485   9.949 -0.4083 -0.3125  0.4662
  104OSM    H5S10572   4.330   4.389   9.987  1.1006 -1.8140 -1.6094
  104OSM    C6S10573   4.343   4.492   9.795  0.0863 -0.0444 -0.1314
  104OSM    H6S10574   4.243   4.538   9.781  1.0752  2.5079  0.7331
  104OSM    H6T10575   4.348   4.390   9.752 -1.0472  0.8368 -2.5534
  104OSM    C7S10576   4.443   4.576   9.723  0.2118 -0.4499 -0.8016
  104OSM    H7S10577   4.545   4.541   9.749  0.5899  1.5569  0.5947
  104OSM    H7T10578   4.436   4.682   9.755  0.2496 -1.4793  3.2111
  104OSM    C8S10579   4.431   4.569   9.567  0.3873  0.2973 -0.2587
  104OSM    H8S10580   4.323   4.593   9.559 -0.4402 -3.4990 -3.0649
  104OSM    H8T10581   4.449   4.461   9.548  2.2407  0.4986  0.1177
  104OSM    C9S10582   4.519   4.660   9.489  0.0890 -1.3497 -0.1679
  104OSM    H9S10583   4.625   4.636   9.509  0.1939 -2.5593 -1.9572
  104OSM    H9T10584   4.492   4.767   9.507 -1.6475 -1.5069 -1.6367
  104OSM   C10S10585   4.496   4.633   9.334  0.1447 -0.6860 -0.4343
  104OSM   H10S10586   4.389   4.645   9.307  0.5494  0.8718 -1.4224
  104OSM   H10T10587   4.511   4.525   9.312 -1.0604 -1.2349  1.1765
  104OSM   C11S10588   4.585   4.718   9.245  0.1893  0.4029  0.1008
  104OSM   H11S10589   4.688   4.680   9.266  0.9793  1.9535 -0.7351
  104OSM   H11T10590   4.587   4.827   9.269  0.9007  0.9521 -2.1633
  104OSM   C12S10591   4.538   4.716   9.100 -0.1327 -0.1514  0.4938
  104OSM   H12S10592   4.430   4.741   9.092  0.2404  1.3601 -0.1824
  104OSM   H12T10593   4.551   4.610   9.068  0.5221 -0.7254  2.5445
  104OSM   C13S10594   4.612   4.820   9.022 -0.5399 -0.3651  0.2014
  104OSM   H13S10595   4.722   4.804   9.024 -0.8796 -3.3522 -0.4425
  104OSM   H13T10596   4.593   4.918   9.072 -0.7616  0.0630 -0.6904
  104OSM   C14S10597   4.547   4.841   8.885 -0.8929  0.0802 -0.6672
  104OSM   H14S10598   4.440   4.871   8.877 -0.1757  2.5354 -2.1829
  104OSM   H14T10599   4.551   4.742   8.835 -0.8681 -0.5603  0.5638
  104OSM   C15S10600   4.635   4.942   8.811 -0.2931 -0.4941 -0.0843
  104OSM   H15S10601   4.745   4.927   8.817 -0.3180 -0.3039  1.1077
  104OSM   H15T10602   4.624   5.041   8.861 -0.5864 -0.1500 -0.8256
  104OSM   C16S10603   4.599   4.960   8.663  0.2227  0.5654  0.6140
  104OSM   H16S10604   4.491   4.989   8.659  0.0156 -0.1502  0.9478
  104OSM   H16T10605   4.610   4.862   8.612  0.6887  0.2954  1.2231
  104OSM   C17S10606   4.686   5.059   8.588  0.1586  0.5717 -0.2158
  104OSM   H17S10607   4.662   5.065   8.479 -1.1137 -0.3788 -0.0104
  104OSM   H17T10608   4.789   5.018   8.585  1.6905  4.0281 -0.7783
  104OSM   C18S10609   4.697   5.197   8.655  0.0267  0.3939  0.7085
  104OSM   H18S10610   4.596   5.239   8.674  0.1988  1.5578 -0.8097
  104OSM   H18T10611   4.751   5.265   8.586  0.7579 -1.0256 -0.1598
  104OSM   H18U10612   4.748   5.184   8.753 -0.6910 -0.8893  0.9322
  104OSM    C1F10613   4.736   4.765  10.163 -0.3280 -0.5378 -0.4969
  104OSM     OF10614   4.815   4.695  10.224  0.1183  0.0835  0.5051
  104OSM    C2F10615   4.793   4.869  10.076  0.4070  0.3986 -0.1667
  104OSM    H2F10616   4.903   4.865  10.091  0.2771  0.9717  1.0682
  104OSM    H2G10617   4.760   4.974  10.091  0.0041  0.5359 -1.8497
  104OSM    C3F10618   4.776   4.831   9.931  0.0643 -0.8450  0.3694
  104OSM    H3F10619   4.671   4.846   9.900  0.6130  1.8698 -0.5478
  104OSM    H3G10620   4.815   4.732   9.899 -0.1691 -0.7923 -0.0844
  104OSM    C4F10621   4.834   4.933   9.835 -0.1239 -0.5646 -0.3605
  104OSM    H4F10622   4.939   4.954   9.865  0.6465 -2.7399 -1.3174
  104OSM    H4G10623   4.770   5.022   9.850 -1.0718 -1.4929  1.4916
  104OSM    C5F10624   4.840   4.895   9.688  0.4890  0.3103  0.4990
  104OSM    H5F10625   4.739   4.876   9.647 -0.3017  0.4098  2.3016
  104OSM    H5G10626   4.899   4.801   9.674  0.0392 -0.3235  2.5898
  104OSM    C6F10627   4.902   5.009   9.610 -0.4672  0.9001  0.1662
  104OSM    H6F10628   5.001   5.026   9.659 -1.0652 -0.5191  2.0076
  104OSM    H6G10629   4.828   5.089   9.629 -3.0238 -1.2476 -0.2730
  104OSM    C7F10630   4.909   4.968   9.464 -0.4150 -0.1762  0.9470
  104OSM    H7F10631   4.905   5.064   9.408  0.3325 -0.1095  1.0033
  104OSM    H7G10632   4.812   4.921   9.435  0.8673 -2.0126 -0.6335
  104OSM    C8F10633   5.031   4.887   9.423 -0.4109  0.7745 -0.4301
  104OSM    H8F10634   5.018   4.844   9.322 -1.3594 -3.1402  1.1789
  104OSM    H8G10635   5.038   4.793   9.481  0.1635  0.1138 -1.5351
  104OSM    C9F10636   5.165   4.953   9.450 -0.1449  0.3739 -0.1458
  104OSM    H9F10637   5.190   4.952   9.557 -1.6688  0.5889  0.2411
  104OSM   C10F10638   5.240   5.006   9.356 -0.5864  0.1569 -0.2414
  104OSM   H10F10639   5.341   5.048   9.366 -0.4160 -0.6054  1.6674
  104OSM   C11F10640   5.215   4.998   9.208 -0.0725  0.4038  0.4114
  104OSM   H11F10641   5.149   4.917   9.171  1.5195  0.0348 -1.8068
  104OSM   H11G10642   5.311   4.986   9.154  0.9767  1.7061  1.8989
  104OSM   C12F10643   5.137   5.121   9.163 -0.2087  0.3953  0.2953
  104OSM   H12F10644   5.177   5.218   9.199 -1.2703  0.7487  0.5723
  104OSM   H12G10645   5.036   5.097   9.201 -0.2171 -1.5661 -0.8403
  104OSM   C13F10646   5.152   5.116   9.008 -0.7136 -1.1781  0.3490
  104OSM   H13F10647   5.166   5.008   8.986  0.1242 -0.7952 -1.0524
  104OSM   H13G10648   5.247   5.164   8.978 -1.5959  0.1378 -0.4640
  104OSM   C14F10649   5.034   5.172   8.932  0.1925  0.3291  0.2608
  104OSM   H14F10650   5.012   5.270   8.980 -0.6782 -0.4673  1.5436
  104OSM   H14G10651   4.951   5.101   8.949  0.0252  0.5138  0.2209
  104OSM   C15F10652   5.045   5.187   8.783  0.0263  0.2595  1.0740
  104OSM   H15F10653   4.956   5.215   8.723  2.0603 -0.6081 -2.6578
  104OSM   H15G10654   5.065   5.085   8.743  0.6072 -0.7612  3.7889
  104OSM   C16F10655   5.155   5.282   8.730 -0.4815 -0.0122 -0.2126
  104OSM   H16F10656   5.251   5.247   8.771 -0.1113 -1.4457 -2.1982
  104OSM   H16G10657   5.149   5.388   8.764  0.0163  0.4417 -1.4684
  104OSM   C17F10658   5.153   5.293   8.577 -0.4020 -0.4403  0.3021
  104OSM   H17F10659   5.067   5.357   8.546  0.1463  0.0425 -0.2616
  104OSM   H17G10660   5.133   5.193   8.533 -1.0580 -0.6720  1.1139
  104OSM   C18F10661   5.282   5.362   8.519 -0.1468  0.1250 -0.0820
  104OSM   H18F10662   5.280   5.470   8.542 -1.5555 -0.2447  1.7496
  104OSM   H18G10663   5.277   5.351   8.408 -0.7099 -1.7030  0.0780
  104OSM   H18H10664   5.373   5.315   8.561  0.3022  1.1493  0.0995
  105OSM      N10665   5.531   4.265  10.784 -0.0974  0.3026  0.4350
  105OSM    C1510666   5.444   4.205  10.886 -1.3174  0.8625 -0.8105
  105OSM   H15A10667   5.434   4.102  10.856 -0.7008 -0.0424  1.7714
  105OSM   H15B10668   5.341   4.235  10.874 -1.6426 -0.2760 -1.0367
  105OSM   H15C10669   5.485   4.198  10.986 -1.8355 -1.4247 -0.6980
  105OSM    C1410670   5.541   4.416  10.811  0.2111  0.5406  0.2028
  105OSM   H14A10671   5.483   4.475  10.742 -0.1981  0.4858  0.4974
  105OSM   H14B10672   5.645   4.445  10.807  0.2163  0.3410 -1.4924
  105OSM   H14C10673   5.510   4.444  10.911  2.7272  0.8749  0.9653
  105OSM    C1310674   5.668   4.206  10.795  0.0844  0.3534 -0.9894
  105OSM   H13A10675   5.711   4.219  10.893 -1.5889 -1.6727  0.0965
  105OSM   H13B10676   5.738   4.254  10.728  0.6207  0.8352 -0.0974
  105OSM   H13C10677   5.667   4.103  10.762 -0.3251  0.5995 -1.7666
  105OSM    C1210678   5.481   4.239  10.642  0.1582 -0.2602 -0.0751
  105OSM   H12A10679   5.487   4.134  10.617  1.2507 -0.3447  0.4956
  105OSM   H12B10680   5.550   4.281  10.571  0.1084  0.4193  0.2719
  105OSM    C1110681   5.336   4.276  10.627 -0.2847  0.0441 -0.0918
  105OSM   H11A10682   5.273   4.207  10.687  1.3673  0.2658  1.9864
  105OSM   H11B10683   5.302   4.235  10.529  2.6721  0.6957 -1.5058
  105OSM      P10684   5.184   4.455  10.734 -0.2541  0.3924 -0.3365
  105OSM    O1310685   5.165   4.345  10.834  0.2041  0.0749 -0.8022
  105OSM    O1410686   5.201   4.594  10.787  0.2381 -0.3077  0.5520
  105OSM    O1110687   5.067   4.454  10.633 -0.2947 -0.1304  0.0223
  105OSM    O1210688   5.304   4.411  10.635 -0.4074 -1.1288 -0.6530
  105OSM    C1S10689   5.061   4.542  10.518 -0.0322  0.2375 -0.5048
  105OSM    H1S10690   5.140   4.620  10.526  0.3543 -0.0688 -1.2457
  105OSM    H1T10691   4.967   4.601  10.520  0.2215  0.6871 -1.3343
  105OSM     NF10692   5.070   4.567  10.267 -0.1018 -0.1661 -0.5950
  105OSM    HNF10693   4.985   4.586  10.218  0.2063 -0.6220 -1.3148
  105OSM    C2S10694   5.069   4.472  10.382 -0.4947 -0.0334 -0.6132
  105OSM    H2S10695   5.166   4.418  10.374  0.8359  2.0247  0.8078
  105OSM    C3S10696   4.957   4.362  10.369 -0.2934  0.5529  0.6098
  105OSM    H3S10697   4.864   4.405  10.411 -0.0685  0.6548  1.0024
  105OSM     O310698   4.996   4.246  10.446  0.0587 -0.3383  0.9325
  105OSM    HO310699   5.038   4.287  10.522  0.2143 -0.9941  1.2015
  105OSM    C4S10700   4.931   4.324  10.225  0.4941  0.1767 -0.1500
  105OSM    H4S10701   5.002   4.253  10.180 -1.1875  0.6837 -3.9972
  105OSM    C5S10702   4.828   4.361  10.139 -0.7980 -0.2520 -0.3170
  105OSM    H5S10703   4.773   4.449  10.176  0.2985  0.4675 -0.3551
  105OSM    C6S10704   4.803   4.325   9.994  0.4709  0.3357 -0.3854
  105OSM    H6S10705   4.692   4.330   9.987  0.4119 -1.0555 -0.8211
  105OSM    H6T10706   4.841   4.222   9.974  0.4588 -0.2613  2.3435
  105OSM    C7S10707   4.864   4.424   9.896 -0.9680 -0.2048  1.1127
  105OSM    H7S10708   4.971   4.450   9.910 -0.5567 -0.1354 -1.6178
  105OSM    H7T10709   4.826   4.529   9.901  1.2191  0.6898  0.2814
  105OSM    C8S10710   4.833   4.371   9.750  0.3302 -0.5466  0.5390
  105OSM    H8S10711   4.723   4.377   9.734  0.2521  0.3117  1.3309
  105OSM    H8T10712   4.879   4.270   9.746 -0.5714 -0.9776  0.7672
  105OSM    C9S10713   4.910   4.452   9.645  0.1155  0.1967  0.2592
  105OSM    H9S10714   5.017   4.476   9.666 -0.1767  1.4963  0.3551
  105OSM    H9T10715   4.860   4.551   9.645  0.6416  0.5255 -2.3917
  105OSM   C10S10716   4.898   4.393   9.505 -0.3390 -0.4783  0.7098
  105OSM   H10S10717   4.794   4.366   9.476  0.6340 -1.1803 -2.5615
  105OSM   H10T10718   4.952   4.296   9.511 -0.0559 -0.3676  0.0781
  105OSM   C11S10719   4.945   4.478   9.387  0.0194  0.1537 -0.5224
  105OSM   H11S10720   5.056   4.483   9.374  0.1554 -1.6430 -0.3387
  105OSM   H11T10721   4.902   4.580   9.384 -0.5434 -0.0969 -1.5837
  105OSM   C12S10722   4.902   4.408   9.259  0.1501 -0.0568 -0.3050
  105OSM   H12S10723   4.791   4.412   9.260  0.1190 -0.8769  0.3327
  105OSM   H12T10724   4.936   4.302   9.265  1.5910  0.3551 -0.9001
  105OSM   C13S10725   4.959   4.465   9.129 -0.6718  0.5023 -0.4203
  105OSM   H13S10726   5.069   4.461   9.148 -0.7583  3.5105  1.4429
  105OSM   H13T10727   4.937   4.572   9.109 -0.2227  0.6820  0.0228
  105OSM   C14S10728   4.922   4.408   8.993  0.6863 -0.1238  0.0195
  105OSM   H14S10729   4.953   4.302   8.990 -0.9202 -0.6645 -3.7573
  105OSM   H14T10730   4.976   4.461   8.912  0.3259 -1.1628 -0.9327
  105OSM   C15S10731   4.775   4.415   8.960 -0.1686  0.3622  0.3775
  105OSM   H15S10732   4.756   4.524   8.972 -1.5219  0.2469 -0.5349
  105OSM   H15T10733   4.704   4.358   9.023 -1.0196  2.2753  1.2181
  105OSM   C16S10734   4.762   4.362   8.817  0.6992  0.2910 -0.0323
  105OSM   H16S10735   4.797   4.256   8.825  2.0223  0.8098  1.5253
  105OSM   H16T10736   4.839   4.413   8.756 -0.7719  0.9252 -1.4235
  105OSM   C17S10737   4.621   4.398   8.762  0.1615  1.0120  0.0958
  105OSM   H17S10738   4.606   4.507   8.775  1.3474  1.1513  0.3460
  105OSM   H17T10739   4.551   4.337   8.823  0.0246 -1.0858 -1.9853
  105OSM   C18S10740   4.607   4.357   8.615  0.1065 -0.0560  0.2214
  105OSM   H18S10741   4.690   4.397   8.554  0.3245 -2.1163 -0.9437
  105OSM   H18T10742   4.509   4.396   8.579 -0.8951 -0.8340  1.9242
  105OSM   H18U10743   4.624   4.249   8.594 -0.5189  0.3391 -2.6076
  105OSM    C1F10744   5.176   4.636  10.243 -0.2199 -0.0840 -0.6749
  105OSM     OF10745   5.265   4.638  10.329 -0.0436  0.5546  0.4494
  105OSM    C2F10746   5.186   4.721  10.118  0.2453  0.0487  0.8640
  105OSM    H2F10747   5.224   4.823  10.139  0.0891  0.6889 -1.6099
  105OSM    H2G10748   5.084   4.739  10.075  2.0559  1.0453 -3.6626
  105OSM    C3F10749   5.253   4.644   9.998  0.8938 -0.2852  0.8599
  105OSM    H3F10750   5.187   4.555   9.996  1.0991 -0.5020  2.3424
  105OSM    H3G10751   5.353   4.607  10.031  1.2050 -0.4210 -0.2031
  105OSM    C4F10752   5.271   4.703   9.853 -0.2381 -0.7165  0.6032
  105OSM    H4F10753   5.335   4.794   9.851  2.2006 -2.1196 -4.5562
  105OSM    H4G10754   5.181   4.717   9.790  0.9809 -1.9633 -1.6014
  105OSM    C5F10755   5.351   4.607   9.772  0.7364 -0.2895  0.0227
  105OSM    H5F10756   5.328   4.499   9.780 -0.4824  0.1078  2.7453
  105OSM    H5G10757   5.456   4.607   9.809 -0.0167  1.1572  2.3321
  105OSM    C6F10758   5.350   4.633   9.615  0.1404 -0.1233 -0.4318
  105OSM    H6F10759   5.362   4.738   9.579  1.3659 -0.7075 -1.7904
  105OSM    H6G10760   5.248   4.602   9.583 -0.5338  0.2364  1.2488
  105OSM    C7F10761   5.439   4.542   9.535 -0.4300 -0.1363  0.3723
  105OSM    H7F10762   5.452   4.443   9.585  0.6764  0.4161  1.2318
  105OSM    H7G10763   5.541   4.585   9.549 -0.2718 -0.6598  0.9102
  105OSM    C8F10764   5.407   4.524   9.389 -0.2832  0.1031  0.4436
  105OSM    H8F10765   5.357   4.614   9.347  0.8494  1.0077  0.9664
  105OSM    H8G10766   5.321   4.453   9.382 -1.3830  1.4050  0.2882
  105OSM    C9F10767   5.527   4.476   9.317 -0.0998 -0.3322 -0.4206
  105OSM    H9F10768   5.542   4.368   9.332 -2.5340 -0.4139  2.7117
  105OSM   C10F10769   5.615   4.552   9.248 -0.3786 -0.0392 -0.8169
  105OSM   H10F10770   5.703   4.504   9.203  0.8303 -0.1194  1.4636
  105OSM   C11F10771   5.599   4.696   9.224  0.2685 -0.1443 -0.5657
  105OSM   H11F10772   5.698   4.744   9.235 -0.5146  1.1080  1.6389
  105OSM   H11G10773   5.536   4.736   9.306  1.9818 -1.4817  1.5018
  105OSM   C12F10774   5.549   4.723   9.084  0.7030 -0.6537  0.6024
  105OSM   H12F10775   5.587   4.648   9.012  1.9164 -1.2516  1.8217
  105OSM   H12G10776   5.579   4.823   9.044 -1.1250 -0.2084  0.2550
  105OSM   C13F10777   5.392   4.720   9.070  0.4830 -0.5122 -0.2656
  105OSM   H13F10778   5.357   4.784   9.154  2.0506 -1.4897  1.1921
  105OSM   H13G10779   5.357   4.615   9.078  1.1957 -0.8832 -1.7269
  105OSM   C14F10780   5.345   4.764   8.931 -0.1483  0.5781 -0.5895
  105OSM   H14F10781   5.401   4.695   8.864  0.8653  0.4323  0.3751
  105OSM   H14G10782   5.379   4.867   8.906 -0.2103  0.6212 -0.4965
  105OSM   C15F10783   5.195   4.747   8.916 -0.2875 -0.5511  0.0479
  105OSM   H15F10784   5.147   4.810   8.994  0.1960 -0.4886  0.3021
  105OSM   H15G10785   5.173   4.642   8.945 -1.0759  0.0608  1.8316
  105OSM   C16F10786   5.151   4.768   8.774  0.1066 -0.4391 -0.2256
  105OSM   H16F10787   5.178   4.678   8.714 -2.9349 -0.2528 -2.0874
  105OSM   H16G10788   5.202   4.859   8.737 -0.5903 -0.1864 -0.5837
  105OSM   C17F10789   5.004   4.790   8.740  0.0467 -0.0856 -0.4056
  105OSM   H17F10790   4.962   4.877   8.794 -2.1073 -0.5334 -1.2587
  105OSM   H17G10791   4.953   4.698   8.775 -0.4371 -0.5800 -2.3305
  105OSM   C18F10792   4.976   4.804   8.593 -1.2323 -0.5614 -0.0144
  105OSM   H18F10793   5.025   4.896   8.554 -0.6817 -0.9367 -0.2158
  105OSM   H18G10794   4.868   4.803   8.567 -1.8237 -1.8169  2.2046
  105OSM   H18H10795   5.024   4.716   8.545 -1.0372 -0.9171  0.8101
  106OSM      N10796   6.165   2.915  10.656  0.4372  0.1019  0.2314
  106OSM    C1510797   6.020   2.875  10.647  0.2776  0.3361 -0.2567
  106OSM   H15A10798   6.008   2.768  10.656  1.0705  0.2786  0.1749
  106OSM   H15B10799   5.965   2.901  10.558 -1.4190 -2.0652 -0.0303
  106OSM   H15C10800   5.967   2.913  10.733  2.5000 -1.3174  2.0151
  106OSM    C1410801   6.220   2.865  10.791 -0.8208 -0.2551  0.0082
  106OSM   H14A10802   6.199   2.759  10.796  1.0463 -0.7169 -1.1169
  106OSM   H14B10803   6.173   2.913  10.876 -0.5214  0.9820 -0.5058
  106OSM   H14C10804   6.326   2.883  10.798 -0.8025 -0.9013  1.8538
  106OSM    C1310805   6.240   2.836  10.556 -0.2881 -0.5006 -0.2914
  106OSM   H13A10806   6.211   2.853  10.453 -0.0231 -0.5625 -0.3764
  106OSM   H13B10807   6.206   2.736  10.580 -1.0724 -0.3161 -0.6015
  106OSM   H13C10808   6.348   2.837  10.558 -0.3000  0.0242  0.4125
  106OSM    C1210809   6.171   3.069  10.651 -0.3579 -0.3906  0.9482
  106OSM   H12A10810   6.128   3.106  10.743 -0.4867  0.5843  0.5074
  106OSM   H12B10811   6.115   3.104  10.565 -0.3719  0.3003  1.2323
  106OSM    C1110812   6.316   3.131  10.636  0.2286  0.4704 -0.0092
  106OSM   H11A10813   6.293   3.240  10.636 -2.2050 -0.0027 -0.4168
  106OSM   H11B10814   6.342   3.098  10.533 -0.5390 -1.5400  0.3935
  106OSM      P10815   6.539   3.017  10.720 -0.3306  0.1091  0.0978
  106OSM    O1310816   6.641   3.119  10.762  1.0905  0.3190 -0.2508
  106OSM    O1410817   6.540   2.883  10.787  0.3935  0.3864 -0.1111
  106OSM    O1110818   6.543   3.003  10.559 -0.2057  0.1039 -0.1014
  106OSM    O1210819   6.396   3.085  10.749 -0.4256 -0.3741  1.0387
  106OSM    C1S10820   6.663   2.955  10.491 -0.1369  0.8525  0.0793
  106OSM    H1S10821   6.663   2.844  10.487  0.9333  0.5869  3.6823
  106OSM    H1T10822   6.757   2.972  10.546  0.6179 -2.0776 -0.1162
  106OSM     NF10823   6.786   2.945  10.277  0.0878 -0.6961 -0.5740
  106OSM    HNF10824   6.865   3.005  10.262 -0.3881  0.1100  0.0984
  106OSM    C2S10825   6.674   3.005  10.343  0.1884 -0.3737 -0.5752
  106OSM    H2S10826   6.576   2.977  10.298  0.9854 -0.7694 -2.1150
  106OSM    C3S10827   6.676   3.158  10.338 -0.0022 -0.5276 -0.2941
  106OSM    H3S10828   6.769   3.197  10.386 -1.6099  1.4808  1.3678
  106OSM     O310829   6.583   3.227  10.423 -0.5825  0.2554 -0.7163
  106OSM    HO310830   6.534   3.153  10.460  0.9494 -1.1706 -1.4195
  106OSM    C4S10831   6.666   3.202  10.197 -0.2005 -0.4744 -0.7767
  106OSM    H4S10832   6.623   3.120  10.137  1.6222 -2.8292  0.9530
  106OSM    C5S10833   6.724   3.313  10.146 -0.4716 -0.3946 -0.0878
  106OSM    H5S10834   6.761   3.393  10.212 -0.6180  0.2355 -0.7619
  106OSM    C6S10835   6.729   3.354   9.995 -0.1690  0.1404 -0.3938
  106OSM    H6S10836   6.829   3.386   9.961 -0.8712  2.2077 -0.6479
  106OSM    H6T10837   6.668   3.446   9.985 -0.3066  0.0928 -0.0127
  106OSM    C7S10838   6.675   3.254   9.893 -0.0786 -0.1930  0.8012
  106OSM    H7S10839   6.687   3.311   9.798  0.2196 -1.6909 -0.0993
  106OSM    H7T10840   6.573   3.210   9.901  0.8375 -3.0325 -1.3088
  106OSM    C8S10841   6.770   3.128   9.881 -0.0665  0.1250 -0.1948
  106OSM    H8S10842   6.765   3.056   9.965  1.6080 -1.9494 -1.7616
  106OSM    H8T10843   6.876   3.160   9.873  1.3959 -4.1858 -0.2912
  106OSM    C9S10844   6.758   3.037   9.759  0.0288 -0.4389  0.0018
  106OSM    H9S10845   6.649   3.025   9.743  0.4512 -1.8718 -2.2202
  106OSM    H9T10846   6.787   2.930   9.769 -1.5053 -0.8341  0.3996
  106OSM   C10S10847   6.828   3.089   9.637  0.5155 -0.3134  0.7352
  106OSM   H10S10848   6.934   3.103   9.669  0.4940 -2.7572  2.2130
  106OSM   H10T10849   6.776   3.179   9.600  3.5211  1.3807  0.3006
  106OSM   C11S10850   6.824   2.979   9.534  0.2881 -0.0491  0.3353
  106OSM   H11S10851   6.723   2.945   9.502  1.3254 -2.2880 -0.8491
  106OSM   H11T10852   6.871   2.890   9.581  0.3238 -0.7790 -0.9996
  106OSM   C12S10853   6.899   3.000   9.395 -0.0282 -0.6099 -0.2462
  106OSM   H12S10854   6.998   3.040   9.424 -0.2247  0.7989 -1.4229
  106OSM   H12T10855   6.852   3.090   9.351  1.0036  0.4911  0.8480
  106OSM   C13S10856   6.905   2.892   9.287 -0.9733  0.3346  0.0571
  106OSM   H13S10857   6.808   2.841   9.271 -1.9806  2.0582  0.5228
  106OSM   H13T10858   6.973   2.809   9.318 -1.4724  0.3306  1.2130
  106OSM   C14S10859   6.969   2.947   9.160 -0.0238  0.6478 -0.5396
  106OSM   H14S10860   7.072   2.981   9.183  0.4735 -0.2656 -1.3782
  106OSM   H14T10861   6.903   3.033   9.134 -2.6068 -0.6939  1.1216
  106OSM   C15S10862   6.976   2.866   9.031  0.0015 -0.6525 -0.4897
  106OSM   H15S10863   7.001   2.759   9.049  0.3739 -0.4154  0.4439
  106OSM   H15T10864   7.048   2.916   8.963 -0.1386  0.4625  0.1509
  106OSM   C16S10865   6.841   2.868   8.945 -0.0949  0.0353  0.5983
  106OSM   H16S10866   6.818   2.974   8.919 -0.8669  0.3482  2.3400
  106OSM   H16T10867   6.750   2.843   9.004  0.0500 -0.2174  0.7157
  106OSM   C17S10868   6.853   2.787   8.817 -0.2549  0.1940  0.7314
  106OSM   H17S10869   6.751   2.797   8.774  0.4035 -0.3101 -1.0397
  106OSM   H17T10870   6.865   2.681   8.849 -1.7997 -0.7921 -1.6361
  106OSM   C18S10871   6.964   2.824   8.727  0.1000 -0.0559 -0.0182
  106OSM   H18S10872   6.962   2.935   8.717 -1.2158  0.1467  1.8695
  106OSM   H18T10873   6.943   2.769   8.633 -0.5887  0.3031 -0.0843
  106OSM   H18U10874   7.062   2.794   8.768  1.5441 -0.9608 -3.6905
  106OSM    C1F10875   6.796   2.817  10.248  0.0644 -0.0716 -0.0452
  106OSM     OF10876   6.700   2.741  10.260  0.1375  0.7763 -0.0099
  106OSM    C2F10877   6.926   2.773  10.194 -0.4069 -0.6786  0.7071
  106OSM    H2F10878   6.947   2.665  10.208  0.1926 -0.7239 -0.4068
  106OSM    H2G10879   7.010   2.825  10.247  0.0460 -1.0250  0.3381
  106OSM    C3F10880   6.949   2.804  10.049  0.6122 -0.4802  0.0385
  106OSM    H3F10881   7.051   2.765  10.026  0.4006 -0.1794 -1.5477
  106OSM    H3G10882   6.945   2.913  10.031 -0.4047 -0.3528  0.9940
  106OSM    C4F10883   6.855   2.716   9.960  0.4495 -0.0252  0.3672
  106OSM    H4F10884   6.757   2.767   9.950  0.9653  0.6587 -1.8649
  106OSM    H4G10885   6.850   2.616  10.009  0.3803 -0.3915 -0.3616
  106OSM    C5F10886   6.911   2.695   9.819 -0.8516  0.2373 -0.5694
  106OSM    H5F10887   7.009   2.642   9.816  0.0830  1.4646  2.8727
  106OSM    H5G10888   6.919   2.786   9.756 -1.3974 -0.5181 -1.7526
  106OSM    C6F10889   6.817   2.595   9.739  0.0548 -0.1081  0.1789
  106OSM    H6F10890   6.713   2.631   9.753 -0.1211 -1.0971  1.6782
  106OSM    H6G10891   6.823   2.499   9.796 -0.9206 -0.9566 -1.1101
  106OSM    C7F10892   6.855   2.594   9.595  0.2309  0.1407  0.6500
  106OSM    H7F10893   6.966   2.581   9.592  0.2830  0.6219 -0.0912
  106OSM    H7G10894   6.844   2.695   9.549 -0.7149 -0.1812  0.1437
  106OSM    C8F10895   6.801   2.491   9.494  0.6348  0.0082  0.7147
  106OSM    H8F10896   6.847   2.391   9.511 -0.4052 -0.8018 -0.9743
  106OSM    H8G10897   6.828   2.523   9.392  0.0720 -0.1684  0.5063
  106OSM    C9F10898   6.649   2.468   9.504 -0.0635  0.1178  0.4100
  106OSM    H9F10899   6.615   2.505   9.602 -0.7194 -0.9863  0.6120
  106OSM   C10F10900   6.553   2.413   9.421 -0.7699  0.1385  0.3378
  106OSM   H10F10901   6.452   2.409   9.465 -0.3814  0.5892  1.2905
  106OSM   C11F10902   6.563   2.344   9.292  0.1528 -0.0371  0.3801
  106OSM   H11F10903   6.497   2.385   9.213  2.3313 -0.7187 -1.9124
  106OSM   H11G10904   6.520   2.243   9.306 -1.1154  0.5648  1.0380
  106OSM   C12F10905   6.703   2.317   9.226  0.6076  0.4896  0.4011
  106OSM   H12F10906   6.745   2.221   9.262 -1.4705 -1.8302 -2.8182
  106OSM   H12G10907   6.767   2.408   9.231  1.7048 -0.1607 -1.1067
  106OSM   C13F10908   6.687   2.288   9.075 -0.5103  0.7752  0.0808
  106OSM   H13F10909   6.592   2.327   9.032 -0.6167 -1.7809 -2.2880
  106OSM   H13G10910   6.684   2.177   9.069  2.1244  0.6346  0.4676
  106OSM   C14F10911   6.801   2.343   8.989 -0.0145 -0.4682  0.5414
  106OSM   H14F10912   6.894   2.298   9.030 -0.9476 -1.5230  1.5875
  106OSM   H14G10913   6.791   2.453   8.982 -3.9219 -0.7582 -1.6463
  106OSM   C15F10914   6.787   2.302   8.836  0.6078 -0.2310  0.0657
  106OSM   H15F10915   6.689   2.326   8.789  0.6863 -0.8891 -0.4540
  106OSM   H15G10916   6.801   2.192   8.830  0.4805 -0.2247 -0.4059
  106OSM   C16F10917   6.881   2.381   8.740  0.0092 -0.0150 -0.6120
  106OSM   H16F10918   6.979   2.355   8.785  0.9220  2.7084 -0.8170
  106OSM   H16G10919   6.868   2.490   8.756 -1.1171 -0.2509  0.2485
  106OSM   C17F10920   6.884   2.332   8.596 -0.0309 -0.1879 -0.2956
  106OSM   H17F10921   6.876   2.221   8.597  1.2070 -0.2876  0.1524
  106OSM   H17G10922   6.988   2.353   8.563 -0.5343 -0.5256 -2.2135
  106OSM   C18F10923   6.778   2.393   8.504  0.2517  0.0277 -0.4090
  106OSM   H18F10924   6.805   2.499   8.483  2.2979 -0.8719 -2.8953
  106OSM   H18G10925   6.681   2.389   8.558 -0.7088  1.0772 -1.9433
  106OSM   H18H10926   6.774   2.340   8.406  1.4228 -0.1300 -0.3865
  107OSM      N10927   1.530   1.255  11.236  0.6666 -0.7532 -0.0138
  107OSM    C1510928   1.663   1.215  11.289 -0.8178  0.7362 -0.3456
  107OSM   H15A10929   1.676   1.109  11.282  0.4092  0.7681  0.9564
  107OSM   H15B10930   1.677   1.234  11.394  1.7791 -2.5684  0.0814
  107OSM   H15C10931   1.750   1.243  11.230 -0.4262 -0.1023 -0.1687
  107OSM    C1410932   1.525   1.221  11.086 -0.3873 -0.0966 -0.2949
  107OSM   H14A10933   1.590   1.287  11.030  1.0865 -0.5512  0.8218
  107OSM   H14B10934   1.426   1.246  11.051 -0.0031  1.5875 -0.2792
  107OSM   H14C10935   1.535   1.116  11.066 -0.6439 -0.3132  0.6409
  107OSM    C1310936   1.412   1.182  11.296  0.5634 -0.1700 -0.4681
  107OSM   H13A10937   1.323   1.213  11.243  0.0348  0.8629  0.9667
  107OSM   H13B10938   1.401   1.204  11.401 -0.5737  0.2594 -0.6606
  107OSM   H13C10939   1.414   1.075  11.279 -1.4162 -0.6013  1.6067
  107OSM    C1210940   1.505   1.400  11.267 -0.8167 -0.2745  0.0639
  107OSM   H12A10941   1.598   1.441  11.301 -0.5421 -0.0068 -0.9813
  107OSM   H12B10942   1.432   1.384  11.345 -1.3023  0.3871 -0.2480
  107OSM    C1110943   1.441   1.496  11.164 -0.4995  0.0579 -0.2817
  107OSM   H11A10944   1.509   1.500  11.077 -0.1621  0.0964 -0.0211
  107OSM   H11B10945   1.443   1.595  11.215  0.1108 -1.1065  2.1038
  107OSM      P10946   1.247   1.491  11.001  0.4080 -0.0135 -0.2998
  107OSM    O1310947   1.099   1.477  11.009  0.0664 -0.3039 -0.3174
  107OSM    O1410948   1.285   1.625  10.960  0.0414  0.4839 -0.0250
  107OSM    O1110949   1.308   1.379  10.907  0.1196  0.7123  0.9482
  107OSM    O1210950   1.306   1.463  11.144 -0.3156  0.3605  0.3335
  107OSM    C1S10951   1.226   1.314  10.812  0.2693 -0.2754  0.1567
  107OSM    H1S10952   1.117   1.334  10.816  0.4048  0.5976 -0.3412
  107OSM    H1T10953   1.232   1.203  10.820  2.2894 -0.3072 -1.2982
  107OSM     NF10954   1.177   1.308  10.574 -0.0087  0.5116  0.2879
  107OSM    HNF10955   1.196   1.218  10.537  1.1137  0.3286  1.2486
  107OSM    C2S10956   1.270   1.357  10.674  0.1807 -0.3273  0.3388
  107OSM    H2S10957   1.272   1.468  10.662 -1.6097 -0.2166  0.6564
  107OSM    C3S10958   1.418   1.316  10.654  0.6164 -0.3302  0.2927
  107OSM    H3S10959   1.422   1.207  10.675  1.0113 -0.3151  0.3153
  107OSM     O310960   1.500   1.390  10.746  0.6431  0.3328 -0.3990
  107OSM    HO310961   1.447   1.392  10.826  2.1776  2.3574  0.6568
  107OSM    C4S10962   1.467   1.350  10.517  0.1103  0.1103 -0.1380
  107OSM    H4S10963   1.485   1.458  10.502  0.3109 -0.1131 -1.6614
  107OSM    C5S10964   1.484   1.269  10.416 -0.3244 -0.0621 -0.2150
  107OSM    H5S10965   1.457   1.163  10.429  1.1614 -0.3905  0.3902
  107OSM    C6S10966   1.545   1.314  10.287 -0.0131  0.3772 -0.5776
  107OSM    H6S10967   1.647   1.270  10.281  0.4570  0.6114  3.4039
  107OSM    H6T10968   1.552   1.425  10.283 -1.4282  0.5387  0.5417
  107OSM    C7S10969   1.465   1.265  10.168  0.1569  0.0100  0.4737
  107OSM    H7S10970   1.355   1.285  10.171 -0.1256 -0.9836 -1.7118
  107OSM    H7T10971   1.480   1.156  10.157 -0.4522  0.1193 -2.2010
  107OSM    C8S10972   1.522   1.330  10.041  0.2764 -0.4256  0.3183
  107OSM    H8S10973   1.630   1.336  10.067  0.0110  0.4080  1.2632
  107OSM    H8T10974   1.504   1.439  10.026  0.0658 -0.4554  0.3534
  107OSM    C9S10975   1.483   1.256   9.909  0.1018  0.5586  0.0489
  107OSM    H9S10976   1.372   1.258   9.896  0.1739  3.3692 -1.0685
  107OSM    H9T10977   1.516   1.151   9.916  2.0979  1.1542  0.2872
  107OSM   C10S10978   1.552   1.327   9.789  0.8750 -0.2913 -0.6276
  107OSM   H10S10979   1.660   1.320   9.815  0.2989  1.4346  2.9212
  107OSM   H10T10980   1.526   1.435   9.787 -0.7604 -0.6825 -1.4723
  107OSM   C11S10981   1.532   1.267   9.651 -1.2270  0.3134 -0.3437
  107OSM   H11S10982   1.423   1.256   9.631 -1.6150  0.8779  1.3331
  107OSM   H11T10983   1.554   1.159   9.661 -2.2737  0.2544  1.6521
  107OSM   C12S10984   1.615   1.318   9.530 -0.9831  0.0303 -0.4883
  107OSM   H12S10985   1.724   1.303   9.544 -1.3013 -2.2172 -0.0633
  107OSM   H12T10986   1.590   1.425   9.517 -0.4872  0.0558 -1.3046
  107OSM   C13S10987   1.598   1.241   9.406 -0.8395 -0.6744  0.8440
  107OSM   H13S10988   1.500   1.266   9.360  0.2025  0.6053 -0.8065
  107OSM   H13T10989   1.602   1.133   9.432  0.3151 -0.4294  1.7570
  107OSM   C14S10990   1.705   1.266   9.294  0.6049 -0.3702  0.0401
  107OSM   H14S10991   1.801   1.221   9.329 -0.0195 -0.3967  1.8242
  107OSM   H14T10992   1.733   1.373   9.290 -1.3939  0.2153  0.8068
  107OSM   C15S10993   1.653   1.204   9.160  0.0804 -0.2990 -0.2161
  107OSM   H15S10994   1.544   1.222   9.154  0.1554  0.5042  0.6940
  107OSM   H15T10995   1.664   1.093   9.162 -0.1066 -0.3335 -0.8333
  107OSM   C16S10996   1.728   1.248   9.039  0.1122 -0.3713 -0.0487
  107OSM   H16S10997   1.698   1.353   9.015  0.2406 -0.7801 -2.1286
  107OSM   H16T10998   1.702   1.196   8.945  1.6986 -1.5845  0.1616
  107OSM   C17S10999   1.879   1.235   9.044  0.6880  0.3444  0.8728
  107OSM   H17S11000   1.891   1.138   9.096  1.5103  0.4184  0.8393
  107OSM   H17T11001   1.930   1.308   9.111  1.6515 -1.1134  1.7767
  107OSM   C18S11002   1.949   1.244   8.902  0.6579 -0.3211 -0.4281
  107OSM   H18S11003   1.957   1.352   8.879 -3.8357  0.0994 -0.9897
  107OSM   H18T11004   1.886   1.190   8.827 -1.8495  0.4575  0.9870
  107OSM   H18U11005   2.053   1.205   8.905  1.2566  1.1880 -0.5622
  107OSM    C1F11006   1.063   1.365  10.549  0.2316  0.2117  0.3694
  107OSM     OF11007   1.025   1.475  10.609 -0.8778  0.6568 -0.0564
  107OSM    C2F11008   0.972   1.286  10.454 -0.2971 -0.7324 -0.0295
  107OSM    H2F11009   0.939   1.195  10.508 -2.4553 -0.9167 -1.5413
  107OSM    H2G11010   1.031   1.250  10.367  1.5648 -0.4524  1.0514
  107OSM    C3F11011   0.847   1.364  10.409  0.3056 -0.3147  0.2392
  107OSM    H3F11012   0.892   1.458  10.372  0.0375 -0.5578 -0.7343
  107OSM    H3G11013   0.774   1.380  10.491 -0.7509  0.8677 -0.8881
  107OSM    C4F11014   0.782   1.290  10.294 -0.3016  1.1774  0.1022
  107OSM    H4F11015   0.863   1.260  10.224 -0.6355 -0.0481  0.2209
  107OSM    H4G11016   0.718   1.363  10.239 -1.4244 -0.5130 -0.9296
  107OSM    C5F11017   0.694   1.162  10.324 -0.6452 -0.3378  0.2206
  107OSM    H5F11018   0.592   1.204  10.334 -0.4055  0.1024  0.8691
  107OSM    H5G11019   0.720   1.112  10.420 -0.0524  0.7772  0.6510
  107OSM    C6F11020   0.682   1.058  10.212 -0.6996  0.4489  0.4613
  107OSM    H6F11021   0.776   1.019  10.168 -0.9245  0.8275 -0.4021
  107OSM    H6G11022   0.646   1.105  10.118 -0.6059 -1.0915 -0.3798
  107OSM    C7F11023   0.575   0.952  10.241  0.6105 -0.1711 -0.8257
  107OSM    H7F11024   0.484   1.000  10.283  0.2083 -0.3074 -1.5185
  107OSM    H7G11025   0.606   0.889  10.328  1.4838  1.6735  0.2670
  107OSM    C8F11026   0.523   0.866  10.126 -0.5757  0.5495  0.5353
  107OSM    H8F11027   0.486   0.932  10.044 -3.0049  0.3565  1.4084
  107OSM    H8G11028   0.436   0.813  10.169 -0.8545  2.0005  1.8336
  107OSM    C9F11029   0.625   0.772  10.076  0.0539  0.0178  0.2307
  107OSM    H9F11030   0.672   0.710  10.154 -0.9693 -0.9440  0.1046
  107OSM   C10F11031   0.666   0.766   9.945  0.2920 -0.4828  0.7043
  107OSM   H10F11032   0.731   0.686   9.908 -0.5552 -0.9991  0.3013
  107OSM   C11F11033   0.602   0.846   9.831 -0.0756  0.0856 -0.0218
  107OSM   H11F11034   0.587   0.955   9.846  0.8939  0.0845  1.0224
  107OSM   H11G11035   0.502   0.803   9.805 -1.0029  1.5163  1.0106
  107OSM   C12F11036   0.678   0.846   9.698 -0.5477  0.0589 -0.5479
  107OSM   H12F11037   0.701   0.743   9.664 -0.9236  0.1096 -0.9590
  107OSM   H12G11038   0.774   0.902   9.708 -0.4760  0.6334 -3.5534
  107OSM   C13F11039   0.598   0.908   9.584 -0.3187  0.2101 -0.0923
  107OSM   H13F11040   0.558   1.009   9.608  0.7576  0.6899 -0.2622
  107OSM   H13G11041   0.514   0.837   9.568 -0.9197  0.8931 -0.0100
  107OSM   C14F11042   0.684   0.930   9.455  0.2630 -0.5076 -0.3996
  107OSM   H14F11043   0.719   0.828   9.430 -2.2100 -1.9111  1.3546
  107OSM   H14G11044   0.764   1.003   9.480 -1.2795  2.1431 -2.5974
  107OSM   C15F11045   0.611   0.988   9.335 -0.0142  0.4135  0.8410
  107OSM   H15F11046   0.572   1.090   9.356  0.3810  0.2785  2.3637
  107OSM   H15G11047   0.521   0.925   9.323 -1.8661  2.5325  2.7075
  107OSM   C16F11048   0.705   0.982   9.215 -0.2725 -0.3820 -0.5000
  107OSM   H16F11049   0.726   0.877   9.188 -0.3328 -0.5078 -0.0768
  107OSM   H16G11050   0.801   1.033   9.241  0.0871  0.1672 -2.7456
  107OSM   C17F11051   0.646   1.057   9.094 -0.4450 -0.1879  0.0692
  107OSM   H17F11052   0.634   1.166   9.111  1.1213  0.2438 -1.3109
  107OSM   H17G11053   0.549   1.006   9.074 -1.4062  0.8889  1.7194
  107OSM   C18F11054   0.740   1.038   8.973 -1.2169 -0.2445  0.1991
  107OSM   H18F11055   0.840   1.072   9.006 -0.7794 -0.6623 -0.6465
  107OSM   H18G11056   0.722   1.091   8.877  2.0613  1.5665  0.4375
  107OSM   H18H11057   0.759   0.930   8.951 -0.7788 -0.2384  0.5296
  108OSM      N11058   4.225   3.855  10.973  0.0946  0.2552  0.8464
  108OSM    C1511059   4.195   3.982  11.055 -0.0215 -0.3590 -0.2534
  108OSM   H15A11060   4.167   3.952  11.154  0.9793 -1.4061 -0.2693
  108OSM   H15B11061   4.126   4.048  11.005 -1.2493 -0.6650  0.9806
  108OSM   H15C11062   4.289   4.036  11.058  0.8213 -1.8403  0.8031
  108OSM    C1411063   4.365   3.794  11.009 -0.5210 -0.5436  0.1209
  108OSM   H14A11064   4.438   3.873  11.019  0.6301 -1.7036  1.2075
  108OSM   H14B11065   4.397   3.722  10.935  1.5319 -0.0900  0.5187
  108OSM   H14C11066   4.365   3.749  11.107 -2.9555 -2.7490 -0.7588
  108OSM    C1311067   4.126   3.751  11.007 -0.0782  0.0508 -0.7936
  108OSM   H13A11068   4.152   3.698  11.097  2.1352  1.0995 -0.7429
  108OSM   H13B11069   4.118   3.672  10.935 -1.4963  0.1537 -0.7804
  108OSM   H13C11070   4.025   3.790  11.011  0.3394  1.2678 -1.5718
  108OSM    C1211071   4.220   3.889  10.824 -0.5968  0.2106 -0.0546
  108OSM   H12A11072   4.219   3.798  10.765  3.1862  0.6491 -1.0796
  108OSM   H12B11073   4.313   3.938  10.799 -0.2926 -0.3162  0.0363
  108OSM    C1111074   4.104   3.974  10.784  0.3690  0.3315  0.2369
  108OSM   H11A11075   4.008   3.932  10.823  0.0134  1.1008  0.1977
  108OSM   H11B11076   4.119   3.969  10.674 -0.4293 -0.5220  0.1520
  108OSM      P11077   4.018   4.209  10.772 -0.2059  0.1137  0.3226
  108OSM    O1311078   3.883   4.162  10.819 -0.2950  0.2724  0.5077
  108OSM    O1411079   4.056   4.344  10.805  0.1429 -0.5449  0.5270
  108OSM    O1111080   4.030   4.185  10.617  0.6582  0.4317 -0.4295
  108OSM    O1211081   4.121   4.106  10.826  0.4420 -0.2426  0.4020
  108OSM    C1S11082   4.157   4.221  10.554 -0.3903 -0.8933  1.2673
  108OSM    H1S11083   4.236   4.146  10.576  1.3315  0.1643 -0.9033
  108OSM    H1T11084   4.199   4.320  10.584 -0.2674 -0.5367 -0.0156
  108OSM     NF11085   4.261   4.239  10.342 -0.9628 -0.9234 -0.3563
  108OSM    HNF11086   4.291   4.330  10.314  1.9369  0.4738  5.6555
  108OSM    C2S11087   4.134   4.235  10.398  0.1345  0.3729 -0.7861
  108OSM    H2S11088   4.085   4.139  10.370 -0.5551 -0.0288  1.5866
  108OSM    C3S11089   4.044   4.357  10.372 -1.2499  1.2605  0.4389
  108OSM    H3S11090   4.100   4.451  10.393  3.3059 -1.1841  0.3667
  108OSM     O311091   3.925   4.355  10.439  0.2117 -0.3050 -0.3410
  108OSM    HO311092   3.909   4.271  10.482 -2.2738 -0.7848 -1.9517
  108OSM    C4S11093   4.012   4.371  10.227 -0.3311  0.6965  0.2449
  108OSM    H4S11094   4.045   4.455  10.164 -2.8348  0.5284 -1.4192
  108OSM    C5S11095   3.929   4.282  10.167 -0.8735  0.0401 -0.4005
  108OSM    H5S11096   3.885   4.198  10.222  0.4179 -0.2866  0.1571
  108OSM    C6S11097   3.881   4.297  10.033  0.3339  0.3553  0.9703
  108OSM    H6S11098   3.797   4.226  10.017  2.1137 -1.7912  0.4819
  108OSM    H6T11099   3.961   4.258   9.966 -0.2941  1.3945 -0.4318
  108OSM    C7S11100   3.847   4.440   9.985  0.0914  0.1011  1.0833
  108OSM    H7S11101   3.935   4.506   9.999  0.0652  0.5162 -0.4471
  108OSM    H7T11102   3.759   4.475  10.042 -0.8517 -0.0174 -0.2381
  108OSM    C8S11103   3.808   4.457   9.831  0.3552  0.3904  0.1108
  108OSM    H8S11104   3.788   4.565   9.814 -2.0807  0.1630  1.1602
  108OSM    H8T11105   3.722   4.390   9.811 -0.1935  0.9005  0.7213
  108OSM    C9S11106   3.924   4.403   9.748  0.3983 -0.2873  0.4274
  108OSM    H9S11107   3.912   4.297   9.718  0.7646 -0.5218  1.0924
  108OSM    H9T11108   4.016   4.416   9.809  0.2104  0.5489  0.5421
  108OSM   C10S11109   3.948   4.482   9.617 -0.0959 -0.0352 -0.7516
  108OSM   H10S11110   3.983   4.587   9.633 -0.1256  0.1277 -1.6907
  108OSM   H10T11111   3.850   4.505   9.570 -0.2763  0.0394 -0.3419
  108OSM   C11S11112   4.062   4.421   9.527 -0.4847 -0.5839  0.5739
  108OSM   H11S11113   4.021   4.326   9.487 -1.5379  0.3642 -0.7181
  108OSM   H11T11114   4.158   4.398   9.578  0.2166 -0.7954 -0.7793
  108OSM   C12S11115   4.091   4.508   9.395  1.0067 -0.5798 -1.1792
  108OSM   H12S11116   4.147   4.594   9.438 -2.8978  1.5080  0.1675
  108OSM   H12T11117   3.998   4.551   9.351  1.3186  1.3949 -0.0082
  108OSM   C13S11118   4.174   4.441   9.296  0.2587  0.3389 -0.2729
  108OSM   H13S11119   4.132   4.339   9.289  1.2673 -0.2214  1.1876
  108OSM   H13T11120   4.281   4.431   9.325  0.2581 -0.3179 -0.4793
  108OSM   C14S11121   4.169   4.507   9.157 -0.0876  0.1854 -0.0130
  108OSM   H14S11122   4.209   4.611   9.163  1.3366 -0.3849  0.9870
  108OSM   H14T11123   4.062   4.516   9.130  0.0305  1.7290 -0.0759
  108OSM   C15S11124   4.263   4.441   9.056 -0.0014 -0.5368  0.5386
  108OSM   H15S11125   4.360   4.428   9.108  0.9970  0.9505 -0.8673
  108OSM   H15T11126   4.295   4.517   8.981 -0.5263 -1.3790 -0.5641
  108OSM   C16S11127   4.199   4.316   8.990  0.0171 -0.3933 -0.3271
  108OSM   H16S11128   4.107   4.342   8.934 -0.3952 -0.2498  0.3999
  108OSM   H16T11129   4.169   4.252   9.076  1.0225 -0.6872 -0.1781
  108OSM   C17S11130   4.301   4.250   8.893  0.6086 -0.1192  0.3617
  108OSM   H17S11131   4.394   4.235   8.952 -0.2349  2.2403  2.4808
  108OSM   H17T11132   4.323   4.321   8.811 -0.0976 -1.2636 -0.8572
  108OSM   C18S11133   4.252   4.115   8.833  0.3266  0.7755 -0.0721
  108OSM   H18S11134   4.148   4.115   8.793  0.2571  0.8046  0.1112
  108OSM   H18T11135   4.255   4.042   8.916  0.5705  0.1853 -0.5898
  108OSM   H18U11136   4.324   4.077   8.758 -2.2042 -1.2546 -1.6534
  108OSM    C1F11137   4.338   4.132  10.314  0.4235 -0.0041  0.4032
  108OSM     OF11138   4.294   4.020  10.336  0.4227  0.0729  0.0553
  108OSM    C2F11139   4.470   4.159  10.248  0.7998 -0.0232  0.3790
  108OSM    H2F11140   4.526   4.232  10.312 -1.5285  2.1548  0.0684
  108OSM    H2G11141   4.446   4.223  10.161 -2.9389 -0.2391  1.0811
  108OSM    C3F11142   4.547   4.043  10.211 -0.6132 -0.0503  0.3115
  108OSM    H3F11143   4.561   3.973  10.296  0.0940 -1.0326 -0.5912
  108OSM    H3G11144   4.646   4.086  10.184 -0.2732  1.3931  3.3849
  108OSM    C4F11145   4.488   3.967  10.100 -0.3380 -0.4018  0.3621
  108OSM    H4F11146   4.379   3.945  10.108 -0.3294 -1.4103 -1.6577
  108OSM    H4G11147   4.543   3.872  10.081  0.6826  0.4554 -1.1614
  108OSM    C5F11148   4.489   4.042   9.970  1.0108  0.3297  0.3998
  108OSM    H5F11149   4.580   4.105   9.964 -1.0332  3.6082  1.3257
  108OSM    H5G11150   4.400   4.109   9.969 -0.6622 -1.7675 -0.5395
  108OSM    C6F11151   4.482   3.965   9.843  0.4156  0.6059 -1.3079
  108OSM    H6F11152   4.398   3.893   9.838  0.7688  0.1733 -1.2078
  108OSM    H6G11153   4.571   3.900   9.826 -0.6500 -1.6918  1.1496
  108OSM    C7F11154   4.479   4.062   9.730  1.0676  0.4626  0.2960
  108OSM    H7F11155   4.567   4.130   9.745 -0.2741  2.1366  0.8907
  108OSM    H7G11156   4.379   4.110   9.730 -0.3159 -2.2172 -1.1912
  108OSM    C8F11157   4.474   4.003   9.582 -0.4477 -0.0939  0.3938
  108OSM    H8F11158   4.380   3.944   9.579  0.6310 -1.8922 -0.0651
  108OSM    H8G11159   4.562   3.934   9.578 -1.1742 -1.1121  1.3894
  108OSM    C9F11160   4.478   4.115   9.480 -0.9235  0.4504 -0.0696
  108OSM    H9F11161   4.389   4.178   9.491 -0.1036  1.5998  0.1827
  108OSM   C10F11162   4.567   4.159   9.389 -0.0891  0.1635 -0.0210
  108OSM   H10F11163   4.542   4.242   9.320 -2.6464 -0.8827 -0.4918
  108OSM   C11F11164   4.692   4.090   9.351 -0.4583  0.1435 -0.7178
  108OSM   H11F11165   4.703   3.988   9.393  0.0420  0.2643 -0.5548
  108OSM   H11G11166   4.781   4.150   9.380 -1.3098  1.7161 -1.1826
  108OSM   C12F11167   4.695   4.079   9.200 -0.4716  0.0771 -0.1504
  108OSM   H12F11168   4.690   4.182   9.159  0.6511 -0.3796 -1.4952
  108OSM   H12G11169   4.602   4.028   9.164  0.4422 -1.5918 -0.2395
  108OSM   C13F11170   4.817   4.002   9.152 -0.4155  0.2061  0.3718
  108OSM   H13F11171   4.821   3.894   9.178 -0.8138 -0.4923 -2.2072
  108OSM   H13G11172   4.905   4.058   9.188  0.0156  1.4420 -2.3887
  108OSM   C14F11173   4.818   4.002   8.998  0.4298 -0.6843 -0.1162
  108OSM   H14F11174   4.814   4.106   8.959 -2.0640 -0.6592  0.0011
  108OSM   H14G11175   4.733   3.949   8.949  2.1422  0.4639 -4.8162
  108OSM   C15F11176   4.949   3.937   8.941 -0.3845 -0.3305  0.3274
  108OSM   H15F11177   4.939   3.828   8.925 -1.2088 -0.0760 -1.1193
  108OSM   H15G11178   5.027   3.966   9.015 -1.5145  1.5209  0.8807
  108OSM   C16F11179   5.001   3.980   8.803 -0.0048 -0.4710 -0.1090
  108OSM   H16F11180   5.088   3.916   8.781  0.8132 -0.3912  2.4896
  108OSM   H16G11181   5.038   4.085   8.798  0.8238 -0.6210  1.8415
  108OSM   C17F11182   4.888   3.969   8.695 -0.3747 -0.0599  0.0678
  108OSM   H17F11183   4.933   3.990   8.596  1.2814 -0.7463  0.6298
  108OSM   H17G11184   4.806   4.040   8.720  0.1570  0.3844  0.5729
  108OSM   C18F11185   4.811   3.840   8.673 -0.1047  0.2674 -0.1464
  108OSM   H18F11186   4.747   3.833   8.583  1.8179 -0.8166 -1.5171
  108OSM   H18G11187   4.755   3.809   8.764  1.3311 -1.9972  0.0509
  108OSM   H18H11188   4.886   3.759   8.656  0.1195  0.5946 -0.7587
  109OSM      N11189   4.775   5.280  10.842 -0.2625  0.7746  0.2972
  109OSM    C1511190   4.834   5.143  10.868 -0.2088  0.4522  0.3274
  109OSM   H15A11191   4.803   5.074  10.791 -0.5070  1.1351 -0.1734
  109OSM   H15B11192   4.813   5.107  10.968 -1.8463 -1.7210 -0.7215
  109OSM   H15C11193   4.942   5.141  10.863 -0.1842  1.5437  0.1422
  109OSM    C1411194   4.825   5.365  10.946 -0.4235 -0.1410 -0.2762
  109OSM   H14A11195   4.775   5.332  11.036 -0.6877 -1.4251 -0.8728
  109OSM   H14B11196   4.797   5.468  10.928 -1.9111 -0.4068  0.3591
  109OSM   H14C11197   4.930   5.373  10.971 -1.0468  3.6401  1.9657
  109OSM    C1311198   4.834   5.323  10.711 -0.3636 -0.1212 -0.4997
  109OSM   H13A11199   4.798   5.420  10.681  0.9201  0.6475  0.3363
  109OSM   H13B11200   4.800   5.250  10.639  1.5988  1.4539 -3.2201
  109OSM   H13C11201   4.942   5.333  10.707 -0.1697 -1.1303  1.2850
  109OSM    C1211202   4.626   5.258  10.832  0.0052 -0.3492 -0.5279
  109OSM   H12A11203   4.590   5.357  10.809  2.2997  1.1968  1.8316
  109OSM   H12B11204   4.590   5.245  10.933 -1.2292  3.4114 -0.3495
  109OSM    C1111205   4.558   5.160  10.733 -0.3793 -0.6984 -0.1295
  109OSM   H11A11206   4.453   5.194  10.724 -0.5581 -1.0403  0.6613
  109OSM   H11B11207   4.552   5.061  10.782  0.0509 -0.0008  1.4032
  109OSM      P11208   4.680   5.025  10.546  0.2618  0.0142 -0.2204
  109OSM    O1311209   4.789   5.067  10.455 -0.2901  0.7438  0.5278
  109OSM    O1411210   4.714   4.931  10.655 -0.2352  0.3579 -0.6120
  109OSM    O1111211   4.552   4.973  10.462 -0.0863  0.8606 -0.3102
  109OSM    O1211212   4.616   5.153  10.604 -0.1530 -0.1377  0.1774
  109OSM    C1S11213   4.482   5.070  10.384 -0.2465 -0.2771  0.1940
  109OSM    H1S11214   4.558   5.104  10.312  0.3644 -0.8092  0.5796
  109OSM    H1T11215   4.437   5.154  10.442 -3.3582 -0.3396 -1.9014
  109OSM     NF11216   4.330   5.087  10.189  0.3384 -0.9564 -0.4348
  109OSM    HNF11217   4.273   5.169  10.194 -0.8496 -1.7046 -1.3070
  109OSM    C2S11218   4.365   5.009  10.303  0.4779  0.6687  0.1845
  109OSM    H2S11219   4.393   4.908  10.265  1.1768  0.9997 -0.1966
  109OSM    C3S11220   4.240   4.972  10.393  0.1205  0.6399  0.5031
  109OSM    H3S11221   4.197   5.070  10.422 -0.6698  0.8261 -1.2200
  109OSM     O311222   4.273   4.902  10.516  0.3659  0.5315 -0.0679
  109OSM    HO311223   4.368   4.910  10.529 -0.0203  2.4318  2.1788
  109OSM    C4S11224   4.134   4.886  10.320  0.5813 -0.1171 -0.1637
  109OSM    H4S11225   4.150   4.777  10.328 -1.1107 -0.5025 -1.4940
  109OSM    C5S11226   4.020   4.941  10.267  1.0731  0.7578  0.5588
  109OSM    H5S11227   4.001   5.049  10.278  1.5813  0.8672  0.3777
  109OSM    C6S11228   3.909   4.858  10.194  0.0723 -0.0456  0.5440
  109OSM    H6S11229   3.808   4.904  10.195 -0.0695 -0.3506  0.3784
  109OSM    H6T11230   3.902   4.760  10.245  0.8587  0.7079  2.1378
  109OSM    C7S11231   3.955   4.801  10.057  0.5206 -0.0885 -0.0615
  109OSM    H7S11232   3.882   4.726  10.018  1.5330  0.0612 -2.3920
  109OSM    H7T11233   4.035   4.726  10.074  1.2881  0.9782  1.2397
  109OSM    C8S11234   3.985   4.893   9.943 -0.0294 -0.6342 -0.4531
  109OSM    H8S11235   4.074   4.955   9.962  0.5103 -1.7177  0.7216
  109OSM    H8T11236   3.908   4.971   9.926  0.9340  1.3431  3.3486
  109OSM    C9S11237   4.005   4.815   9.807 -0.6501  0.1732 -0.5793
  109OSM    H9S11238   3.913   4.765   9.769 -1.2892  1.3753 -0.6412
  109OSM    H9T11239   4.074   4.730   9.825  1.7277  1.7218 -1.9369
  109OSM   C10S11240   4.089   4.900   9.709 -1.0072  0.1467 -0.0639
  109OSM   H10S11241   4.195   4.872   9.725 -0.3779  2.7088  0.7308
  109OSM   H10T11242   4.090   5.009   9.730  1.2818  0.0063  0.7833
  109OSM   C11S11243   4.051   4.877   9.563 -0.5899  0.5927 -0.6881
  109OSM   H11S11244   3.947   4.916   9.558 -0.8681 -0.3190 -2.8899
  109OSM   H11T11245   4.031   4.768   9.556 -0.9412  0.7152 -1.6661
  109OSM   C12S11246   4.163   4.933   9.471  0.2743 -0.2801 -0.2874
  109OSM   H12S11247   4.259   4.889   9.506 -0.1336  0.1929  1.5204
  109OSM   H12T11248   4.167   5.043   9.484 -1.3185 -0.2279 -0.0517
  109OSM   C13S11249   4.136   4.906   9.322  0.0177 -0.0774  0.3013
  109OSM   H13S11250   4.038   4.956   9.304 -0.1148 -0.3449  0.2764
  109OSM   H13T11251   4.130   4.798   9.299 -1.2547  0.2818 -1.3053
  109OSM   C14S11252   4.234   4.972   9.220 -0.5938 -0.6683 -1.1158
  109OSM   H14S11253   4.334   4.925   9.229 -0.2667  0.2705  0.6825
  109OSM   H14T11254   4.246   5.078   9.252 -1.4910 -1.1921  1.1725
  109OSM   C15S11255   4.187   4.966   9.070  0.4249 -0.2230 -0.5915
  109OSM   H15S11256   4.165   4.858   9.054  0.0915 -0.0995 -0.9671
  109OSM   H15T11257   4.268   4.995   9.001 -0.0508 -2.8607 -2.4182
  109OSM   C16S11258   4.054   5.033   9.031  0.5611 -0.5497 -0.9027
  109OSM   H16S11259   4.072   5.142   9.017 -1.2841 -0.2916 -1.5107
  109OSM   H16T11260   3.969   5.007   9.097 -0.7211  1.0151 -1.8246
  109OSM   C17S11261   4.007   4.988   8.894  0.5008  0.4649  0.0711
  109OSM   H17S11262   4.014   4.877   8.887  0.7029  0.5002 -0.3193
  109OSM   H17T11263   4.081   5.024   8.820  2.8066 -0.1422  1.9474
  109OSM   C18S11264   3.866   5.047   8.848  0.1168  0.0978 -0.6000
  109OSM   H18S11265   3.858   5.154   8.879 -0.7683 -0.0943 -0.1443
  109OSM   H18T11266   3.788   4.986   8.898  1.6416 -3.2803 -2.0472
  109OSM   H18U11267   3.853   5.034   8.739 -1.0579  0.3936 -0.5078
  109OSM    C1F11268   4.388   5.061  10.072 -0.5800  0.0187 -0.2856
  109OSM     OF11269   4.466   4.966  10.061 -0.2584 -0.3260 -0.0755
  109OSM    C2F11270   4.346   5.149   9.954  0.7104  0.2665  0.6467
  109OSM    H2F11271   4.323   5.254   9.981  0.7966  1.0128 -1.8585
  109OSM    H2G11272   4.251   5.109   9.912 -1.7172  3.7567  2.3522
  109OSM    C3F11273   4.453   5.138   9.845 -0.3267  0.0964  0.4245
  109OSM    H3F11274   4.488   5.034   9.828  0.1577  0.4106 -0.6440
  109OSM    H3G11275   4.534   5.214   9.853  0.2578 -0.3523 -0.8480
  109OSM    C4F11276   4.397   5.161   9.701  0.1534 -0.2790 -0.5057
  109OSM    H4F11277   4.326   5.246   9.705 -0.1442 -0.5285 -0.3785
  109OSM    H4G11278   4.344   5.071   9.662 -1.4965  0.8163 -0.8751
  109OSM    C5F11279   4.497   5.175   9.596 -0.6714 -0.1671  0.0619
  109OSM    H5F11280   4.550   5.078   9.587  0.8460  0.3616  2.4830
  109OSM    H5G11281   4.568   5.257   9.619 -0.6877  1.4134 -4.3824
  109OSM    C6F11282   4.437   5.202   9.457 -0.1180  0.0943  0.2384
  109OSM    H6F11283   4.363   5.285   9.462  0.3051  0.4045  1.9531
  109OSM    H6G11284   4.393   5.107   9.421 -1.4413  0.2849  1.2541
  109OSM    C7F11285   4.552   5.251   9.366 -0.1351 -0.4433  0.0858
  109OSM    H7F11286   4.621   5.165   9.377  0.0002 -0.0313  6.2516
  109OSM    H7G11287   4.600   5.343   9.407 -0.6391  0.9392 -2.2541
  109OSM    C8F11288   4.510   5.300   9.225 -0.0802  0.1879  1.1331
  109OSM    H8F11289   4.437   5.384   9.226  1.6404  1.7406  2.2301
  109OSM    H8G11290   4.450   5.216   9.184 -1.5042  2.3126 -1.4311
  109OSM    C9F11291   4.620   5.323   9.122  0.3508  0.4593  0.5483
  109OSM    H9F11292   4.673   5.230   9.094 -1.3960 -0.0547 -1.2808
  109OSM   C10F11293   4.648   5.445   9.076 -0.1194  0.5709  0.6468
  109OSM   H10F11294   4.735   5.463   9.011  0.5319  2.6839  1.9762
  109OSM   C11F11295   4.584   5.574   9.109  0.0744  0.4284 -0.6632
  109OSM   H11F11296   4.664   5.651   9.095  0.4744  0.5297  1.7957
  109OSM   H11G11297   4.536   5.570   9.209  1.6352 -2.1804  0.0830
  109OSM   C12F11298   4.473   5.613   9.004  0.7679 -0.0887  0.2041
  109OSM   H12F11299   4.420   5.701   9.046  0.6283  0.2034 -0.5653
  109OSM   H12G11300   4.403   5.527   8.997 -0.2336  0.8379 -2.4053
  109OSM   C13F11301   4.514   5.642   8.856 -0.0524  0.3596 -0.2057
  109OSM   H13F11302   4.417   5.648   8.803  0.1006  2.4419 -0.3294
  109OSM   H13G11303   4.568   5.552   8.818 -1.3045 -0.4488 -0.1299
  109OSM   C14F11304   4.604   5.761   8.831 -0.8560  0.3480 -0.9262
  109OSM   H14F11305   4.680   5.754   8.912 -0.9204 -1.6074 -0.9790
  109OSM   H14G11306   4.540   5.849   8.852 -0.2534  0.8962 -1.3551
  109OSM   C15F11307   4.669   5.772   8.693  0.2265  0.5726  0.2274
  109OSM   H15F11308   4.595   5.763   8.610  0.6222 -1.2371  0.0347
  109OSM   H15G11309   4.728   5.685   8.657 -0.4514  0.6394 -1.1388
  109OSM   C16F11310   4.734   5.906   8.672  1.2337 -1.0941  0.7502
  109OSM   H16F11311   4.812   5.915   8.750  0.7667  1.8796  0.9862
  109OSM   H16G11312   4.645   5.970   8.688  1.4991 -0.5995  0.2744
  109OSM   C17F11313   4.786   5.926   8.524  0.1986 -0.5619 -0.0528
  109OSM   H17F11314   4.843   5.832   8.506  0.3563 -0.7727  1.4363
  109OSM   H17G11315   4.864   6.004   8.539 -0.1282  0.0455 -1.4118
  109OSM   C18F11316   4.685   5.958   8.417 -0.1165 -0.2690 -0.5646
  109OSM   H18F11317   4.623   6.048   8.440 -0.2078 -0.2368 -0.9308
  109OSM   H18G11318   4.608   5.878   8.407 -2.3359  1.5342  0.8871
  109OSM   H18H11319   4.732   5.986   8.321  0.1305 -2.7615 -1.2298
  110OSM      N11320   6.206   5.039  11.013  0.3377  0.1719  0.0939
  110OSM    C1511321   6.235   4.906  11.074 -0.3481 -0.8120 -0.5745
  110OSM   H15A11322   6.340   4.883  11.064 -0.3782 -1.4810  0.5267
  110OSM   H15B11323   6.180   4.825  11.029  0.1385 -2.2374  1.2769
  110OSM   H15C11324   6.198   4.911  11.175 -2.2286  1.7992 -1.2708
  110OSM    C1411325   6.063   5.076  11.037  0.7206 -0.2794  0.5991
  110OSM   H14A11326   6.044   5.173  10.991  1.7105  0.8696  2.4995
  110OSM   H14B11327   6.054   5.084  11.144  1.6396  1.0592  0.5944
  110OSM   H14C11328   5.985   5.008  11.005 -0.2675  1.9009 -2.0363
  110OSM    C1311329   6.292   5.134  11.090  0.3813  0.0806 -0.5594
  110OSM   H13A11330   6.265   5.229  11.045  1.0438  0.3856 -0.3217
  110OSM   H13B11331   6.399   5.127  11.075  0.7907  0.2462  1.9612
  110OSM   H13C11332   6.269   5.128  11.195  0.3642  1.6839 -0.4427
  110OSM    C1211333   6.249   5.035  10.867 -0.2334  1.1535  1.0134
  110OSM   H12A11334   6.352   5.005  10.867 -0.4000  0.4597 -0.9085
  110OSM   H12B11335   6.251   5.135  10.826 -1.5092  1.2781  1.2089
  110OSM    C1111336   6.170   4.934  10.778  0.0069 -0.4824  0.2330
  110OSM   H11A11337   6.180   4.956  10.670  0.2814 -0.6413  0.2257
  110OSM   H11B11338   6.061   4.935  10.797  0.0577  0.7499  0.5868
  110OSM      P11339   6.352   4.754  10.764  0.1831  0.2321 -0.1343
  110OSM    O1311340   6.411   4.843  10.662 -0.2448 -0.1491  0.0364
  110OSM    O1411341   6.431   4.744  10.884  0.3533 -0.3529 -0.8103
  110OSM    O1111342   6.343   4.609  10.706 -0.2542  0.2632  0.2704
  110OSM    O1211343   6.208   4.798  10.801  0.0880  0.1276  0.5489
  110OSM    C1S11344   6.238   4.588  10.609  0.1152 -0.1101  0.8054
  110OSM    H1S11345   6.155   4.662  10.623 -1.0231 -1.1900 -0.0395
  110OSM    H1T11346   6.180   4.495  10.624 -0.0278 -0.0124  0.8667
  110OSM     NF11347   6.173   4.564  10.371  0.5084 -0.2214  0.0401
  110OSM    HNF11348   6.176   4.478  10.320  0.2333  0.1320 -0.5888
  110OSM    C2S11349   6.285   4.589  10.460 -0.1622  1.1404 -0.1910
  110OSM    H2S11350   6.322   4.690  10.432  1.5170  0.1548 -1.7597
  110OSM    C3S11351   6.406   4.490  10.442  0.1374  0.5314  0.4407
  110OSM    H3S11352   6.365   4.390  10.468  1.0204  0.2470  0.7774
  110OSM     O311353   6.517   4.525  10.520 -0.6074 -0.6150 -0.0237
  110OSM    HO311354   6.489   4.584  10.590  2.8814  0.8329  0.3678
  110OSM    C4S11355   6.447   4.485  10.294 -0.6601 -0.2746 -0.1037
  110OSM    H4S11356   6.467   4.385  10.251 -0.1043 -0.3354  0.2826
  110OSM    C5S11357   6.474   4.591  10.212 -0.0402 -0.0019  0.3626
  110OSM    H5S11358   6.449   4.695  10.238  0.4786 -0.4887  2.9907
  110OSM    C6S11359   6.511   4.571  10.063 -0.3774  0.9886 -0.2168
  110OSM    H6S11360   6.522   4.462  10.043  1.0703  1.0369  0.2536
  110OSM    H6T11361   6.612   4.616  10.057 -0.3901  1.0520  0.0179
  110OSM    C7S11362   6.416   4.642   9.965 -0.9115 -0.2904  0.5866
  110OSM    H7S11363   6.439   4.750   9.978 -0.0334 -0.4790  0.6947
  110OSM    H7T11364   6.308   4.621   9.978 -1.3273  0.0699 -1.8799
  110OSM    C8S11365   6.460   4.607   9.826 -0.6428 -0.3675  0.1097
  110OSM    H8S11366   6.464   4.498   9.804  2.8431 -0.0918 -1.2584
  110OSM    H8T11367   6.565   4.644   9.818  0.3574 -2.5565  1.9229
  110OSM    C9S11368   6.372   4.670   9.715 -1.1795  0.6936 -1.0866
  110OSM    H9S11369   6.438   4.691   9.628  1.8467  0.9254  1.0707
  110OSM    H9T11370   6.334   4.769   9.748  2.0774  1.8084 -0.2678
  110OSM   C10S11371   6.253   4.582   9.664 -0.9279  0.6181 -1.3569
  110OSM   H10S11372   6.179   4.567   9.745  1.1024 -3.5446  0.0505
  110OSM   H10T11373   6.285   4.481   9.630 -2.1760  0.2963 -1.5926
  110OSM   C11S11374   6.190   4.635   9.532  0.2502 -0.3932 -0.6262
  110OSM   H11S11375   6.155   4.737   9.556 -1.3335 -0.3212 -2.8751
  110OSM   H11T11376   6.100   4.579   9.497 -1.2398  0.7699  1.1341
  110OSM   C12S11377   6.289   4.627   9.411  0.0556 -0.2332 -0.1180
  110OSM   H12S11378   6.324   4.521   9.409 -1.2451 -0.6763 -1.8098
  110OSM   H12T11379   6.369   4.702   9.427 -2.3734  2.1059  1.8843
  110OSM   C13S11380   6.226   4.642   9.270  0.1613 -1.2144 -0.4329
  110OSM   H13S11381   6.156   4.556   9.255  0.1255 -1.0700 -1.1436
  110OSM   H13T11382   6.303   4.639   9.190 -0.7565 -0.0709 -1.4008
  110OSM   C14S11383   6.162   4.769   9.246  0.0402  0.2586 -0.1358
  110OSM   H14S11384   6.238   4.851   9.246  1.3586 -0.9356 -0.1076
  110OSM   H14T11385   6.078   4.793   9.315 -1.9255  2.4125 -3.0271
  110OSM   C15S11386   6.098   4.791   9.110 -0.0829 -0.4387 -0.9639
  110OSM   H15S11387   6.039   4.697   9.110  0.5221 -0.8415  0.2833
  110OSM   H15T11388   6.174   4.794   9.029 -0.2470  2.8215 -1.1343
  110OSM   C16S11389   5.983   4.898   9.091  0.6072 -0.6418 -0.5828
  110OSM   H16S11390   5.909   4.883   9.172  1.8627 -0.5853  0.6069
  110OSM   H16T11391   5.934   4.872   8.994  0.6950  0.9073 -1.0670
  110OSM   C17S11392   6.037   5.044   9.106 -0.1676  0.4610  0.5254
  110OSM   H17S11393   6.095   5.034   9.200 -1.5616 -0.1386  1.3676
  110OSM   H17T11394   5.947   5.108   9.121 -0.9190 -0.1310 -1.1583
  110OSM   C18S11395   6.124   5.090   8.988 -0.0021 -0.3358  0.5391
  110OSM   H18S11396   6.232   5.067   9.001  0.5593  1.0721 -1.2263
  110OSM   H18T11397   6.120   5.201   8.979  3.7696 -0.0569  0.5966
  110OSM   H18U11398   6.075   5.041   8.901 -0.4815  0.0027  0.6147
  110OSM    C1F11399   6.063   4.639  10.366 -0.0303  0.7171 -0.1906
  110OSM     OF11400   6.050   4.751  10.425 -0.3946  0.2412  0.2948
  110OSM    C2F11401   5.950   4.572  10.288 -0.0028 -0.0297  0.3024
  110OSM    H2F11402   5.862   4.559  10.356  0.5471 -3.1263  0.5564
  110OSM    H2G11403   5.983   4.474  10.248 -1.1211  0.1977 -1.3026
  110OSM    C3F11404   5.913   4.658  10.171 -0.1417  0.1911 -0.5222
  110OSM    H3F11405   5.997   4.672  10.099  0.2697 -1.7660 -0.4573
  110OSM    H3G11406   5.877   4.756  10.210 -1.9933 -0.0886 -1.4327
  110OSM    C4F11407   5.805   4.582  10.093 -0.3718 -0.1571  0.0506
  110OSM    H4F11408   5.712   4.583  10.155  0.4304  1.5191  1.3060
  110OSM    H4G11409   5.834   4.476  10.081  1.4544  0.2530  0.5833
  110OSM    C5F11410   5.776   4.651   9.957 -0.3105 -0.0161 -0.3212
  110OSM    H5F11411   5.803   4.758   9.970 -1.7975  0.1676  1.9728
  110OSM    H5G11412   5.665   4.653   9.951 -0.3928  0.7383  0.9778
  110OSM    C6F11413   5.848   4.604   9.837 -0.0831  0.7731 -0.4114
  110OSM    H6F11414   5.956   4.592   9.858  0.4236  0.4815 -2.8639
  110OSM    H6G11415   5.834   4.679   9.757  1.1505  1.2574 -0.1965
  110OSM    C7F11416   5.797   4.470   9.788 -0.8124  0.2744 -0.1548
  110OSM    H7F11417   5.728   4.497   9.705  0.5827 -1.3766 -1.9487
  110OSM    H7G11418   5.737   4.422   9.868 -1.8870  3.1362  0.9246
  110OSM    C8F11419   5.906   4.380   9.742 -0.4983 -0.8514 -0.3840
  110OSM    H8F11420   5.974   4.351   9.824  0.8519  1.7500 -0.4742
  110OSM    H8G11421   5.969   4.436   9.669 -1.2103  0.0821 -0.3056
  110OSM    C9F11422   5.853   4.248   9.677 -0.3263 -0.4094 -0.4470
  110OSM    H9F11423   5.770   4.206   9.736 -0.8701  2.1958  0.7910
  110OSM   C10F11424   5.885   4.205   9.558  0.2561 -0.0856  0.8521
  110OSM   H10F11425   5.834   4.111   9.531 -0.5192  0.0401  1.8390
  110OSM   C11F11426   5.980   4.271   9.462 -0.5481  0.6861 -0.4265
  110OSM   H11F11427   6.044   4.349   9.507  2.3219 -0.4390 -2.2314
  110OSM   H11G11428   5.925   4.320   9.379 -0.1730 -0.7614 -1.5849
  110OSM   C12F11429   6.094   4.176   9.403 -0.1917 -0.4266  0.2234
  110OSM   H12F11430   6.042   4.094   9.349 -1.5748  1.3647 -1.3064
  110OSM   H12G11431   6.162   4.133   9.480 -1.3877 -1.0700  0.9640
  110OSM   C13F11432   6.178   4.260   9.308  0.1532  0.0660 -0.0938
  110OSM   H13F11433   6.255   4.321   9.359  0.8334 -1.5602  0.9091
  110OSM   H13G11434   6.109   4.331   9.258  1.5928  1.2744 -0.4195
  110OSM   C14F11435   6.249   4.170   9.205  0.0618 -0.3453 -0.1401
  110OSM   H14F11436   6.176   4.102   9.156  0.6020  0.3677 -2.0011
  110OSM   H14G11437   6.313   4.104   9.268  0.4577  0.5780  0.4488
  110OSM   C15F11438   6.329   4.252   9.107  0.6080 -0.5551 -0.3713
  110OSM   H15F11439   6.370   4.336   9.168 -0.8543 -0.7891  1.0023
  110OSM   H15G11440   6.263   4.293   9.028  0.2422 -0.5464 -0.0645
  110OSM   C16F11441   6.442   4.172   9.045  0.5979  0.1709 -0.1945
  110OSM   H16F11442   6.507   4.143   9.130 -0.9620  0.1879  1.0400
  110OSM   H16G11443   6.510   4.241   8.989  0.7487  0.8764  0.8319
  110OSM   C17F11444   6.404   4.049   8.964 -0.4107 -0.4478  0.4910
  110OSM   H17F11445   6.355   3.978   9.035  0.0435  1.4913  2.8363
  110OSM   H17G11446   6.498   4.001   8.930 -0.3898  1.1011 -1.8385
  110OSM   C18F11447   6.306   4.064   8.844 -0.1717  0.8123  0.6557
  110OSM   H18F11448   6.347   4.128   8.763 -1.5839 -1.6739 -2.2372
  110OSM   H18G11449   6.205   4.099   8.875  0.2029  0.6087  2.1543
  110OSM   H18H11450   6.299   3.963   8.796 -1.3639  0.2741  1.8757
  111OSM      N11451   6.775   1.781  11.101  0.3871  0.0502  0.1363
  111OSM    C1511452   6.829   1.833  11.233 -0.5674  0.3838 -0.2823
  111OSM   H15A11453   6.881   1.760  11.294  1.5067  1.8211 -0.2171
  111OSM   H15B11454   6.755   1.880  11.294 -2.8084 -1.0040 -1.7773
  111OSM   H15C11455   6.894   1.917  11.214 -2.1553  1.7121  0.0485
  111OSM    C1411456   6.880   1.690  11.036  0.0539 -0.4449 -0.6818
  111OSM   H14A11457   6.839   1.642  10.948 -2.7483 -2.2166  1.4301
  111OSM   H14B11458   6.916   1.611  11.099  1.1698 -0.3025 -1.1208
  111OSM   H14C11459   6.964   1.747  10.998  2.3393 -3.4475 -0.5071
  111OSM    C1311460   6.643   1.712  11.123 -0.2982  0.9070 -0.8470
  111OSM   H13A11461   6.604   1.685  11.026 -2.0373  1.0364 -0.2168
  111OSM   H13B11462   6.561   1.765  11.169 -2.0537 -1.1809 -1.4286
  111OSM   H13C11463   6.663   1.627  11.187  0.2701  3.0183  1.9800
  111OSM    C1211464   6.736   1.888  11.012  0.3556  0.2757 -0.5270
  111OSM   H12A11465   6.828   1.945  11.002  0.1318  0.5252 -1.2838
  111OSM   H12B11466   6.662   1.945  11.066  0.2945 -3.3946  3.7885
  111OSM    C1111467   6.677   1.864  10.869  0.8343  0.6176 -0.6845
  111OSM   H11A11468   6.677   1.966  10.826 -2.5316  0.5914 -0.9740
  111OSM   H11B11469   6.573   1.825  10.877  0.8330  0.9908  3.2436
  111OSM      P11470   6.813   1.811  10.648  0.4124  0.2145 -0.3403
  111OSM    O1311471   6.878   1.941  10.653 -0.6131  0.1808  0.0740
  111OSM    O1411472   6.904   1.704  10.602 -0.0567  0.9234 -0.1789
  111OSM    O1111473   6.689   1.812  10.559 -0.4615 -0.2297 -0.1385
  111OSM    O1211474   6.755   1.772  10.796 -0.6448 -0.4711  0.1645
  111OSM    C1S11475   6.688   1.859  10.425 -0.4212 -0.1456  0.2695
  111OSM    H1S11476   6.788   1.858  10.378  0.2593  1.0644  1.6037
  111OSM    H1T11477   6.648   1.963  10.426 -0.5803 -0.1452 -1.7817
  111OSM     NF11478   6.625   1.828  10.192 -0.2746 -0.0306  0.0641
  111OSM    HNF11479   6.560   1.901  10.173  1.1629  3.1536  5.1505
  111OSM    C2S11480   6.608   1.763  10.329 -0.2979 -0.2730 -0.1891
  111OSM    H2S11481   6.659   1.664  10.332 -0.4100 -0.3466  3.4348
  111OSM    C3S11482   6.454   1.758  10.377 -0.2839  0.5354  0.9972
  111OSM    H3S11483   6.419   1.863  10.367  0.5279  0.6532 -1.1877
  111OSM     O311484   6.447   1.721  10.515 -0.2282 -1.0580  0.3639
  111OSM    HO311485   6.534   1.750  10.544 -0.1182 -2.1088  1.1655
  111OSM    C4S11486   6.369   1.671  10.291 -0.0447  0.2677 -0.0166
  111OSM    H4S11487   6.292   1.716  10.226 -1.2748 -0.1111  1.1101
  111OSM    C5S11488   6.372   1.539  10.299  0.4770  0.6385  0.1839
  111OSM    H5S11489   6.430   1.493  10.381 -0.2148  1.1787  0.9875
  111OSM    C6S11490   6.291   1.434  10.221 -0.3992  0.4903 -0.2973
  111OSM    H6S11491   6.236   1.365  10.289 -2.2955 -0.0774 -2.3009
  111OSM    H6T11492   6.358   1.362  10.169  0.4052 -0.2657  1.6748
  111OSM    C7S11493   6.184   1.469  10.110  0.3275 -0.1263 -0.7179
  111OSM    H7S11494   6.220   1.553  10.048  1.9475 -0.4809 -0.2892
  111OSM    H7T11495   6.086   1.498  10.154 -0.4027 -1.4472 -1.4172
  111OSM    C8S11496   6.178   1.345  10.016  0.0910  0.2664  0.4096
  111OSM    H8S11497   6.149   1.254  10.073 -1.1527  0.1354 -0.3861
  111OSM    H8T11498   6.281   1.311   9.991 -1.4325 -2.6220 -2.7147
  111OSM    C9S11499   6.095   1.358   9.891  0.4253 -0.0809  0.1472
  111OSM    H9S11500   6.124   1.447   9.831 -0.7283 -0.7686 -1.5032
  111OSM    H9T11501   5.992   1.373   9.929  0.5847 -1.9663  1.4169
  111OSM   C10S11502   6.096   1.232   9.811  0.1034 -0.2240  0.3449
  111OSM   H10S11503   6.061   1.155   9.883  0.7276 -0.7672  0.0779
  111OSM   H10T11504   6.198   1.210   9.773  0.2229  0.3534  0.3140
  111OSM   C11S11505   6.001   1.222   9.687 -0.3541 -0.1971 -0.3520
  111OSM   H11S11506   5.892   1.222   9.707  0.0726 -0.3181  2.3231
  111OSM   H11T11507   6.031   1.124   9.643  1.4201  0.5739 -0.9887
  111OSM   C12S11508   6.029   1.334   9.583 -0.1982 -0.0641 -0.5848
  111OSM   H12S11509   6.135   1.322   9.550 -0.5368  0.8656 -2.0829
  111OSM   H12T11510   6.011   1.435   9.625 -1.0050 -0.4708  0.0652
  111OSM   C13S11511   5.952   1.299   9.458  0.3980  0.8616 -0.3057
  111OSM   H13S11512   5.975   1.387   9.394  3.0019  0.3426 -0.2149
  111OSM   H13T11513   5.845   1.280   9.478  0.6106 -0.1222 -0.0837
  111OSM   C14S11514   6.018   1.177   9.382 -0.7048  0.2447 -0.3405
  111OSM   H14S11515   6.000   1.083   9.438  2.0191 -0.3033 -0.2736
  111OSM   H14T11516   6.129   1.180   9.377 -0.7019 -0.9831 -3.7025
  111OSM   C15S11517   5.990   1.162   9.228 -0.0193  0.1636  0.2323
  111OSM   H15S11518   5.937   1.249   9.185 -0.5477  0.6079  1.7121
  111OSM   H15T11519   5.907   1.089   9.218  0.6920 -0.4610 -1.3886
  111OSM   C16S11520   6.114   1.117   9.151  0.0712  0.0753  0.4490
  111OSM   H16S11521   6.157   1.019   9.182  0.5850  0.9717  2.7163
  111OSM   H16T11522   6.204   1.181   9.165 -0.3135  0.6300  0.4125
  111OSM   C17S11523   6.090   1.115   8.993 -0.5882 -0.2208 -0.5972
  111OSM   H17S11524   6.012   1.045   8.955  1.4346 -2.6063 -0.5360
  111OSM   H17T11525   6.175   1.065   8.943  0.4488  2.0299 -1.2378
  111OSM   C18S11526   6.057   1.253   8.934 -0.0954 -0.2809 -0.1954
  111OSM   H18S11527   6.063   1.243   8.824  1.2989 -1.0829 -0.0705
  111OSM   H18T11528   6.131   1.322   8.981 -0.3705 -1.1032  1.5237
  111OSM   H18U11529   5.957   1.289   8.968 -0.3564  0.0104 -1.2490
  111OSM    C1F11530   6.738   1.823  10.122  0.1466  0.3715  0.7178
  111OSM     OF11531   6.832   1.759  10.158 -0.0556  0.1594  0.3439
  111OSM    C2F11532   6.753   1.905   9.992  1.1996  0.2134 -0.2209
  111OSM    H2F11533   6.840   1.860   9.939  0.7013 -1.4261  0.3064
  111OSM    H2G11534   6.778   2.010  10.015  0.2574  0.0780  1.5494
  111OSM    C3F11535   6.633   1.898   9.900 -0.4054  0.0029  0.0861
  111OSM    H3F11536   6.550   1.967   9.928 -0.0197  1.0851 -1.2807
  111OSM    H3G11537   6.593   1.795   9.889 -1.6835  0.6840 -2.3159
  111OSM    C4F11538   6.681   1.933   9.757 -0.5470 -0.5903  0.5224
  111OSM    H4F11539   6.783   1.894   9.738 -1.2221 -1.7397 -0.8978
  111OSM    H4G11540   6.682   2.044   9.764 -0.3328 -0.6428  1.4393
  111OSM    C5F11541   6.584   1.906   9.635 -0.2247  0.3706 -0.0135
  111OSM    H5F11542   6.499   1.978   9.635  0.1253  0.7876 -0.7033
  111OSM    H5G11543   6.550   1.800   9.639  1.9882 -0.3385  2.4836
  111OSM    C6F11544   6.661   1.919   9.504  0.0146 -0.2985  0.3802
  111OSM    H6F11545   6.747   1.849   9.501 -0.0761 -0.4848 -4.0438
  111OSM    H6G11546   6.701   2.022   9.493 -1.3704  0.0458 -2.3120
  111OSM    C7F11547   6.578   1.888   9.382 -0.2595  0.1152 -0.3028
  111OSM    H7F11548   6.497   1.964   9.379  1.8881  2.9086  3.7112
  111OSM    H7G11549   6.544   1.782   9.389  1.4228 -0.4449 -0.0811
  111OSM    C8F11550   6.661   1.896   9.247  0.8828  0.8576 -0.5820
  111OSM    H8F11551   6.726   1.985   9.243 -0.0838  1.5632 -1.2565
  111OSM    H8G11552   6.586   1.917   9.167  2.0815 -0.7082 -2.2144
  111OSM    C9F11553   6.737   1.772   9.221  0.2302 -0.6610 -0.0173
  111OSM    H9F11554   6.801   1.749   9.307 -0.5143 -2.1951  0.1427
  111OSM   C10F11555   6.721   1.691   9.117  0.0160 -0.4171  0.0508
  111OSM   H10F11556   6.779   1.597   9.116  3.5793  1.5699 -1.8275
  111OSM   C11F11557   6.626   1.716   9.004  0.4886  0.1348 -0.2415
  111OSM   H11F11558   6.553   1.798   9.019 -0.2471 -0.4137 -0.7933
  111OSM   H11G11559   6.560   1.627   9.003  0.0972  0.4042  0.6329
  111OSM   C12F11560   6.706   1.721   8.867 -0.5779 -0.4871 -0.6943
  111OSM   H12F11561   6.759   1.819   8.870 -3.7682  1.3392  0.1975
  111OSM   H12G11562   6.621   1.736   8.798 -0.9657  0.3265 -0.0476
  111OSM   C13F11563   6.795   1.594   8.852  0.1482 -0.4205 -0.1605
  111OSM   H13F11564   6.752   1.498   8.886 -1.5447  0.6790  0.9993
  111OSM   H13G11565   6.894   1.608   8.900  0.1273  2.2414 -0.7534
  111OSM   C14F11566   6.814   1.575   8.701 -0.0013 -0.3501 -0.0456
  111OSM   H14F11567   6.910   1.523   8.681 -0.1082 -1.0752  1.2678
  111OSM   H14G11568   6.825   1.672   8.648 -0.8996 -0.9762 -1.4495
  111OSM   C15F11569   6.711   1.479   8.630 -0.1458 -0.8622 -0.8898
  111OSM   H15F11570   6.612   1.529   8.623 -0.3491 -1.0312  0.4528
  111OSM   H15G11571   6.695   1.394   8.700  1.7450 -0.1348  0.5032
  111OSM   C16F11572   6.745   1.433   8.487 -0.9554  0.3131  0.0333
  111OSM   H16F11573   6.827   1.360   8.502 -1.5101 -0.4678 -0.6209
  111OSM   H16G11574   6.783   1.511   8.418  2.5567 -0.0359  1.3677
  111OSM   C17F11575   6.621   1.350   8.432  0.1094  0.2674  0.2318
  111OSM   H17F11576   6.536   1.421   8.422 -0.1470  0.0270  0.7047
  111OSM   H17G11577   6.589   1.285   8.516 -1.2279  0.6649  0.0510
  111OSM   C18F11578   6.647   1.267   8.310  0.1852  0.1400  0.5115
  111OSM   H18F11579   6.709   1.180   8.342  0.6510  0.0656 -0.5722
  111OSM   H18G11580   6.707   1.339   8.251 -0.3542  2.6053  2.7810
  111OSM   H18H11581   6.551   1.236   8.264 -1.3380  2.4344  1.9586
  112OSM      N11582   6.492   0.033  11.238  0.0493 -0.9264  0.2355
  112OSM    C1511583   6.633  -0.014  11.255 -0.2713  0.1283 -0.9040
  112OSM   H15A11584   6.680   0.022  11.346  0.6551 -2.1799 -0.4147
  112OSM   H15B11585   6.698   0.014  11.173 -0.7250 -1.8280 -1.9762
  112OSM   H15C11586   6.639  -0.120  11.272 -0.5630  0.1408 -0.7158
  112OSM    C1411587   6.413   0.016  11.364  0.1978 -0.1100 -0.0602
  112OSM   H14A11588   6.329   0.083  11.371  1.3422  1.3564 -0.0113
  112OSM   H14B11589   6.470   0.054  11.447  0.0220 -1.8410  0.9097
  112OSM   H14C11590   6.397  -0.085  11.398  0.5755 -0.0652  0.2555
  112OSM    C1311591   6.503   0.188  11.210  0.0809  0.8892 -0.3695
  112OSM   H13A11592   6.412   0.243  11.191 -0.5520  0.4372  1.1894
  112OSM   H13B11593   6.554   0.200  11.116 -1.3373 -0.0424 -1.3023
  112OSM   H13C11594   6.560   0.229  11.292 -2.3343 -0.3227  2.0937
  112OSM    C1211595   6.423  -0.034  11.118  0.2102  0.0870  0.2294
  112OSM   H12A11596   6.323   0.007  11.111  0.0040 -0.2695  0.9534
  112OSM   H12B11597   6.402  -0.136  11.145  0.9647  0.4575  2.4373
  112OSM    C1111598   6.499  -0.036  10.983 -0.8373 -0.2336 -0.5125
  112OSM   H11A11599   6.440  -0.106  10.921 -0.8105  0.1893 -1.0219
  112OSM   H11B11600   6.599  -0.081  10.999  0.3215  1.8116 -1.5856
  112OSM      P11601   6.382   0.156  10.857 -0.1552 -0.4589 -0.3764
  112OSM    O1311602   6.260   0.138  10.934  0.0560  0.0578 -1.1348
  112OSM    O1411603   6.413   0.296  10.813 -0.2689 -0.5263 -0.3721
  112OSM    O1111604   6.362   0.073  10.731 -0.4596  0.2675  0.7638
  112OSM    O1211605   6.513   0.093  10.921  0.2151 -0.4230 -0.3310
  112OSM    C1S11606   6.463   0.054  10.631 -0.0784 -0.0152 -0.0479
  112OSM    H1S11607   6.560   0.022  10.675  0.0998  2.0773  1.2182
  112OSM    H1T11608   6.481   0.142  10.565  3.7142 -1.1858 -0.7803
  112OSM     NF11609   6.555  -0.088  10.453  0.0310 -0.5713 -0.4508
  112OSM    HNF11610   6.566  -0.039  10.367  1.2332  3.0117  1.5435
  112OSM    C2S11611   6.431  -0.062  10.520  0.8114  0.0427 -0.7659
  112OSM    H2S11612   6.409  -0.155  10.576  1.2346  1.4472  1.9115
  112OSM    C3S11613   6.318  -0.006  10.431  0.3530 -0.1663 -0.4367
  112OSM    H3S11614   6.331   0.099  10.397 -0.3616 -0.2943 -1.1464
  112OSM     O311615   6.196   0.016  10.502 -0.0479 -0.0080  0.1701
  112OSM    HO311616   6.225   0.025  10.593 -1.3539  2.6418  0.4268
  112OSM    C4S11617   6.292  -0.098  10.311  0.4240 -0.3711 -0.8757
  112OSM    H4S11618   6.264  -0.203  10.329 -0.2828 -0.2335 -1.1066
  112OSM    C5S11619   6.294  -0.049  10.188  0.1154 -0.3856  0.8973
  112OSM    H5S11620   6.308   0.057  10.166  1.0022 -0.7628 -0.4940
  112OSM    C6S11621   6.262  -0.141  10.067 -0.5005 -0.1802  0.1507
  112OSM    H6S11622   6.162  -0.190  10.072 -0.9957  0.4149 -2.2578
  112OSM    H6T11623   6.332  -0.225  10.048  0.1928  0.8803 -2.5306
  112OSM    C7S11624   6.268  -0.053   9.948 -0.4261  0.0467  0.7170
  112OSM    H7S11625   6.363   0.001   9.926 -1.0890  0.9879  0.0753
  112OSM    H7T11626   6.189   0.025   9.953  2.8873  3.7146  0.7100
  112OSM    C8S11627   6.234  -0.141   9.826 -0.8286 -0.0711 -0.7189
  112OSM    H8S11628   6.159  -0.219   9.850  0.1644 -1.6346 -2.4529
  112OSM    H8T11629   6.325  -0.191   9.786  1.5543  2.0192  1.7049
  112OSM    C9S11630   6.159  -0.062   9.712 -0.9099 -0.2395 -0.6951
  112OSM    H9S11631   6.229   0.023   9.695  2.1963 -2.6630 -1.0387
  112OSM    H9T11632   6.061  -0.026   9.747 -1.2764 -0.8842 -1.0256
  112OSM   C10S11633   6.145  -0.139   9.586 -0.2835  0.4356 -0.3326
  112OSM   H10S11634   6.076  -0.225   9.600 -1.2051  0.7324 -2.5840
  112OSM   H10T11635   6.247  -0.176   9.562 -0.2346  0.7179 -0.5679
  112OSM   C11S11636   6.082  -0.065   9.471 -0.9222 -0.1938  0.1742
  112OSM   H11S11637   6.136   0.028   9.444 -0.2885 -1.4318 -3.4492
  112OSM   H11T11638   5.979  -0.037   9.503 -1.7688 -1.8988 -0.9098
  112OSM   C12S11639   6.072  -0.156   9.350  0.0524 -0.6008 -0.7247
  112OSM   H12S11640   5.993  -0.234   9.354  1.1941 -1.7866 -0.8980
  112OSM   H12T11641   6.174  -0.199   9.343 -0.1302 -0.9961 -1.0096
  112OSM   C13S11642   6.047  -0.080   9.220 -0.5489 -0.2864 -0.8283
  112OSM   H13S11643   6.130  -0.005   9.220  0.0452 -0.8937  1.1503
  112OSM   H13T11644   5.952  -0.026   9.240  0.9093  1.7720  1.0473
  112OSM   C14S11645   6.058  -0.170   9.099 -0.3591 -0.5756 -0.6562
  112OSM   H14S11646   5.979  -0.248   9.102  1.2998 -2.3344 -0.9800
  112OSM   H14T11647   6.159  -0.217   9.091 -0.3019 -0.5351 -0.1995
  112OSM   C15S11648   6.036  -0.094   8.966 -0.3271  0.3846  0.2437
  112OSM   H15S11649   6.109  -0.011   8.973  0.6441 -0.0650 -2.9574
  112OSM   H15T11650   5.933  -0.053   8.979  0.1250  2.2660 -1.5275
  112OSM   C16S11651   6.038  -0.176   8.838  0.2103 -0.0658  0.0557
  112OSM   H16S11652   6.122  -0.248   8.842  1.8153  1.7485  1.3944
  112OSM   H16T11653   6.050  -0.095   8.762  1.0690  1.5547  1.8102
  112OSM   C17S11654   5.901  -0.245   8.817  0.8121  0.2828  0.8503
  112OSM   H17S11655   5.821  -0.168   8.821  1.7742  1.6165 -2.0922
  112OSM   H17T11656   5.882  -0.321   8.895 -0.7603 -3.2592 -2.6606
  112OSM   C18S11657   5.895  -0.313   8.683  0.3436  0.0887 -0.1134
  112OSM   H18S11658   5.908  -0.245   8.596  0.7943 -0.0205 -0.1352
  112OSM   H18T11659   5.801  -0.370   8.666  1.1563 -0.9094 -1.5029
  112OSM   H18U11660   5.976  -0.389   8.679 -0.0123 -0.2914 -0.2450
  112OSM    C1F11661   6.648  -0.152  10.513 -0.1087  0.1449 -0.0590
  112OSM     OF11662   6.628  -0.225  10.607 -0.3514 -0.2318  0.4389
  112OSM    C2F11663   6.786  -0.128  10.457 -0.5640  0.0450  0.0570
  112OSM    H2F11664   6.855  -0.084  10.532  1.0204 -2.9323  0.4557
  112OSM    H2G11665   6.783  -0.049  10.378 -2.9673 -0.1845 -0.1601
  112OSM    C3F11666   6.841  -0.257  10.412 -0.1224  0.1095 -0.3980
  112OSM    H3F11667   6.770  -0.296  10.337 -2.6192  1.1629  1.2840
  112OSM    H3G11668   6.839  -0.329  10.497  0.8925  1.5847  0.9568
  112OSM    C4F11669   6.995  -0.260  10.375 -0.1799 -0.9098  0.4741
  112OSM    H4F11670   7.060  -0.218  10.455 -0.2420 -0.3710  0.2447
  112OSM    H4G11671   7.008  -0.186  10.293  2.7716  0.2064  1.7731
  112OSM    C5F11672   7.032  -0.407  10.332 -0.5807  0.0923  0.1219
  112OSM    H5F11673   6.999  -0.488  10.400  0.2390 -1.7409 -1.5604
  112OSM    H5G11674   7.143  -0.411  10.334 -0.4065 -1.9974 -3.6208
  112OSM    C6F11675   7.005  -0.432  10.184  0.6150  0.2115  0.1126
  112OSM    H6F11676   7.075  -0.363  10.132  2.5294 -0.9708  1.0439
  112OSM    H6G11677   6.900  -0.407  10.156  1.1290  0.8155 -1.4211
  112OSM    C7F11678   7.032  -0.576  10.138 -0.0531 -0.0872  0.2978
  112OSM    H7F11679   7.000  -0.649  10.216  3.1149 -1.3531  0.5866
  112OSM    H7G11680   7.143  -0.575  10.150 -0.1350  2.2936  1.4240
  112OSM    C8F11681   6.996  -0.598   9.991 -0.5252  0.0999  0.3410
  112OSM    H8F11682   7.044  -0.516   9.934  0.3072  1.1804  2.5036
  112OSM    H8G11683   6.887  -0.585   9.974 -0.8117  1.8026  2.9182
  112OSM    C9F11684   7.033  -0.738   9.944  0.5038  0.0573 -0.3776
  112OSM    H9F11685   7.098  -0.784  10.020  0.1638  0.8435  0.4051
  112OSM   C10F11686   6.994  -0.807   9.833 -0.0982 -0.4300 -0.2045
  112OSM   H10F11687   7.009  -0.915   9.821 -0.3625 -0.5493  0.5094
  112OSM   C11F11688   6.918  -0.739   9.721 -0.3959  0.4333  0.1037
  112OSM   H11F11689   6.987  -0.676   9.661 -1.8267  0.7895 -1.2415
  112OSM   H11G11690   6.842  -0.668   9.762 -0.6374  0.0905  0.2554
  112OSM   C12F11691   6.836  -0.818   9.620  0.7020 -0.5696  0.4394
  112OSM   H12F11692   6.746  -0.864   9.666  1.5204 -0.3807  2.3351
  112OSM   H12G11693   6.895  -0.899   9.571  1.1158 -0.2350  0.3800
  112OSM   C13F11694   6.778  -0.724   9.514 -0.0843  0.2134 -0.3237
  112OSM   H13F11695   6.762  -0.616   9.535  1.1832  0.9522 -2.7082
  112OSM   H13G11696   6.677  -0.761   9.487 -0.4774  0.5692  0.6239
  112OSM   C14F11697   6.857  -0.732   9.374  0.5257  0.3156 -1.0958
  112OSM   H14F11698   6.874  -0.842   9.365  0.7581 -0.0329  2.2835
  112OSM   H14G11699   6.956  -0.683   9.383  1.1566 -1.2315  1.1984
  112OSM   C15F11700   6.776  -0.684   9.255 -0.4726  0.2146 -0.5794
  112OSM   H15F11701   6.741  -0.582   9.279 -1.3052  0.0192 -0.9429
  112OSM   H15G11702   6.682  -0.742   9.242 -1.5455  0.7392  3.5504
  112OSM   C16F11703   6.862  -0.678   9.119 -0.1014 -0.8795  0.2256
  112OSM   H16F11704   6.889  -0.786   9.109  0.6050 -0.7109  0.2728
  112OSM   H16G11705   6.951  -0.620   9.148 -1.5159  0.4985  2.1133
  112OSM   C17F11706   6.783  -0.635   8.995 -0.3660 -0.1873  0.1733
  112OSM   H17F11707   6.747  -0.530   9.007  1.0675  0.5336 -1.3836
  112OSM   H17G11708   6.700  -0.705   8.971  1.5448 -1.1775 -4.7998
  112OSM   C18F11709   6.874  -0.637   8.876 -0.7450  0.4423  0.1858
  112OSM   H18F11710   6.945  -0.552   8.880 -1.4455  0.9907  1.1405
  112OSM   H18G11711   6.817  -0.624   8.782  0.0425 -1.6768 -0.6583
  112OSM   H18H11712   6.927  -0.735   8.873 -1.3715  0.0240 -4.1778
  113OSM      N11713   4.882   3.588  11.298 -0.1782 -0.1593  0.0765
  113OSM    C1511714   4.756   3.644  11.238 -0.6050 -0.6630 -0.2113
  113OSM   H15A11715   4.762   3.751  11.225 -0.9310 -0.8138 -1.7050
  113OSM   H15B11716   4.673   3.624  11.304  0.3005 -2.8807  0.3400
  113OSM   H15C11717   4.738   3.604  11.139  0.4052 -1.6994  0.0016
  113OSM    C1411718   4.923   3.659  11.419 -0.6117  0.2805 -0.4531
  113OSM   H14A11719   4.944   3.763  11.400 -0.8148  0.5477  0.7160
  113OSM   H14B11720   5.014   3.612  11.454  0.0308  2.0839  0.4259
  113OSM   H14C11721   4.848   3.665  11.497  1.8422 -2.5437  2.4450
  113OSM    C1311722   4.857   3.448  11.343 -0.2826 -0.0864  0.6852
  113OSM   H13A11723   4.942   3.383  11.357 -0.3080 -0.7819 -1.8479
  113OSM   H13B11724   4.798   3.392  11.271  0.8852 -2.3950  1.4310
  113OSM   H13C11725   4.798   3.455  11.433  0.4191  2.5642  0.9998
  113OSM    C1211726   4.988   3.595  11.190 -0.4915  0.0615  0.2893
  113OSM   H12A11727   5.083   3.562  11.229 -1.6499 -0.9935  2.4094
  113OSM   H12B11728   4.998   3.701  11.171 -1.5727  0.5989  2.3863
  113OSM    C1111729   4.956   3.519  11.060  0.1309  0.1225 -0.2365
  113OSM   H11A11730   4.878   3.563  10.993 -0.7806  0.9007  1.2717
  113OSM   H11B11731   4.918   3.418  11.087  0.5664  0.8962  3.8527
  113OSM      P11732   5.148   3.388  10.950 -0.0977  0.3036  0.9710
  113OSM    O1311733   5.269   3.413  10.867 -0.2698 -0.6819 -0.0806
  113OSM    O1411734   5.156   3.306  11.071 -0.4020  0.0319  0.2381
  113OSM    O1111735   5.037   3.313  10.862  0.0885  0.6052  0.4030
  113OSM    O1211736   5.078   3.528  10.990  0.4849  0.5219  0.4526
  113OSM    C1S11737   4.970   3.370  10.751 -0.0334 -0.2223  1.0762
  113OSM    H1S11738   5.051   3.388  10.678 -0.6700 -1.2349  0.0989
  113OSM    H1T11739   4.908   3.460  10.774 -2.6219 -1.0546 -2.0258
  113OSM     NF11740   4.857   3.278  10.547 -0.2577 -0.2823 -0.0017
  113OSM    HNF11741   4.784   3.343  10.527  1.6841  0.9382 -4.5081
  113OSM    C2S11742   4.881   3.262  10.684 -0.5700 -0.1718  0.1474
  113OSM    H2S11743   4.950   3.176  10.699  0.1419  0.2307 -0.7495
  113OSM    C3S11744   4.751   3.245  10.758  0.1407  0.9449  0.0289
  113OSM    H3S11745   4.685   3.335  10.751 -2.6225 -1.0884 -4.1610
  113OSM     O311746   4.766   3.225  10.899  0.0397 -0.0603  0.2285
  113OSM    HO311747   4.859   3.201  10.911 -0.1534 -1.7146 -1.1362
  113OSM    C4S11748   4.663   3.131  10.696 -0.1751 -0.0094  0.2839
  113OSM    H4S11749   4.610   3.175  10.610 -1.2943  0.5053  1.2095
  113OSM    C5S11750   4.666   3.004  10.725 -0.2904  0.3580  1.2279
  113OSM    H5S11751   4.725   2.966  10.810 -0.6403  1.1065  1.8147
  113OSM    C6S11752   4.582   2.904  10.653  0.5791  0.2345  0.4437
  113OSM    H6S11753   4.511   2.873  10.733 -1.2482  0.9444 -0.8177
  113OSM    H6T11754   4.643   2.814  10.630 -0.6707 -0.6560  0.5300
  113OSM    C7S11755   4.504   2.935  10.523 -0.4513 -0.3028  0.4586
  113OSM    H7S11756   4.431   3.015  10.550 -1.0036 -0.5420 -0.2945
  113OSM    H7T11757   4.452   2.841  10.497  0.2769 -0.9354  1.2119
  113OSM    C8S11758   4.587   2.992  10.407 -0.4353 -0.5544  0.4371
  113OSM    H8S11759   4.683   2.936  10.418 -0.0288  0.2246  0.9714
  113OSM    H8T11760   4.604   3.100  10.428  0.0455 -0.1163 -1.9264
  113OSM    C9S11761   4.527   2.984  10.271 -0.3929 -0.4316  0.0224
  113OSM    H9S11762   4.428   3.033  10.275 -1.0605 -1.7269  0.0816
  113OSM    H9T11763   4.523   2.877  10.238 -0.4581 -0.4609  0.1262
  113OSM   C10S11764   4.613   3.051  10.164 -0.0044  0.8036  0.5895
  113OSM   H10S11765   4.717   3.015  10.176  0.1220  1.0048  0.1172
  113OSM   H10T11766   4.616   3.162  10.178  0.7181  1.1709 -2.0017
  113OSM   C11S11767   4.553   3.037  10.020  0.9720 -0.4141 -0.2932
  113OSM   H11S11768   4.445   3.061  10.026  0.7346 -1.7431  2.0811
  113OSM   H11T11769   4.560   2.935   9.977 -0.6406 -0.3700 -0.7263
  113OSM   C12S11770   4.632   3.132   9.922  0.0382 -0.0117 -0.0632
  113OSM   H12S11771   4.741   3.108   9.924  0.7074  2.7690  0.6201
  113OSM   H12T11772   4.613   3.234   9.960  1.4135 -0.6510  2.6349
  113OSM   C13S11773   4.583   3.122   9.775  0.1956  0.4836  0.0638
  113OSM   H13S11774   4.473   3.134   9.775  0.0417 -0.7459 -0.4843
  113OSM   H13T11775   4.602   3.018   9.738 -1.1877  0.1380  0.2741
  113OSM   C14S11776   4.660   3.217   9.685  0.0400 -0.1762 -0.4737
  113OSM   H14S11777   4.768   3.207   9.709 -0.2829  1.4462  2.0839
  113OSM   H14T11778   4.629   3.324   9.692  0.2453  0.0559 -2.5296
  113OSM   C15S11779   4.638   3.183   9.540 -0.2846 -0.6760  0.0549
  113OSM   H15S11780   4.533   3.156   9.514 -0.3836 -1.8664  1.5115
  113OSM   H15T11781   4.698   3.094   9.513 -0.8425 -1.0611  0.0643
  113OSM   C16S11782   4.680   3.304   9.443  0.5037  0.1985 -0.2365
  113OSM   H16S11783   4.776   3.350   9.477  1.0789 -0.1585 -1.3199
  113OSM   H16T11784   4.596   3.376   9.444  0.5764  0.2861  0.6263
  113OSM   C17S11785   4.673   3.258   9.297  0.5634 -0.1271  0.2907
  113OSM   H17S11786   4.581   3.202   9.270  0.7585  0.4991 -1.8916
  113OSM   H17T11787   4.752   3.181   9.289  1.3125  0.7008 -0.5528
  113OSM   C18S11788   4.693   3.379   9.204 -0.7343  0.3607  0.3849
  113OSM   H18S11789   4.598   3.425   9.169 -0.1610 -1.3751 -4.2404
  113OSM   H18T11790   4.741   3.355   9.106 -0.3381  2.9444 -0.1395
  113OSM   H18U11791   4.761   3.457   9.245 -2.7070  2.7907 -0.6825
  113OSM    C1F11792   4.947   3.248  10.447  0.3017  0.1924 -1.1910
  113OSM     OF11793   5.057   3.195  10.459 -0.1998  0.7060  0.2805
  113OSM    C2F11794   4.900   3.296  10.308 -0.5929 -0.1669 -0.1039
  113OSM    H2F11795   4.898   3.406  10.298 -3.5743 -0.2311 -0.9499
  113OSM    H2G11796   4.802   3.250  10.282 -0.2909 -1.3277  0.6896
  113OSM    C3F11797   5.005   3.253  10.208  0.0677 -0.0675 -0.0627
  113OSM    H3F11798   5.029   3.145  10.216  1.7323  0.2378 -0.6018
  113OSM    H3G11799   5.103   3.296  10.238 -0.2751  0.4273  0.3664
  113OSM    C4F11800   4.980   3.292  10.069 -0.3404 -0.3862  0.4275
  113OSM    H4F11801   4.971   3.403  10.063  1.4502  0.0502  3.5593
  113OSM    H4G11802   4.881   3.248  10.042 -0.1368  0.1186 -1.2450
  113OSM    C5F11803   5.086   3.227   9.985 -0.0773 -0.6136 -0.3586
  113OSM    H5F11804   5.089   3.122  10.019 -1.7715 -0.2174  1.1639
  113OSM    H5G11805   5.188   3.269  10.003 -1.1837  1.5400  1.5225
  113OSM    C6F11806   5.049   3.246   9.841 -0.7101 -0.3581  0.5959
  113OSM    H6F11807   5.037   3.356   9.828  0.7399 -0.2542 -0.0720
  113OSM    H6G11808   4.958   3.183   9.834 -1.2225 -0.1632  3.8769
  113OSM    C7F11809   5.151   3.206   9.728  0.0069 -0.0985 -0.5393
  113OSM    H7F11810   5.177   3.098   9.732  0.7124  0.0791  2.9672
  113OSM    H7G11811   5.244   3.261   9.753 -0.1967 -0.0666  0.1507
  113OSM    C8F11812   5.104   3.255   9.592 -0.5313  0.1203  0.6127
  113OSM    H8F11813   5.091   3.364   9.611  0.7847  0.7785 -1.8456
  113OSM    H8G11814   5.008   3.213   9.555  0.9632 -0.2343 -3.3106
  113OSM    C9F11815   5.208   3.243   9.472  0.8888  0.2266 -0.3524
  113OSM    H9F11816   5.313   3.261   9.502  1.0572 -0.0716 -0.7518
  113OSM   C10F11817   5.181   3.203   9.347  0.3440 -0.1477 -0.0210
  113OSM   H10F11818   5.276   3.208   9.292  0.4492 -0.6794  0.1086
  113OSM   C11F11819   5.044   3.167   9.293  0.3777  0.5520 -0.3443
  113OSM   H11F11820   4.980   3.257   9.306  2.0175  1.4406  2.3836
  113OSM   H11G11821   4.989   3.093   9.356  1.4069  0.1626  0.1083
  113OSM   C12F11822   5.061   3.124   9.149 -0.4181  0.0192  0.4467
  113OSM   H12F11823   5.130   3.038   9.137 -1.2204 -0.5617 -0.0995
  113OSM   H12G11824   5.103   3.208   9.089 -3.0777 -0.8140 -2.9447
  113OSM   C13F11825   4.938   3.087   9.077 -0.1723 -0.0728  0.2447
  113OSM   H13F11826   4.867   3.173   9.071 -2.3944 -1.8071  0.3073
  113OSM   H13G11827   4.883   3.002   9.123  0.9214 -0.7862  0.2663
  113OSM   C14F11828   4.970   3.026   8.939  0.4834  0.5153 -0.5671
  113OSM   H14F11829   5.024   2.930   8.952 -1.9033 -0.7086  0.9770
  113OSM   H14G11830   5.039   3.081   8.872 -0.0275  2.5324  0.4702
  113OSM   C15F11831   4.845   2.985   8.866 -0.0944 -0.1652  0.0770
  113OSM   H15F11832   4.770   3.067   8.865  0.5655  0.4491 -0.8224
  113OSM   H15G11833   4.792   2.901   8.915 -2.5273  2.2545  1.8810
  113OSM   C16F11834   4.881   2.940   8.726  0.0251 -0.7895  0.5503
  113OSM   H16F11835   4.971   2.875   8.718  0.7874  0.3123 -0.1501
  113OSM   H16G11836   4.902   3.033   8.667  1.2126 -2.2424 -1.4659
  113OSM   C17F11837   4.763   2.852   8.671 -0.1337  0.4115  0.2314
  113OSM   H17F11838   4.767   2.752   8.718 -0.8132  0.4385  0.3539
  113OSM   H17G11839   4.782   2.843   8.562  0.5885 -0.7841  0.4393
  113OSM   C18F11840   4.617   2.899   8.683 -0.3908 -0.3178 -0.3219
  113OSM   H18F11841   4.618   3.000   8.636  1.3685 -0.3624 -0.4473
  113OSM   H18G11842   4.584   2.909   8.789  0.3732  0.2034 -0.1235
  113OSM   H18H11843   4.543   2.834   8.632 -1.5782  0.8885 -0.2101
  114OSM      N11844   5.405   5.579  10.982 -0.3804 -0.1841  0.8517
  114OSM    C1511845   5.390   5.717  11.030 -0.2294  0.9103  0.1198
  114OSM   H15A11846   5.285   5.737  11.046 -1.0771 -1.6294 -1.5375
  114OSM   H15B11847   5.418   5.775  10.943 -0.2833 -0.5479 -0.9213
  114OSM   H15C11848   5.446   5.739  11.119  0.1437 -0.5002  0.2662
  114OSM    C1411849   5.387   5.481  11.092  0.5563  0.4584 -0.4599
  114OSM   H14A11850   5.467   5.495  11.164  0.7069 -1.2229 -0.2540
  114OSM   H14B11851   5.387   5.381  11.052 -2.8732  0.2769 -0.2913
  114OSM   H14C11852   5.289   5.475  11.136 -0.1015 -1.1362 -2.0045
  114OSM    C1311853   5.296   5.563  10.882  0.1428 -0.6186 -0.3852
  114OSM   H13A11854   5.292   5.645  10.812 -0.2110 -0.3663 -0.0759
  114OSM   H13B11855   5.202   5.558  10.936  1.3353  0.0587  1.8771
  114OSM   H13C11856   5.314   5.468  10.834  0.9817 -0.2949 -0.7145
  114OSM    C1211857   5.535   5.564  10.911 -1.0092 -0.8117 -0.1895
  114OSM   H12A11858   5.610   5.577  10.988  0.1531  0.5149 -1.4793
  114OSM   H12B11859   5.553   5.648  10.846 -0.6225  1.4776  2.6642
  114OSM    C1111860   5.572   5.435  10.835  0.1823  0.4382  0.0857
  114OSM   H11A11861   5.667   5.452  10.780 -0.1549 -4.0097 -2.3754
  114OSM   H11B11862   5.499   5.404  10.758  1.3767 -2.8268  0.0762
  114OSM      P11863   5.705   5.281  11.008 -0.2038 -0.4726 -0.4167
  114OSM    O1311864   5.744   5.391  11.094 -0.0512 -0.6417  0.0438
  114OSM    O1411865   5.682   5.151  11.072  0.3593  0.6400  0.2544
  114OSM    O1111866   5.819   5.264  10.894  0.2266 -0.4687 -0.4110
  114OSM    O1211867   5.582   5.322  10.917 -0.2543 -0.3679 -0.4115
  114OSM    C1S11868   5.798   5.170  10.787 -0.3967 -0.0719 -0.3793
  114OSM    H1S11869   5.689   5.153  10.770 -0.5808 -0.3452  0.9585
  114OSM    H1T11870   5.846   5.071  10.805  0.0897 -0.1823 -2.1419
  114OSM     NF11871   5.798   5.145  10.539  1.0671 -0.4806  0.1942
  114OSM    HNF11872   5.876   5.105  10.492 -0.0260 -2.7209  0.1401
  114OSM    C2S11873   5.848   5.226  10.647 -0.3797  0.3009  0.0230
  114OSM    H2S11874   5.794   5.323  10.646 -2.0321 -0.5616 -1.4161
  114OSM    C3S11875   5.999   5.247  10.658  0.1454  0.9849  1.3889
  114OSM    H3S11876   6.057   5.155  10.635 -1.7476  0.2369 -0.6908
  114OSM     O311877   6.055   5.287  10.785  0.1332 -0.0596 -0.6618
  114OSM    HO311878   5.981   5.284  10.847  0.7032 -1.3539 -0.0000
  114OSM    C4S11879   6.052   5.343  10.553 -0.0343  0.3054  0.0676
  114OSM    H4S11880   6.085   5.278  10.471 -2.1496  0.4257 -0.9626
  114OSM    C5S11881   6.067   5.478  10.540 -0.5507  0.2630  0.1338
  114OSM    H5S11882   6.029   5.533  10.627  1.4579  0.6964  0.7966
  114OSM    C6S11883   6.117   5.554  10.424  0.7067 -0.0681 -0.1433
  114OSM    H6S11884   6.184   5.634  10.463  1.0437 -1.8284  3.3301
  114OSM    H6T11885   6.030   5.599  10.372  1.1884 -0.5672 -1.4098
  114OSM    C7S11886   6.194   5.478  10.321  0.1491 -0.6589  0.3490
  114OSM    H7S11887   6.120   5.420  10.263 -0.1884  0.8364 -0.7794
  114OSM    H7T11888   6.275   5.414  10.362  0.1766 -1.5254 -1.0057
  114OSM    C8S11889   6.263   5.572  10.214  0.7676 -0.8686 -0.5921
  114OSM    H8S11890   6.349   5.620  10.265  0.3790 -0.3488 -0.4188
  114OSM    H8T11891   6.194   5.655  10.185  1.4799  1.0229  2.7240
  114OSM    C9S11892   6.319   5.504  10.085 -0.3969 -1.3526  0.2763
  114OSM    H9S11893   6.248   5.437  10.031 -2.0223  0.9967 -0.6820
  114OSM    H9T11894   6.412   5.449  10.109  0.5513 -0.1685 -0.5472
  114OSM   C10S11895   6.358   5.609   9.977 -0.1047  0.0726 -0.0372
  114OSM   H10S11896   6.430   5.685  10.014  1.7757 -1.2704 -0.7604
  114OSM   H10T11897   6.266   5.657   9.939 -1.6844 -2.1684  0.7484
  114OSM   C11S11898   6.419   5.543   9.853  0.4178  0.2121 -0.2351
  114OSM   H11S11899   6.350   5.461   9.826 -0.9508  1.5493 -0.9271
  114OSM   H11T11900   6.514   5.490   9.878  0.0220  0.3009  1.6250
  114OSM   C12S11901   6.453   5.635   9.733  0.2653 -0.3525  0.3291
  114OSM   H12S11902   6.511   5.579   9.657 -1.6073 -0.8452 -0.8046
  114OSM   H12T11903   6.514   5.722   9.766 -1.5301  0.7390  0.9175
  114OSM   C13S11904   6.329   5.679   9.656 -0.3287  0.1029 -0.0207
  114OSM   H13S11905   6.270   5.756   9.710  0.2840  0.1610  0.5716
  114OSM   H13T11906   6.269   5.589   9.634  1.9952 -0.8444 -3.1941
  114OSM   C14S11907   6.375   5.737   9.529  0.0542  0.2607 -0.1766
  114OSM   H14S11908   6.427   5.662   9.466 -0.3428  0.2998 -0.5519
  114OSM   H14T11909   6.448   5.820   9.544  1.3665 -0.9209  0.2171
  114OSM   C15S11910   6.253   5.790   9.454 -0.0941  0.3501 -0.0142
  114OSM   H15S11911   6.224   5.884   9.505  1.4541  0.4202  0.8057
  114OSM   H15T11912   6.169   5.718   9.455 -0.5723  0.9156  1.0592
  114OSM   C16S11913   6.278   5.815   9.307 -0.5622  0.6247 -0.0711
  114OSM   H16S11914   6.185   5.847   9.254 -0.1152  1.5847 -0.3155
  114OSM   H16T11915   6.311   5.727   9.248 -2.2352 -1.7722  2.3535
  114OSM   C17S11916   6.375   5.929   9.285 -0.0906  0.3406 -0.3968
  114OSM   H17S11917   6.475   5.907   9.328 -1.2723 -0.8979  1.8896
  114OSM   H17T11918   6.331   6.011   9.345  0.8599  0.6493 -0.1039
  114OSM   C18S11919   6.396   5.972   9.139 -0.4924 -0.0852 -0.0815
  114OSM   H18S11920   6.309   6.019   9.088 -0.8169 -0.9037 -0.2969
  114OSM   H18T11921   6.431   5.885   9.081 -0.7825 -0.2752  0.0237
  114OSM   H18U11922   6.478   6.046   9.140 -0.8194  0.3602 -1.9526
  114OSM    C1F11923   5.676   5.133  10.504 -0.8613 -0.1139  0.4397
  114OSM     OF11924   5.595   5.214  10.538  0.3297  0.2571 -0.3543
  114OSM    C2F11925   5.646   5.013  10.414  0.1896 -0.1827  0.1799
  114OSM    H2F11926   5.566   4.953  10.464 -0.1505 -1.0660 -1.3469
  114OSM    H2G11927   5.740   4.958  10.397 -0.8316 -1.4393 -1.7884
  114OSM    C3F11928   5.585   5.068  10.276 -0.3377  0.9530 -0.7498
  114OSM    H3F11929   5.657   5.136  10.226  0.0576  0.0953 -1.3907
  114OSM    H3G11930   5.495   5.131  10.287 -0.7199  0.6128 -1.7684
  114OSM    C4F11931   5.572   4.950  10.189 -0.6341 -0.3419 -0.7809
  114OSM    H4F11932   5.536   4.857  10.237 -2.4031  0.7198  0.0374
  114OSM    H4G11933   5.673   4.910  10.163  0.5438  1.5226  0.7139
  114OSM    C5F11934   5.505   4.996  10.062 -0.0212 -0.0064 -0.0644
  114OSM    H5F11935   5.418   5.062  10.084  0.9676  0.9383  1.1774
  114OSM    H5G11936   5.468   4.903  10.013 -0.4205  0.5324 -0.8021
  114OSM    C6F11937   5.600   5.066   9.967 -0.2637 -0.7485  0.2705
  114OSM    H6F11938   5.686   4.997   9.962  1.1886  0.9510  0.5112
  114OSM    H6G11939   5.632   5.164  10.009 -0.2121 -0.7563  0.2497
  114OSM    C7F11940   5.529   5.098   9.838 -0.6573 -0.5198 -0.3347
  114OSM    H7F11941   5.532   5.205   9.811  0.2346 -0.8156 -1.4875
  114OSM    H7G11942   5.422   5.072   9.851 -1.0937  0.2445 -2.1180
  114OSM    C8F11943   5.587   5.019   9.718  0.0155 -0.0920 -1.0478
  114OSM    H8F11944   5.510   5.021   9.638 -1.7970 -0.4296  0.5970
  114OSM    H8G11945   5.602   4.917   9.759  4.4659  0.1830 -1.4454
  114OSM    C9F11946   5.716   5.079   9.666  0.1564 -0.3158  0.3649
  114OSM    H9F11947   5.800   5.070   9.737 -0.1044 -0.5639  0.6445
  114OSM   C10F11948   5.733   5.147   9.544  0.3043 -0.3511 -0.2844
  114OSM   H10F11949   5.831   5.186   9.515  0.2271  0.0043 -0.0734
  114OSM   C11F11950   5.639   5.164   9.429 -0.1751  0.2718 -0.6286
  114OSM   H11F11951   5.588   5.262   9.444  0.5719  0.3977  1.3131
  114OSM   H11G11952   5.564   5.083   9.444  0.8125 -0.2915  1.6504
  114OSM   C12F11953   5.688   5.138   9.291 -0.4125  0.1298 -0.0904
  114OSM   H12F11954   5.746   5.044   9.280 -1.0880 -0.0693 -2.6525
  114OSM   H12G11955   5.764   5.211   9.253  1.0134 -1.5374 -0.5650
  114OSM   C13F11956   5.576   5.124   9.189 -0.1784  0.6653 -0.3884
  114OSM   H13F11957   5.502   5.056   9.236  0.2209 -0.3629 -1.1769
  114OSM   H13G11958   5.602   5.070   9.095  0.0251  1.5859 -0.8768
  114OSM   C14F11959   5.510   5.260   9.152  0.7957  0.2718  0.3877
  114OSM   H14F11960   5.520   5.328   9.239 -0.4982  0.6360  0.2747
  114OSM   H14G11961   5.400   5.244   9.147  1.0032 -1.9963  1.5272
  114OSM   C15F11962   5.574   5.319   9.022  0.1928  0.7938  0.5924
  114OSM   H15F11963   5.573   5.235   8.949  0.8708 -0.3020  1.7982
  114OSM   H15G11964   5.679   5.333   9.057  0.2050  2.2429  0.0190
  114OSM   C16F11965   5.515   5.444   8.969 -0.0349  0.2039  0.5520
  114OSM   H16F11966   5.532   5.519   9.049 -1.2888  0.3983  0.6589
  114OSM   H16G11967   5.405   5.445   8.954 -0.0307  0.2082  0.5242
  114OSM   C17F11968   5.590   5.468   8.845  0.3555 -0.2927 -0.3349
  114OSM   H17F11969   5.557   5.396   8.767 -2.6345  0.2446  0.3019
  114OSM   H17G11970   5.701   5.466   8.851  0.3192  1.0365  1.3640
  114OSM   C18F11971   5.558   5.604   8.789 -0.1012  0.1132  0.0956
  114OSM   H18F11972   5.450   5.617   8.769 -0.4669  0.3081  2.0382
  114OSM   H18G11973   5.618   5.626   8.698 -0.6283  0.7822 -0.0955
  114OSM   H18H11974   5.583   5.683   8.863 -2.7660 -1.2753  2.6480
  115OSM      N11975   2.840   4.351  11.178 -0.7248  0.4506 -0.0099
  115OSM    C1511976   2.964   4.398  11.104  0.1875 -0.6350 -0.5137
  115OSM   H15A11977   3.043   4.324  11.115  0.0011 -0.8097 -0.3333
  115OSM   H15B11978   3.012   4.483  11.151  3.3461 -0.3693 -3.8194
  115OSM   H15C11979   2.946   4.420  11.000  1.1553  1.6438 -0.2452
  115OSM    C1411980   2.874   4.286  11.315  0.3208 -0.4068  0.2381
  115OSM   H14A11981   2.907   4.361  11.386  1.8165 -1.4538  0.6846
  115OSM   H14B11982   2.957   4.220  11.294  0.5879  1.0124 -4.2169
  115OSM   H14C11983   2.789   4.233  11.355  0.8950 -1.4114  0.1380
  115OSM    C1311984   2.760   4.472  11.213 -0.1396 -0.1996  0.0581
  115OSM   H13A11985   2.828   4.551  11.242  0.7920 -0.6172 -0.9334
  115OSM   H13B11986   2.683   4.464  11.288 -1.4347  2.4087 -0.9021
  115OSM   H13C11987   2.702   4.506  11.129 -0.6247  1.9470  1.1997
  115OSM    C1211988   2.758   4.245  11.103 -0.0319 -0.6212 -0.5065
  115OSM   H12A11989   2.676   4.214  11.165  0.3956  0.1374  0.4599
  115OSM   H12B11990   2.820   4.159  11.086 -2.4593 -2.5395 -0.1289
  115OSM    C1111991   2.694   4.269  10.967 -0.0582 -0.3841 -0.3479
  115OSM   H11A11992   2.654   4.178  10.918 -1.8272  0.1356  0.0498
  115OSM   H11B11993   2.769   4.311  10.896 -0.9781  3.5230  0.7187
  115OSM      P11994   2.442   4.325  11.030 -0.0448 -0.0813 -0.1060
  115OSM    O1311995   2.456   4.231  11.147 -0.0816 -0.3697  0.1065
  115OSM    O1411996   2.346   4.435  11.052 -0.7372 -0.2900  0.5445
  115OSM    O1111997   2.403   4.232  10.904 -0.2879  0.5345 -0.6284
  115OSM    O1211998   2.587   4.372  10.986 -0.4121  0.0085 -0.3473
  115OSM    C1S11999   2.357   4.291  10.780  0.4752 -0.5271 -0.3642
  115OSM    H1S12000   2.319   4.395  10.789 -1.5150 -1.1549 -1.0049
  115OSM    H1T12001   2.271   4.229  10.745  0.3257  0.0704 -1.0745
  115OSM     NF12002   2.438   4.387  10.570  1.1292 -0.2874  0.0928
  115OSM    HNF12003   2.410   4.332  10.492  0.6547  0.6822 -0.4279
  115OSM    C2S12004   2.475   4.297  10.677  0.1753 -0.1082 -0.1785
  115OSM    H2S12005   2.557   4.338  10.739 -0.3594  0.8976 -0.1263
  115OSM    C3S12006   2.525   4.164  10.622 -0.0860 -0.4698  1.4338
  115OSM    H3S12007   2.455   4.125  10.545  0.8065  2.5121 -1.0931
  115OSM     O312008   2.537   4.064  10.721 -0.2450  0.3361 -0.2819
  115OSM    HO312009   2.482   4.096  10.793  1.2665  0.2596  0.9651
  115OSM    C4S12010   2.654   4.182  10.548 -0.1764  0.0551  0.2963
  115OSM    H4S12011   2.730   4.239  10.605  2.0899 -1.6315 -0.8883
  115OSM    C5S12012   2.695   4.136  10.426 -0.3870  0.2419 -0.3186
  115OSM    H5S12013   2.640   4.061  10.367  0.3221 -1.5781  1.2273
  115OSM    C6S12014   2.833   4.167  10.358  0.5381 -0.5741 -0.3485
  115OSM    H6S12015   2.901   4.216  10.431 -2.0790 -0.6338  2.3271
  115OSM    H6T12016   2.826   4.228  10.265 -0.6917  0.3148  0.2891
  115OSM    C7S12017   2.912   4.045  10.312 -0.0917 -0.4401  0.3415
  115OSM    H7S12018   2.908   3.968  10.391 -2.2601  1.9267  2.7593
  115OSM    H7T12019   3.018   4.065  10.285 -0.1701 -0.5802 -0.0833
  115OSM    C8S12020   2.858   3.993  10.180  0.2160 -0.7107  0.3454
  115OSM    H8S12021   2.874   4.074  10.105  1.1820 -0.3911  0.8740
  115OSM    H8T12022   2.749   3.980  10.199 -0.3387  0.5154 -1.6429
  115OSM    C9S12023   2.905   3.859  10.125  0.1968 -0.0605 -0.2733
  115OSM    H9S12024   2.851   3.781  10.183  2.4472 -0.8232  0.8854
  115OSM    H9T12025   3.015   3.847  10.132  0.0438 -0.4934  3.1384
  115OSM   C10S12026   2.864   3.851   9.981  0.2602 -0.3798  0.4329
  115OSM   H10S12027   2.759   3.884   9.968  0.4267 -0.5125 -1.4905
  115OSM   H10T12028   2.864   3.744   9.952  0.1741 -0.3109  0.1826
  115OSM   C11S12029   2.949   3.919   9.876  0.7345  0.3921  0.2207
  115OSM   H11S12030   3.049   3.873   9.869  0.4527  0.0804 -3.1032
  115OSM   H11T12031   2.969   4.026   9.898 -0.1407  0.4724  0.6937
  115OSM   C12S12032   2.885   3.896   9.728 -0.9192 -0.1986  0.0430
  115OSM   H12S12033   2.786   3.945   9.717 -0.4946  0.8810  0.8617
  115OSM   H12T12034   2.865   3.786   9.724 -0.3570 -0.4269  2.2952
  115OSM   C13S12035   2.980   3.954   9.626 -0.0388  0.7818 -0.4384
  115OSM   H13S12036   3.085   3.925   9.648 -0.1621  0.7635  0.1184
  115OSM   H13T12037   2.976   4.064   9.638  0.6362  0.6583  1.0936
  115OSM   C14S12038   2.951   3.930   9.478  0.3840 -0.0933  0.4866
  115OSM   H14S12039   2.848   3.959   9.449 -0.0383 -1.5774  0.4462
  115OSM   H14T12040   2.966   3.823   9.455  1.2240  0.6594 -3.0156
  115OSM   C15S12041   3.043   4.018   9.384 -0.9200  0.3215 -0.4820
  115OSM   H15S12042   3.149   3.992   9.402 -0.4690  0.7684 -2.2270
  115OSM   H15T12043   3.029   4.123   9.417  1.1863  0.4167  0.2301
  115OSM   C16S12044   3.008   4.007   9.229  0.3864 -0.8716  0.0027
  115OSM   H16S12045   3.074   4.073   9.168 -1.8599 -0.3932 -2.0511
  115OSM   H16T12046   2.907   4.044   9.201  0.9729  0.0584 -0.9447
  115OSM   C17S12047   3.036   3.870   9.169 -0.1683 -0.2707 -0.0340
  115OSM   H17S12048   2.967   3.793   9.210  2.3354 -1.6510  1.8103
  115OSM   H17T12049   3.138   3.838   9.200  0.1691 -0.4725 -1.3124
  115OSM   C18S12050   3.045   3.852   9.022 -1.1855 -0.6684  0.8252
  115OSM   H18S12051   3.069   3.746   9.000 -2.9224 -0.9097 -0.1103
  115OSM   H18T12052   3.124   3.928   9.003 -1.1338 -0.8415  0.3195
  115OSM   H18U12053   2.952   3.882   8.968 -1.4802 -2.0832  0.4993
  115OSM    C1F12054   2.424   4.520  10.584  0.1411  0.2009  0.1852
  115OSM     OF12055   2.465   4.571  10.688  0.4661 -0.0218  0.3622
  115OSM    C2F12056   2.360   4.603  10.480 -0.0384 -0.3138  1.2571
  115OSM    H2F12057   2.288   4.670  10.532 -0.1849 -0.1900  0.9027
  115OSM    H2G12058   2.306   4.531  10.413 -0.9494  1.4701 -0.0355
  115OSM    C3F12059   2.469   4.666  10.383 -0.5203  0.3281  0.6693
  115OSM    H3F12060   2.533   4.587  10.340 -0.1697  1.0292 -0.1375
  115OSM    H3G12061   2.531   4.732  10.446  1.1732  1.9152 -2.4363
  115OSM    C4F12062   2.405   4.762  10.279  0.1056  0.2854 -0.3383
  115OSM    H4F12063   2.342   4.831  10.338  0.9584  0.0522  0.8694
  115OSM    H4G12064   2.329   4.709  10.217 -0.6621  2.1859 -1.0702
  115OSM    C5F12065   2.499   4.844  10.188 -0.3128  0.0895 -0.6468
  115OSM    H5F12066   2.556   4.907  10.259 -1.7161 -0.5972  1.1688
  115OSM    H5G12067   2.443   4.906  10.114  1.9569  1.8435 -1.0108
  115OSM    C6F12068   2.601   4.746  10.127 -0.2032 -1.2246  0.3211
  115OSM    H6F12069   2.551   4.653  10.092 -0.3554  0.0739 -3.3073
  115OSM    H6G12070   2.670   4.727  10.212  0.6940 -0.1572 -0.1512
  115OSM    C7F12071   2.694   4.805  10.012  0.4286 -0.7158 -0.0463
  115OSM    H7F12072   2.756   4.725   9.968 -0.7190 -1.8629  0.3578
  115OSM    H7G12073   2.747   4.888  10.064 -3.4377  1.5324  0.6961
  115OSM    C8F12074   2.614   4.881   9.905  0.1622 -0.2944  0.0684
  115OSM    H8F12075   2.564   4.967   9.956  1.3295  0.1731  0.4662
  115OSM    H8G12076   2.537   4.814   9.862  1.6026 -1.8278 -0.2155
  115OSM    C9F12077   2.716   4.929   9.802  0.4457  0.4830 -0.2672
  115OSM    H9F12078   2.788   5.000   9.844  0.9526 -1.1499  1.7726
  115OSM   C10F12079   2.714   4.905   9.667 -0.4380 -0.1600 -0.2863
  115OSM   H10F12080   2.797   4.938   9.603  0.5427 -3.0024 -0.5907
  115OSM   C11F12081   2.610   4.821   9.599 -0.0629  0.1256  0.6749
  115OSM   H11F12082   2.518   4.814   9.660 -1.1821 -0.1257 -0.9850
  115OSM   H11G12083   2.644   4.717   9.581 -0.1816  0.1210  0.4704
  115OSM   C12F12084   2.585   4.882   9.462  0.3707  0.0482 -0.4332
  115OSM   H12F12085   2.675   4.916   9.407  0.1558 -1.6547 -1.9421
  115OSM   H12G12086   2.528   4.977   9.465  1.4796  0.7272 -0.2078
  115OSM   C13F12087   2.511   4.784   9.370 -0.1903  0.2028 -0.1973
  115OSM   H13F12088   2.434   4.730   9.429 -2.0414  2.0514 -0.7583
  115OSM   H13G12089   2.583   4.703   9.345 -0.0612  0.4921 -0.7899
  115OSM   C14F12090   2.440   4.842   9.247  0.4769 -0.2458 -0.6287
  115OSM   H14F12091   2.516   4.890   9.182  1.7732 -0.2878  0.7991
  115OSM   H14G12092   2.353   4.909   9.266 -1.3319 -2.1988 -1.6049
  115OSM   C15F12093   2.373   4.742   9.149 -0.2321  0.4890  0.2582
  115OSM   H15F12094   2.273   4.726   9.195 -1.6264  3.0062 -1.6003
  115OSM   H15G12095   2.420   4.642   9.142  0.3536  0.7198  0.7979
  115OSM   C16F12096   2.332   4.787   9.008  0.1347  0.1179  0.3196
  115OSM   H16F12097   2.266   4.706   8.971  1.5417 -1.3526  0.8916
  115OSM   H16G12098   2.418   4.786   8.937 -1.6162 -0.6092 -1.8961
  115OSM   C17F12099   2.265   4.923   9.005  0.2141 -0.1377  0.7727
  115OSM   H17F12100   2.350   4.993   9.019  0.2812 -0.6477  3.3902
  115OSM   H17G12101   2.196   4.942   9.089  0.2352 -0.8478  0.9567
  115OSM   C18F12102   2.197   4.951   8.868  0.4172 -0.0331 -0.8095
  115OSM   H18F12103   2.108   4.885   8.861  1.1219 -1.0635 -0.2126
  115OSM   H18G12104   2.261   4.946   8.778  0.3291 -0.0531 -0.8705
  115OSM   H18H12105   2.160   5.056   8.877  2.2667  0.6573 -0.8206
  116OSM      N12106   6.715   1.172  11.350  0.7249 -0.0855  0.6030
  116OSM    C1512107   6.666   1.287  11.423  0.1563 -0.1239 -0.6746
  116OSM   H15A12108   6.559   1.297  11.434  0.3288 -1.2399  4.2180
  116OSM   H15B12109   6.702   1.384  11.390  1.9658  0.1243  1.6919
  116OSM   H15C12110   6.707   1.298  11.523 -0.1764 -0.1746 -0.5301
  116OSM    C1412111   6.860   1.172  11.346 -0.4730 -0.1981 -0.0652
  116OSM   H14A12112   6.899   1.253  11.287 -2.5172  0.3110 -0.7750
  116OSM   H14B12113   6.889   1.079  11.299  0.6457 -1.5111  2.9219
  116OSM   H14C12114   6.898   1.168  11.447 -2.6722  1.2876  0.8791
  116OSM    C1312115   6.670   1.051  11.433 -0.1472 -0.1372 -0.0958
  116OSM   H13A12116   6.705   1.046  11.535  1.2319 -1.9777 -0.5985
  116OSM   H13B12117   6.698   0.960  11.381 -1.0221 -0.3129 -0.2755
  116OSM   H13C12118   6.562   1.052  11.438 -0.1730  2.5396  0.2925
  116OSM    C1212119   6.663   1.168  11.206 -0.3123  0.3497  0.1448
  116OSM   H12A12120   6.556   1.148  11.209 -0.2511  0.0761  0.7109
  116OSM   H12B12121   6.712   1.088  11.153  0.9128  1.2613 -0.1507
  116OSM    C1112122   6.675   1.306  11.128 -0.2097  1.0319 -0.0048
  116OSM   H11A12123   6.649   1.279  11.023  0.4125 -0.3567  0.1704
  116OSM   H11B12124   6.780   1.341  11.129  1.2171 -2.6961 -0.9823
  116OSM      P12125   6.434   1.400  11.162 -0.2724 -0.0668 -0.1504
  116OSM    O1312126   6.398   1.259  11.138 -0.2040  0.0247  0.0595
  116OSM    O1412127   6.368   1.484  11.264 -0.0068  0.6790 -0.5038
  116OSM    O1112128   6.395   1.471  11.033  0.6002 -0.5899 -0.3129
  116OSM    O1212129   6.586   1.411  11.165 -0.4026  0.4152 -0.2154
  116OSM    C1S12130   6.465   1.520  10.919  0.3213 -0.1135 -0.4802
  116OSM    H1S12131   6.575   1.507  10.928  0.4011  0.7096 -0.2568
  116OSM    H1T12132   6.457   1.630  10.911  1.4257  0.0707  0.6517
  116OSM     NF12133   6.516   1.462  10.685 -0.2221  0.7832  0.1187
  116OSM    HNF12134   6.481   1.528  10.618  0.6423  1.0559 -0.0696
  116OSM    C2S12135   6.428   1.433  10.800 -0.0385 -0.3879 -0.5250
  116OSM    H2S12136   6.433   1.326  10.831  0.1297 -0.1897  0.1458
  116OSM    C3S12137   6.273   1.456  10.766 -0.6976  0.1402 -0.6910
  116OSM    H3S12138   6.277   1.563  10.736  0.7459 -0.4857 -2.9977
  116OSM     O312139   6.187   1.446  10.875  0.0078 -0.3301  0.1142
  116OSM    HO312140   6.250   1.444  10.947 -0.3364  1.1217  0.4857
  116OSM    C4S12141   6.238   1.370  10.648  0.1206  0.3747 -0.1743
  116OSM    H4S12142   6.252   1.425  10.554 -2.6008 -0.9152 -1.4589
  116OSM    C5S12143   6.197   1.243  10.648 -0.4188  0.5632  0.3745
  116OSM    H5S12144   6.182   1.195  10.746  0.9914  0.1230  0.3907
  116OSM    C6S12145   6.162   1.164  10.528  0.1333  0.2385  0.1678
  116OSM    H6S12146   6.119   1.235  10.454  1.2120  0.4078 -0.3079
  116OSM    H6T12147   6.097   1.079  10.560  0.2874 -0.3343 -0.9845
  116OSM    C7S12148   6.285   1.099  10.458  0.1403  0.3666 -0.2932
  116OSM    H7S12149   6.321   1.016  10.523  1.3303  2.1668  1.4343
  116OSM    H7T12150   6.364   1.176  10.450  1.0949 -0.5726 -0.0590
  116OSM    C8S12151   6.257   1.044  10.317  0.8968 -0.0037 -0.2956
  116OSM    H8S12152   6.192   1.125  10.276  0.1540  0.4849  1.7635
  116OSM    H8T12153   6.191   0.956  10.326 -0.0952  0.4833 -2.2058
  116OSM    C9S12154   6.378   1.008  10.229  0.7674 -0.5024  0.4201
  116OSM    H9S12155   6.411   0.909  10.265  1.1336 -0.4755  0.1648
  116OSM    H9T12156   6.461   1.081  10.237 -0.4116  0.6525  3.2143
  116OSM   C10S12157   6.342   1.003  10.080 -0.4114 -0.1676 -0.5467
  116OSM   H10S12158   6.318   1.108  10.052 -2.5389 -0.0319  1.5753
  116OSM   H10T12159   6.261   0.929  10.065 -1.8626  1.0597  0.9160
  116OSM   C11S12160   6.455   0.942  10.005  0.6548 -0.3095 -0.2884
  116OSM   H11S12161   6.520   0.882  10.072 -1.9387 -2.1509  0.7415
  116OSM   H11T12162   6.518   1.029   9.975  1.0170 -0.6834 -0.6108
  116OSM   C12S12163   6.414   0.867   9.887  0.0331  0.2806  0.1434
  116OSM   H12S12164   6.331   0.928   9.845 -1.1310 -0.8740  0.6844
  116OSM   H12T12165   6.364   0.775   9.926 -2.3668  1.5303  0.1951
  116OSM   C13S12166   6.519   0.832   9.789  0.5216  0.4195  0.1552
  116OSM   H13S12167   6.572   0.741   9.825  1.1886  0.6187 -0.2995
  116OSM   H13T12168   6.595   0.913   9.791  0.0389  0.9003 -0.4680
  116OSM   C14S12169   6.470   0.803   9.644  0.4498  0.4791 -0.1568
  116OSM   H14S12170   6.360   0.796   9.635  0.6345 -0.7700 -2.0415
  116OSM   H14T12171   6.519   0.709   9.611 -0.0227 -0.3283  1.3679
  116OSM   C15S12172   6.508   0.908   9.531 -0.5414  0.6476  1.3442
  116OSM   H15S12173   6.616   0.928   9.546 -0.3635 -0.3185  1.4515
  116OSM   H15T12174   6.463   1.008   9.546  0.9639  1.3437  1.3796
  116OSM   C16S12175   6.476   0.845   9.391  0.2004 -0.4130  0.0774
  116OSM   H16S12176   6.526   0.746   9.396 -0.9865 -1.0034  0.5533
  116OSM   H16T12177   6.519   0.894   9.301  3.0984 -1.7254  0.6155
  116OSM   C17S12178   6.328   0.832   9.358  0.6157  0.9110 -0.2076
  116OSM   H17S12179   6.267   0.924   9.350 -0.3832  0.1115 -2.4135
  116OSM   H17T12180   6.294   0.760   9.435  0.9027  0.3768 -0.5745
  116OSM   C18S12181   6.306   0.753   9.230 -0.2166  0.2507 -0.0135
  116OSM   H18S12182   6.201   0.756   9.195 -0.6771  1.4369  1.3381
  116OSM   H18T12183   6.351   0.652   9.232 -0.8587 -0.0367  0.3921
  116OSM   H18U12184   6.360   0.803   9.147  0.7217 -0.5585  0.1033
  116OSM    C1F12185   6.633   1.407  10.665  1.2697  0.1774 -0.6485
  116OSM     OF12186   6.679   1.335  10.747  0.3400  0.3386 -0.7391
  116OSM    C2F12187   6.698   1.456  10.539  0.6634  0.0563 -0.4920
  116OSM    H2F12188   6.765   1.541  10.564  1.1793 -0.3193 -0.5720
  116OSM    H2G12189   6.616   1.500  10.479 -2.6332 -1.0696  2.7937
  116OSM    C3F12190   6.786   1.357  10.458  0.0765  0.1153  0.6366
  116OSM    H3F12191   6.841   1.299  10.535 -1.4591 -1.4316  0.6179
  116OSM    H3G12192   6.868   1.415  10.411 -0.4400 -0.5958 -1.2519
  116OSM    C4F12193   6.704   1.264  10.362 -0.3742 -0.4082  0.1877
  116OSM    H4F12194   6.632   1.336  10.318  1.0849  1.7355  1.1350
  116OSM    H4G12195   6.651   1.190  10.424  2.1935 -2.0854  0.5382
  116OSM    C5F12196   6.784   1.198  10.254 -0.6103  0.0724 -0.3227
  116OSM    H5F12197   6.712   1.139  10.194 -0.0491 -1.5397  0.5252
  116OSM    H5G12198   6.863   1.132  10.295 -0.6164  1.0939  1.4609
  116OSM    C6F12199   6.855   1.309  10.166 -0.2308 -0.4529  0.4472
  116OSM    H6F12200   6.909   1.264  10.079 -0.6841 -1.8187  0.8407
  116OSM    H6G12201   6.941   1.358  10.216  0.4357 -0.9091 -0.2186
  116OSM    C7F12202   6.763   1.405  10.102  0.2577  0.5132  0.1732
  116OSM    H7F12203   6.812   1.490  10.048 -0.8292  1.8539  1.2259
  116OSM    H7G12204   6.724   1.454  10.193  1.7637  0.4949  0.8576
  116OSM    C8F12205   6.650   1.348  10.014  1.3481 -0.3571  0.2928
  116OSM    H8F12206   6.589   1.280  10.078 -1.0311  1.7730  0.4566
  116OSM    H8G12207   6.702   1.295   9.932  1.5609 -1.1046  0.8949
  116OSM    C9F12208   6.568   1.463   9.960  0.2300  0.5366 -0.3835
  116OSM    H9F12209   6.533   1.542  10.028 -0.5590  0.9068 -1.1956
  116OSM   C10F12210   6.535   1.468   9.830 -0.4903 -0.2749  0.2556
  116OSM   H10F12211   6.488   1.558   9.788  1.8741 -0.5280 -3.3810
  116OSM   C11F12212   6.572   1.375   9.718 -0.6634  0.6825  0.2261
  116OSM   H11F12213   6.535   1.272   9.737 -0.4324  0.9082  2.0343
  116OSM   H11G12214   6.682   1.361   9.709 -1.0127 -2.6367 -0.2970
  116OSM   C12F12215   6.533   1.429   9.574  0.0696 -0.1087 -0.0054
  116OSM   H12F12216   6.604   1.512   9.557 -0.8322  0.5700 -0.5349
  116OSM   H12G12217   6.431   1.471   9.582 -0.0803 -0.2144 -1.2596
  116OSM   C13F12218   6.553   1.321   9.472 -0.4949  0.6035 -0.0179
  116OSM   H13F12219   6.498   1.231   9.505 -1.3584  0.7036 -1.1381
  116OSM   H13G12220   6.660   1.292   9.470 -1.3144 -2.7779  0.2898
  116OSM   C14F12221   6.506   1.361   9.339  0.7154  0.0034  0.1689
  116OSM   H14F12222   6.545   1.464   9.322 -2.2064  1.0923 -0.5765
  116OSM   H14G12223   6.396   1.377   9.337  0.8238  0.7526 -0.8308
  116OSM   C15F12224   6.543   1.269   9.227  0.5507  1.1218  0.1368
  116OSM   H15F12225   6.513   1.173   9.272  2.6029 -0.7999 -2.2864
  116OSM   H15G12226   6.653   1.260   9.218  0.5084  0.8254 -0.0990
  116OSM   C16F12227   6.489   1.301   9.087  0.5415 -0.6455  0.4308
  116OSM   H16F12228   6.503   1.405   9.051  0.6511 -0.6531  0.4521
  116OSM   H16G12229   6.378   1.288   9.091  0.7075 -1.8454  2.0649
  116OSM   C17F12230   6.549   1.220   8.973 -0.1106  0.3168  0.3323
  116OSM   H17F12231   6.659   1.233   8.980 -0.1604  0.5333  0.7803
  116OSM   H17G12232   6.506   1.262   8.880 -1.2861 -2.4572 -0.4921
  116OSM   C18F12233   6.518   1.066   8.980  0.4871  0.0818 -0.8073
  116OSM   H18F12234   6.410   1.042   8.988  1.0011 -2.4738 -0.5882
  116OSM   H18G12235   6.567   1.018   9.068 -1.5313 -1.7909 -0.6123
  116OSM   H18H12236   6.554   1.009   8.891  1.4509 -0.1703 -0.2808
  117OSM      N12237   4.686   2.452  11.083  0.5764  0.3249  0.1229
  117OSM    C1512238   4.757   2.342  11.159 -0.5107  0.5034 -0.0526
  117OSM   H15A12239   4.815   2.275  11.097  1.7123  1.7844  0.5210
  117OSM   H15B12240   4.698   2.281  11.225  1.4331 -0.6047  0.7385
  117OSM   H15C12241   4.829   2.387  11.226  0.3963 -1.0698  0.0698
  117OSM    C1412242   4.558   2.407  11.019 -1.1455  0.3216  0.2810
  117OSM   H14A12243   4.526   2.476  10.943 -0.9961 -0.5883 -0.6267
  117OSM   H14B12244   4.483   2.377  11.091 -0.0070 -0.0489  1.3463
  117OSM   H14C12245   4.577   2.318  10.962 -0.6220  0.2499  0.5580
  117OSM    C1312246   4.651   2.561  11.176  0.6168 -0.0360 -0.5440
  117OSM   H13A12247   4.606   2.522  11.267  0.2907  1.2583 -0.1291
  117OSM   H13B12248   4.575   2.629  11.139  0.0928  0.4828  1.3388
  117OSM   H13C12249   4.743   2.615  11.192  1.2872 -1.0704 -0.8068
  117OSM    C1212250   4.777   2.500  10.967 -0.6242  0.6740  0.2098
  117OSM   H12A12251   4.774   2.432  10.883 -1.0846  0.9068  0.0325
  117OSM   H12B12252   4.879   2.497  11.004 -1.1020 -1.3365  1.4959
  117OSM    C1112253   4.742   2.636  10.898 -0.3508  0.1202  0.7158
  117OSM   H11A12254   4.637   2.627  10.863  0.2407 -0.6567 -0.9310
  117OSM   H11B12255   4.792   2.643  10.800  0.4573  1.7099  1.2041
  117OSM      P12256   4.897   2.812  10.996  0.0457  0.1189  0.0652
  117OSM    O1312257   4.865   2.952  11.023  0.3483 -0.2329 -0.6229
  117OSM    O1412258   4.964   2.730  11.099  0.0108 -0.3258 -0.0976
  117OSM    O1112259   4.973   2.798  10.852 -0.2786  0.0186 -0.2227
  117OSM    O1212260   4.763   2.750  10.977  0.8989 -0.6416  0.4043
  117OSM    C1S12261   5.051   2.915  10.800  0.2628  1.1344 -0.8173
  117OSM    H1S12262   5.121   2.944  10.880 -1.1118  2.3058  0.0121
  117OSM    H1T12263   4.974   2.995  10.793  0.2567  1.1412 -0.6805
  117OSM     NF12264   5.194   3.006  10.631 -0.6261 -0.4092  0.6048
  117OSM    HNF12265   5.146   3.071  10.573 -2.2020 -3.9450 -2.5039
  117OSM    C2S12266   5.113   2.889  10.665 -0.3343  0.4145 -0.0262
  117OSM    H2S12267   5.180   2.802  10.682 -1.3718 -0.6797 -1.3422
  117OSM    C3S12268   5.001   2.846  10.558 -0.2726 -0.0060  0.5221
  117OSM    H3S12269   4.934   2.934  10.545 -1.3222 -0.8740 -0.0252
  117OSM     O312270   4.933   2.734  10.611 -0.0504  0.4823 -0.1632
  117OSM    HO312271   4.952   2.746  10.705 -1.8237  2.0946  0.0531
  117OSM    C4S12272   5.063   2.817  10.424  0.1654  0.5777 -0.4128
  117OSM    H4S12273   5.122   2.724  10.421 -1.1675 -0.2870 -0.5236
  117OSM    C5S12274   5.040   2.882  10.312 -0.8232 -0.6040  0.4067
  117OSM    H5S12275   4.980   2.974  10.306  1.5576  0.9378 -1.4729
  117OSM    C6S12276   5.091   2.834  10.175  0.5997 -0.7247 -0.2590
  117OSM    H6S12277   5.130   2.730  10.178 -0.9113 -1.3079  1.1906
  117OSM    H6T12278   5.176   2.901  10.150 -0.6248  0.9067 -0.2538
  117OSM    C7S12279   4.990   2.850  10.058  0.2869 -0.1145 -0.5508
  117OSM    H7S12280   4.947   2.952  10.049  0.1948  0.1378  1.9918
  117OSM    H7T12281   4.911   2.776  10.082  1.7624 -1.0743  1.7150
  117OSM    C8S12282   5.050   2.809   9.927 -0.5582  0.2258 -0.0119
  117OSM    H8S12283   5.081   2.702   9.933  0.2486  0.2391 -2.8338
  117OSM    H8T12284   5.144   2.863   9.905  0.4181 -1.3360  0.1536
  117OSM    C9S12285   4.956   2.821   9.806 -0.0325  0.3065 -0.3209
  117OSM    H9S12286   4.917   2.925   9.796  0.0279  0.3015 -0.6082
  117OSM    H9T12287   4.864   2.762   9.830  0.1892  0.0119 -0.1947
  117OSM   C10S12288   5.030   2.763   9.682  0.5370 -0.1452 -1.4316
  117OSM   H10S12289   5.055   2.656   9.695  1.5283  0.3147  1.0668
  117OSM   H10T12290   5.129   2.814   9.689  0.1240  0.5747  4.1376
  117OSM   C11S12291   4.964   2.792   9.551 -0.2200  0.4468  0.1589
  117OSM   H11S12292   4.929   2.897   9.548 -2.0139 -0.1173 -0.0170
  117OSM   H11T12293   4.885   2.713   9.542  0.1139  0.1147  0.1202
  117OSM   C12S12294   5.058   2.783   9.431  0.4303 -0.3467 -0.9157
  117OSM   H12S12295   5.127   2.708   9.474 -0.5166  0.3213  1.9661
  117OSM   H12T12296   5.120   2.874   9.414  2.0740 -1.1790  0.3390
  117OSM   C13S12297   4.997   2.739   9.300 -0.2269  0.0901  0.3199
  117OSM   H13S12298   4.925   2.818   9.268  1.2572  1.2522 -0.2894
  117OSM   H13T12299   4.942   2.643   9.307  1.8668 -1.4882 -2.4049
  117OSM   C14S12300   5.094   2.725   9.188  0.2825  0.3393 -0.4157
  117OSM   H14S12301   5.166   2.642   9.209  0.6144  0.5670 -0.6515
  117OSM   H14T12302   5.144   2.820   9.161  1.9673 -0.7383 -1.2717
  117OSM   C15S12303   5.019   2.672   9.056  0.1505 -0.3098 -1.0853
  117OSM   H15S12304   4.933   2.730   9.018 -0.2773 -0.8802 -1.0046
  117OSM   H15T12305   4.973   2.574   9.081 -0.6141 -0.7963 -3.9845
  117OSM   C16S12306   5.128   2.643   8.951 -0.3807  0.4305 -0.4281
  117OSM   H16S12307   5.226   2.618   8.997  0.2417 -0.9222 -2.3711
  117OSM   H16T12308   5.144   2.734   8.888  0.7366  1.3387  1.0791
  117OSM   C17S12309   5.080   2.521   8.859  0.1758 -0.0373  0.0715
  117OSM   H17S12310   5.009   2.453   8.910 -0.9768  0.2613 -1.0803
  117OSM   H17T12311   5.168   2.462   8.827 -1.1381 -1.1662 -1.6401
  117OSM   C18S12312   4.998   2.577   8.742 -0.5235 -0.3455 -1.0208
  117OSM   H18S12313   4.921   2.641   8.789  0.0661  0.6619 -1.3958
  117OSM   H18T12314   4.941   2.502   8.684  0.6230 -1.4969 -0.7129
  117OSM   H18U12315   5.063   2.637   8.675  1.7481  0.2916  1.5453
  117OSM    C1F12316   5.314   3.049  10.684 -0.0684 -0.2718  0.0836
  117OSM     OF12317   5.389   2.972  10.755  0.1207  0.2413 -0.5009
  117OSM    C2F12318   5.360   3.190  10.658 -0.2434  0.7126  0.8643
  117OSM    H2F12319   5.391   3.232  10.756 -2.5844  1.3765  1.3938
  117OSM    H2G12320   5.268   3.250  10.635  0.5992  1.6971 -0.0888
  117OSM    C3F12321   5.462   3.196  10.540  0.3975 -0.0511 -0.2081
  117OSM    H3F12322   5.547   3.139  10.582 -0.3752 -1.1258 -0.0692
  117OSM    H3G12323   5.499   3.299  10.518  1.4297 -0.9277 -2.9102
  117OSM    C4F12324   5.420   3.128  10.411 -0.3399  0.1044  0.0200
  117OSM    H4F12325   5.323   3.172  10.381  1.0147  2.2102 -1.4966
  117OSM    H4G12326   5.416   3.017  10.419  2.8510 -0.1837 -0.9086
  117OSM    C5F12327   5.525   3.151  10.299 -0.0058 -1.1838 -0.4498
  117OSM    H5F12328   5.626   3.124  10.336 -0.4712 -3.0805 -0.4607
  117OSM    H5G12329   5.522   3.261  10.281 -1.2459 -1.2329 -0.6534
  117OSM    C6F12330   5.502   3.068  10.177  0.6811 -0.5242  0.1604
  117OSM    H6F12331   5.403   3.093  10.134 -0.6121 -1.4853  2.3772
  117OSM    H6G12332   5.486   2.962  10.208 -1.6070 -0.0292  0.8341
  117OSM    C7F12333   5.608   3.080  10.073 -0.0182  0.9609 -0.3946
  117OSM    H7F12334   5.707   3.083  10.122 -1.1713 -1.3537  2.3574
  117OSM    H7G12335   5.583   3.175  10.022 -1.4034  2.1229  2.2467
  117OSM    C8F12336   5.609   2.959   9.979  0.0062  0.1925  0.3811
  117OSM    H8F12337   5.623   2.865  10.037 -1.4289 -0.1859  0.1405
  117OSM    H8G12338   5.708   2.968   9.929  1.5309 -0.7924  3.0133
  117OSM    C9F12339   5.491   2.947   9.887  0.1814 -0.4192  0.1162
  117OSM    H9F12340   5.394   2.915   9.927 -0.0926 -1.2477 -1.1425
  117OSM   C10F12341   5.487   2.980   9.758 -0.0954  0.2955  0.5248
  117OSM   H10F12342   5.392   2.979   9.704 -0.1457 -1.0965  0.5842
  117OSM   C11F12343   5.605   3.023   9.670  0.5661 -0.6100  0.5574
  117OSM   H11F12344   5.704   2.984   9.701  0.4560 -1.2653  0.1036
  117OSM   H11G12345   5.601   3.134   9.663 -1.2909 -0.4909  2.3424
  117OSM   C12F12346   5.600   2.955   9.533  0.2011 -0.1867  0.5480
  117OSM   H12F12347   5.603   2.844   9.545 -0.8963 -0.1930  0.8406
  117OSM   H12G12348   5.691   2.994   9.484 -0.3015  1.9483  1.2222
  117OSM   C13F12349   5.473   2.968   9.447  0.0000 -0.0698  0.0341
  117OSM   H13F12350   5.434   3.072   9.447  1.0061  0.3166  0.3264
  117OSM   H13G12351   5.397   2.893   9.478  1.7096 -2.1700 -0.6172
  117OSM   C14F12352   5.493   2.933   9.296 -0.2225  0.4460 -0.6791
  117OSM   H14F12353   5.572   2.994   9.247  1.9657 -1.0093  0.8629
  117OSM   H14G12354   5.393   2.950   9.251 -0.9448  0.2659  0.7988
  117OSM   C15F12355   5.522   2.785   9.277  0.5838  0.4924  0.6658
  117OSM   H15F12356   5.441   2.724   9.321  0.5633  1.6256  2.2967
  117OSM   H15G12357   5.624   2.765   9.316  1.1146  1.2055 -0.3050
  117OSM   C16F12358   5.501   2.742   9.126 -0.0150 -0.0819  0.2361
  117OSM   H16F12359   5.396   2.750   9.090  0.3721 -3.2867 -2.0840
  117OSM   H16G12360   5.521   2.632   9.129  1.7312  0.2144  0.7263
  117OSM   C17F12361   5.602   2.795   9.022  0.2322  0.1174  0.0584
  117OSM   H17F12362   5.625   2.713   8.950 -0.8198  0.1040 -0.2767
  117OSM   H17G12363   5.695   2.806   9.083 -1.0934 -1.2178  2.4757
  117OSM   C18F12364   5.556   2.920   8.948 -0.0630  0.2234 -0.8261
  117OSM   H18F12365   5.481   2.889   8.873  0.3152 -1.4280 -0.5515
  117OSM   H18G12366   5.649   2.959   8.901  1.5070  0.0555  1.9755
  117OSM   H18H12367   5.513   2.986   9.026 -3.2772 -2.1552 -0.3910
  118OSM      N12368   4.440   2.973  11.124 -0.3189  0.1796  0.6037
  118OSM    C1512369   4.387   3.083  11.206  0.0527  0.5947  0.0239
  118OSM   H15A12370   4.366   3.165  11.138  2.5335  0.4548 -1.0426
  118OSM   H15B12371   4.455   3.123  11.279  1.0997  1.2573 -1.2679
  118OSM   H15C12372   4.289   3.054  11.239  0.1186  0.4271  0.0740
  118OSM    C1412373   4.570   2.998  11.065 -0.3614 -0.5859 -0.0340
  118OSM   H14A12374   4.649   3.020  11.136  1.5284 -1.7035 -1.7137
  118OSM   H14B12375   4.562   3.089  11.007 -2.6129 -1.0930 -0.5861
  118OSM   H14C12376   4.604   2.924  10.995 -0.3263  1.0545 -1.8370
  118OSM    C1312377   4.451   2.843  11.195  0.0621 -0.0069 -0.3202
  118OSM   H13A12378   4.547   2.837  11.245  1.2496 -3.0275 -2.6606
  118OSM   H13B12379   4.429   2.757  11.134  0.3749 -0.0333 -0.3974
  118OSM   H13C12380   4.371   2.841  11.268 -0.1506 -0.3720 -0.5611
  118OSM    C1212381   4.338   2.950  11.009  0.0941  0.5180  0.0038
  118OSM   H12A12382   4.243   2.934  11.058 -0.7167 -0.0516 -1.6951
  118OSM   H12B12383   4.358   2.860  10.953 -0.6972  1.6116 -2.1529
  118OSM    C1112384   4.320   3.066  10.902  0.2264  0.5182  0.5173
  118OSM   H11A12385   4.239   3.031  10.835 -2.6581  1.1897  3.4115
  118OSM   H11B12386   4.411   3.077  10.838 -2.1566  0.1228 -3.2645
  118OSM      P12387   4.332   3.326  10.926 -0.3855 -0.0588  0.3160
  118OSM    O1312388   4.228   3.428  10.914  0.1798 -0.0005  0.3492
  118OSM    O1412389   4.446   3.365  11.014  0.5303  0.3610  0.2016
  118OSM    O1112390   4.390   3.298  10.783 -0.0242 -0.0182  0.2185
  118OSM    O1212391   4.276   3.181  10.962  0.4352 -0.6037 -0.6689
  118OSM    C1S12392   4.411   3.400  10.685 -0.1125  0.4807  0.0560
  118OSM    H1S12393   4.515   3.439  10.697 -0.5495  1.3663  1.0573
  118OSM    H1T12394   4.340   3.483  10.698  2.1184  2.4716  0.1986
  118OSM     NF12395   4.425   3.470  10.451 -0.1038  0.1738 -0.3568
  118OSM    HNF12396   4.345   3.523  10.423 -0.4129  0.3807  0.8789
  118OSM    C2S12397   4.394   3.356  10.536  0.0052  0.6035  0.1462
  118OSM    H2S12398   4.458   3.269  10.510 -1.4973 -0.5474  0.1957
  118OSM    C3S12399   4.251   3.300  10.515  0.0852 -0.6566 -1.3546
  118OSM    H3S12400   4.180   3.383  10.538  0.3793 -0.6287 -0.5263
  118OSM     O312401   4.206   3.195  10.605  0.1266 -0.2097  0.1607
  118OSM    HO312402   4.237   3.217  10.693 -0.3325 -1.5839  0.6880
  118OSM    C4S12403   4.222   3.264  10.368 -0.3042  0.4375  0.4462
  118OSM    H4S12404   4.223   3.344  10.294  0.7834 -1.3681 -1.6158
  118OSM    C5S12405   4.192   3.142  10.315  0.8700  0.7195  0.2028
  118OSM    H5S12406   4.184   3.056  10.384 -1.9045 -0.5232 -1.5020
  118OSM    C6S12407   4.157   3.116  10.169 -0.0227 -0.4286 -0.0415
  118OSM    H6S12408   4.047   3.111  10.156  0.1603 -1.9382 -1.2237
  118OSM    H6T12409   4.192   3.014  10.142 -0.5702 -0.3172 -1.2492
  118OSM    C7S12410   4.204   3.225  10.072 -0.1666 -0.0144  0.2190
  118OSM    H7S12411   4.309   3.260  10.078  0.3652 -1.5492  0.2261
  118OSM    H7T12412   4.134   3.312  10.074  1.8060  1.6445 -0.3906
  118OSM    C8S12413   4.190   3.171   9.931 -0.3329 -0.1954  0.5134
  118OSM    H8S12414   4.092   3.122   9.916  0.3977 -0.7285 -3.7388
  118OSM    H8T12415   4.270   3.096   9.915 -0.3854  0.1679 -1.7394
  118OSM    C9S12416   4.200   3.275   9.811  0.0755 -0.1917 -0.0082
  118OSM    H9S12417   4.300   3.324   9.812  0.2505 -0.4968 -1.1747
  118OSM    H9T12418   4.124   3.356   9.810  0.7287  0.6445 -4.4245
  118OSM   C10S12419   4.171   3.219   9.673  0.1643  0.6746 -0.0619
  118OSM   H10S12420   4.067   3.180   9.669  1.1971 -2.3690  0.2273
  118OSM   H10T12421   4.223   3.121   9.666 -1.5219 -0.2495 -0.2182
  118OSM   C11S12422   4.201   3.312   9.552  0.2233 -0.3337 -0.7888
  118OSM   H11S12423   4.310   3.328   9.546  0.1683  2.3899  2.5186
  118OSM   H11T12424   4.167   3.414   9.579  1.3110 -0.4098  1.0156
  118OSM   C12S12425   4.155   3.257   9.415 -0.0420  0.0747  0.1291
  118OSM   H12S12426   4.080   3.331   9.378 -1.5854 -1.1184  0.7713
  118OSM   H12T12427   4.101   3.160   9.413 -1.8848  1.0617 -1.2255
  118OSM   C13S12428   4.272   3.241   9.311 -0.2000  0.3500 -0.5219
  118OSM   H13S12429   4.343   3.170   9.359  0.2638  0.8096 -0.5297
  118OSM   H13T12430   4.327   3.337   9.319 -0.0142  0.2231 -0.2370
  118OSM   C14S12431   4.229   3.214   9.171  0.3632  0.0672  0.2581
  118OSM   H14S12432   4.176   3.305   9.133  0.7228  0.3816  0.5075
  118OSM   H14T12433   4.147   3.140   9.178  0.3469  0.2609  3.4802
  118OSM   C15S12434   4.346   3.186   9.084 -0.2744  0.1443  0.0767
  118OSM   H15S12435   4.412   3.111   9.133  0.9376  0.6688 -0.6837
  118OSM   H15T12436   4.404   3.281   9.088  1.2997 -0.8247  3.2826
  118OSM   C16S12437   4.317   3.161   8.930  0.4646  0.2868 -0.2178
  118OSM   H16S12438   4.403   3.176   8.861  0.5477  1.6078  0.1392
  118OSM   H16T12439   4.237   3.224   8.885 -0.5496 -0.1932  0.8495
  118OSM   C17S12440   4.268   3.013   8.925  0.3539 -0.3985 -0.2432
  118OSM   H17S12441   4.177   2.989   8.985  0.3853 -2.5880 -0.9650
  118OSM   H17T12442   4.342   2.944   8.972 -1.8589 -3.0597 -0.3719
  118OSM   C18S12443   4.234   2.973   8.779 -0.7736 -1.2119  0.0659
  118OSM   H18S12444   4.325   2.968   8.715  0.8971  0.8573  2.0947
  118OSM   H18T12445   4.151   3.033   8.736  1.2110  1.0993 -0.7792
  118OSM   H18U12446   4.210   2.865   8.779 -1.0871 -1.1934 -2.3193
  118OSM    C1F12447   4.549   3.517  10.441  0.0314  0.1660  0.3837
  118OSM     OF12448   4.648   3.461  10.489  0.9389 -0.2901  0.1532
  118OSM    C2F12449   4.562   3.654  10.380  0.8113  0.3640 -0.3072
  118OSM    H2F12450   4.554   3.733  10.457  1.9179  0.3899 -0.2170
  118OSM    H2G12451   4.474   3.668  10.313 -0.2247  0.1927  0.9852
  118OSM    C3F12452   4.681   3.691  10.298 -0.0296 -0.1379 -0.2533
  118OSM    H3F12453   4.771   3.684  10.363 -1.5705  2.5789  2.4802
  118OSM    H3G12454   4.664   3.798  10.274 -0.7654 -0.1919 -0.0305
  118OSM    C4F12455   4.712   3.616  10.169 -0.0448  0.0343  0.5285
  118OSM    H4F12456   4.775   3.527  10.188 -1.6903 -1.5478 -1.1443
  118OSM    H4G12457   4.776   3.689  10.114  2.8297 -2.4283  0.3934
  118OSM    C5F12458   4.589   3.573  10.076  0.1806 -0.2588  0.5037
  118OSM    H5F12459   4.505   3.641  10.100  1.2102  2.4878 -2.7534
  118OSM    H5G12460   4.571   3.467  10.101 -0.0869  0.1591  2.2177
  118OSM    C6F12461   4.619   3.594   9.923 -0.1081 -0.6118 -0.1704
  118OSM    H6F12462   4.687   3.509   9.899  2.4315  1.1690  0.2301
  118OSM    H6G12463   4.670   3.691   9.904 -3.2453  0.8370 -1.9732
  118OSM    C7F12464   4.495   3.599   9.831 -0.3979  0.4852  0.1689
  118OSM    H7F12465   4.435   3.681   9.876 -0.1511  0.9180 -0.2795
  118OSM    H7G12466   4.440   3.504   9.853  2.2724 -1.1363  0.2810
  118OSM    C8F12467   4.533   3.629   9.686  0.0648  0.1397 -1.0684
  118OSM    H8F12468   4.594   3.542   9.654  0.1610 -0.8062  1.4845
  118OSM    H8G12469   4.601   3.716   9.677 -0.4225  0.4791 -1.5543
  118OSM    C9F12470   4.405   3.660   9.604 -0.2418  0.6368 -0.7022
  118OSM    H9F12471   4.317   3.683   9.665  1.2471  1.6574  1.1516
  118OSM   C10F12472   4.404   3.681   9.476  0.3646  0.2426  0.3923
  118OSM   H10F12473   4.309   3.702   9.425  0.5120  0.2285  0.1120
  118OSM   C11F12474   4.518   3.673   9.379  0.2608 -0.4061  0.1005
  118OSM   H11F12475   4.527   3.568   9.343 -2.0171 -0.5390 -0.2011
  118OSM   H11G12476   4.615   3.697   9.427  1.6969  1.0434 -3.2031
  118OSM   C12F12477   4.518   3.774   9.265  0.0396  0.0343  0.0193
  118OSM   H12F12478   4.602   3.755   9.195  0.0162 -2.8322  0.6623
  118OSM   H12G12479   4.522   3.873   9.314 -3.8023  0.0319  0.5946
  118OSM   C13F12480   4.384   3.781   9.183 -0.1121  0.9223  0.1320
  118OSM   H13F12481   4.389   3.871   9.117  1.7838 -1.5160 -3.3544
  118OSM   H13G12482   4.297   3.795   9.250 -0.4322 -2.5336  0.6184
  118OSM   C14F12483   4.367   3.646   9.100 -0.2075 -0.1590 -0.4499
  118OSM   H14F12484   4.370   3.558   9.168  4.0628 -0.1072 -0.3000
  118OSM   H14G12485   4.462   3.652   9.042 -0.5187  1.2987 -0.8591
  118OSM   C15F12486   4.254   3.639   8.997  0.2512  0.3639  0.0452
  118OSM   H15F12487   4.220   3.741   8.970  0.9345  0.6369  0.2008
  118OSM   H15G12488   4.168   3.598   9.055  0.2430  0.2472 -0.0488
  118OSM   C16F12489   4.288   3.558   8.875  0.1999  0.5320  0.4045
  118OSM   H16F12490   4.310   3.454   8.908  1.0085  1.0412  1.5807
  118OSM   H16G12491   4.374   3.599   8.817 -0.2613 -0.1684 -0.8177
  118OSM   C17F12492   4.153   3.550   8.782 -0.3543 -0.2860 -0.6092
  118OSM   H17F12493   4.126   3.655   8.757 -2.2496 -0.6033 -0.1027
  118OSM   H17G12494   4.072   3.504   8.843  0.2075 -1.0630 -0.4303
  118OSM   C18F12495   4.172   3.470   8.647 -0.5263 -1.0082  0.4015
  118OSM   H18F12496   4.194   3.362   8.665 -1.3617 -1.1302  0.7648
  118OSM   H18G12497   4.257   3.510   8.587  1.0555 -2.9323  1.2411
  118OSM   H18H12498   4.081   3.477   8.583  0.4464 -0.2641 -0.9616
  119OSM      N12499   5.385   2.786  11.140  0.9509 -0.0046  0.0075
  119OSM    C1512500   5.248   2.858  11.142  0.0338 -0.6888  0.5641
  119OSM   H15A12501   5.184   2.803  11.074  2.9902 -1.1259 -2.0810
  119OSM   H15B12502   5.260   2.954  11.093 -0.5278 -1.9060 -2.1224
  119OSM   H15C12503   5.210   2.877  11.242 -0.5374  3.3844 -0.2348
  119OSM    C1412504   5.473   2.875  11.229  0.7612 -0.1190  0.1192
  119OSM   H14A12505   5.562   2.814  11.233  0.3842 -0.6375  0.9006
  119OSM   H14B12506   5.418   2.880  11.321 -1.2305  0.3342 -1.0444
  119OSM   H14C12507   5.500   2.973  11.194  1.2338  0.2573  1.4718
  119OSM    C1312508   5.371   2.659  11.218  0.1178  0.1300 -0.1410
  119OSM   H13A12509   5.471   2.620  11.236  0.7580  0.7517 -2.1324
  119OSM   H13B12510   5.307   2.589  11.166 -0.6292  0.3703  0.4364
  119OSM   H13C12511   5.324   2.671  11.314  0.6524  2.1450 -0.0881
  119OSM    C1212512   5.449   2.775  11.002 -0.4183  0.2268 -0.5371
  119OSM   H12A12513   5.549   2.732  11.005 -1.1878 -1.7475 -1.5555
  119OSM   H12B12514   5.459   2.876  10.966 -1.7255 -0.5709 -3.3407
  119OSM    C1112515   5.392   2.692  10.892 -0.1434 -0.4754 -0.0710
  119OSM   H11A12516   5.459   2.704  10.804 -0.1332 -1.6786 -0.2408
  119OSM   H11B12517   5.293   2.741  10.874  0.1061  0.2303  0.4381
  119OSM      P12518   5.479   2.449  10.907  0.2068 -0.2593  0.1543
  119OSM    O1312519   5.614   2.504  10.934  0.2268  0.2691  0.3789
  119OSM    O1412520   5.441   2.327  10.985 -0.2189 -0.1014 -0.6000
  119OSM    O1112521   5.468   2.418  10.753 -0.3278  0.6748  0.3315
  119OSM    O1212522   5.364   2.561  10.931  0.1057 -0.0831  0.0261
  119OSM    C1S12523   5.382   2.320  10.694  0.3759 -0.7354 -0.4045
  119OSM    H1S12524   5.286   2.373  10.676 -0.8797 -2.3148  1.3082
  119OSM    H1T12525   5.359   2.240  10.767  3.3415 -1.9285 -0.6269
  119OSM     NF12526   5.349   2.160  10.501  0.6476  0.0246 -0.4677
  119OSM    HNF12527   5.369   2.063  10.498 -2.5937 -0.7928  0.6801
  119OSM    C2S12528   5.441   2.249  10.568 -0.1611 -0.4707  0.4549
  119OSM    H2S12529   5.463   2.326  10.491 -0.4966 -2.2489 -1.5066
  119OSM    C3S12530   5.574   2.186  10.594  0.3586  0.7301 -0.1182
  119OSM    H3S12531   5.556   2.097  10.657 -0.1726 -0.4283 -1.8578
  119OSM     O312532   5.663   2.282  10.654 -0.3620 -0.2622 -0.1793
  119OSM    HO312533   5.610   2.359  10.674  1.9380  0.7726  2.6633
  119OSM    C4S12534   5.640   2.121  10.469 -0.3545  0.2956 -0.4094
  119OSM    H4S12535   5.636   2.011  10.465  0.7189  0.2512 -0.4995
  119OSM    C5S12536   5.702   2.189  10.376  0.0603 -0.9060 -0.7068
  119OSM    H5S12537   5.723   2.295  10.398 -1.3400 -0.1449 -2.6630
  119OSM    C6S12538   5.770   2.152  10.247 -0.0457  0.6713  0.2890
  119OSM    H6S12539   5.751   2.045  10.227 -0.4687  0.8879 -0.4969
  119OSM    H6T12540   5.881   2.157  10.245  0.0052 -0.0034  1.0555
  119OSM    C7S12541   5.720   2.226  10.122 -0.2536 -0.4072  0.0034
  119OSM    H7S12542   5.731   2.336  10.124 -1.2053 -0.3031  2.3007
  119OSM    H7T12543   5.609   2.218  10.128 -0.3698  1.5367  1.2821
  119OSM    C8S12544   5.772   2.156   9.991  0.5746 -0.1708 -0.7000
  119OSM    H8S12545   5.757   2.048  10.012 -0.4431  0.2426  0.7908
  119OSM    H8T12546   5.883   2.161   9.980  0.5934 -1.2740 -1.2158
  119OSM    C9S12547   5.710   2.201   9.854 -0.3512 -0.0675 -0.2131
  119OSM    H9S12548   5.744   2.307   9.850  1.1178 -0.4192  1.6746
  119OSM    H9T12549   5.599   2.197   9.863 -0.4892 -3.1142 -1.9194
  119OSM   C10S12550   5.753   2.113   9.737  0.5727  0.6445 -0.8199
  119OSM   H10S12551   5.747   2.006   9.768 -2.1080  0.0057 -3.1094
  119OSM   H10T12552   5.863   2.125   9.736  0.6664 -0.1530 -0.6518
  119OSM   C11S12553   5.683   2.139   9.608  0.1344 -0.1275  0.2750
  119OSM   H11S12554   5.700   2.247   9.590  1.5284 -0.3210  0.3090
  119OSM   H11T12555   5.574   2.118   9.613  0.5427 -2.8775 -0.2897
  119OSM   C12S12556   5.734   2.054   9.487 -0.3893  0.0679 -0.9673
  119OSM   H12S12557   5.845   2.047   9.486 -0.1980  2.1658 -0.3591
  119OSM   H12T12558   5.709   2.106   9.391 -2.5094 -0.5635 -0.8023
  119OSM   C13S12559   5.681   1.911   9.482  0.0511 -0.2453  0.6336
  119OSM   H13S12560   5.572   1.912   9.463  0.3124 -2.3181 -1.4728
  119OSM   H13T12561   5.701   1.856   9.576 -0.4162  0.1786  0.9806
  119OSM   C14S12562   5.751   1.833   9.372 -0.0208  0.3094 -0.7906
  119OSM   H14S12563   5.858   1.822   9.399  0.2242  1.5544 -1.1852
  119OSM   H14T12564   5.739   1.883   9.274 -1.4646  0.4050 -0.6001
  119OSM   C15S12565   5.705   1.685   9.356  0.1021 -0.2452 -0.5297
  119OSM   H15S12566   5.594   1.678   9.360  0.1195 -0.2160  0.1125
  119OSM   H15T12567   5.721   1.633   9.454 -4.0301 -0.2063  0.3635
  119OSM   C16S12568   5.758   1.603   9.239  0.0141  0.7854 -0.7610
  119OSM   H16S12569   5.865   1.580   9.257 -0.4662 -3.9535 -2.5181
  119OSM   H16T12570   5.738   1.656   9.143 -0.0661  1.3914 -0.4151
  119OSM   C17S12571   5.688   1.468   9.234 -0.5121  0.0615  0.1321
  119OSM   H17S12572   5.689   1.420   9.334 -0.0570 -0.2964 -0.0340
  119OSM   H17T12573   5.758   1.399   9.180 -0.0226 -0.2419  1.1151
  119OSM   C18S12574   5.550   1.457   9.180  0.3691 -0.1743 -0.3670
  119OSM   H18S12575   5.549   1.475   9.071 -0.3277 -2.1552 -0.7291
  119OSM   H18T12576   5.481   1.523   9.236 -0.3799 -1.8579  0.7754
  119OSM   H18U12577   5.503   1.357   9.195 -0.1270  0.4613  3.3395
  119OSM    C1F12578   5.232   2.194  10.458 -0.6878  0.4960 -0.5362
  119OSM     OF12579   5.178   2.303  10.476 -0.5854 -0.2453 -0.2901
  119OSM    C2F12580   5.155   2.081  10.382  0.3710  0.4264  0.3547
  119OSM    H2F12581   5.055   2.084  10.430  0.2102  2.7355 -0.0130
  119OSM    H2G12582   5.191   1.979  10.407  0.2329  0.4126  0.4997
  119OSM    C3F12583   5.165   2.110  10.230  1.0413 -0.3688 -0.3360
  119OSM    H3F12584   5.112   2.207  10.219 -0.5136 -1.1875 -0.3266
  119OSM    H3G12585   5.103   2.043  10.167 -3.3676  2.5631  0.4810
  119OSM    C4F12586   5.303   2.121  10.161 -0.0076  0.3924 -0.0824
  119OSM    H4F12587   5.362   2.028  10.174 -2.9641 -1.5891  0.0793
  119OSM    H4G12588   5.355   2.205  10.213 -2.8894  1.3161  1.5424
  119OSM    C5F12589   5.289   2.136  10.008 -0.2629  0.8012  0.1957
  119OSM    H5F12590   5.365   2.209   9.972  0.9116 -1.2184 -1.7158
  119OSM    H5G12591   5.192   2.188   9.995 -0.8642 -0.0977  0.9473
  119OSM    C6F12592   5.300   1.998   9.931  0.6632  0.4039 -0.5232
  119OSM    H6F12593   5.214   1.931   9.951  0.0968  1.2713  0.0176
  119OSM    H6G12594   5.393   1.940   9.949 -0.1362 -0.9186 -0.5210
  119OSM    C7F12595   5.303   2.031   9.786  0.2389  0.3633  0.1475
  119OSM    H7F12596   5.384   2.106   9.771  0.8710 -0.1961  0.6757
  119OSM    H7G12597   5.212   2.087   9.758 -0.0148 -0.8224 -1.5291
  119OSM    C8F12598   5.333   1.911   9.693 -0.3094 -0.0121 -0.2956
  119OSM    H8F12599   5.428   1.862   9.723 -0.5540  0.1235  0.7440
  119OSM    H8G12600   5.366   1.955   9.596  2.0740  0.5283  0.6818
  119OSM    C9F12601   5.220   1.811   9.689 -0.7003 -0.5666 -0.4319
  119OSM    H9F12602   5.202   1.764   9.787 -0.8280  0.6630  0.1570
  119OSM   C10F12603   5.149   1.780   9.579 -0.3036  0.2127  0.2093
  119OSM   H10F12604   5.066   1.708   9.581 -1.1267  1.1256 -0.3250
  119OSM   C11F12605   5.168   1.857   9.444 -0.4050 -0.1992 -0.1795
  119OSM   H11F12606   5.169   1.967   9.454 -1.0134 -0.0619 -1.4744
  119OSM   H11G12607   5.073   1.835   9.391  0.0864 -1.6672 -0.5151
  119OSM   C12F12608   5.294   1.828   9.358 -0.7729 -0.5189  0.3827
  119OSM   H12F12609   5.317   1.720   9.342 -1.8571 -0.8597  1.0473
  119OSM   H12G12610   5.387   1.857   9.410 -0.3432 -2.1090  0.5497
  119OSM   C13F12611   5.280   1.892   9.221 -0.0307  0.7175 -0.2522
  119OSM   H13F12612   5.288   2.002   9.233 -0.3290  1.0688 -2.7300
  119OSM   H13G12613   5.177   1.877   9.181 -1.4338 -0.0077  3.1951
  119OSM   C14F12614   5.387   1.836   9.118  0.1675 -0.6130 -0.3688
  119OSM   H14F12615   5.381   1.728   9.143  0.3124 -0.7336 -0.8408
  119OSM   H14G12616   5.486   1.883   9.137 -0.8207  0.8136  1.5323
  119OSM   C15F12617   5.343   1.862   8.973  0.5244 -0.4798 -0.8000
  119OSM   H15F12618   5.300   1.965   8.970  0.6777 -0.3625  0.5085
  119OSM   H15G12619   5.258   1.795   8.947  0.7820 -0.2761 -2.2393
  119OSM   C16F12620   5.450   1.845   8.865 -0.3118 -0.4887  0.2567
  119OSM   H16F12621   5.499   1.746   8.871  1.2272  0.2738  1.0160
  119OSM   H16G12622   5.518   1.932   8.883 -0.4323 -0.1986 -0.6392
  119OSM   C17F12623   5.389   1.864   8.725  0.4601 -0.2970 -0.3862
  119OSM   H17F12624   5.476   1.882   8.658 -0.1438  1.6425 -0.7081
  119OSM   H17G12625   5.320   1.951   8.728  2.3604  1.4187 -2.5144
  119OSM   C18F12626   5.320   1.739   8.680 -0.4216 -0.1873  0.3273
  119OSM   H18F12627   5.229   1.713   8.739 -0.5929  0.9228  0.5682
  119OSM   H18G12628   5.390   1.653   8.688  1.3091  1.2664  1.8795
  119OSM   H18H12629   5.295   1.753   8.573  0.0567 -1.7958 -0.0292
  120OSM      N12630   3.858   0.156  10.817  0.0215  0.1197  0.0248
  120OSM    C1512631   3.757   0.252  10.751 -1.1999 -0.7410 -0.4499
  120OSM   H15A12632   3.790   0.355  10.754 -1.6500 -0.6074  2.2174
  120OSM   H15B12633   3.670   0.255  10.815 -0.6131  0.5751  0.3281
  120OSM   H15C12634   3.718   0.227  10.653  0.4518  1.3953 -1.7381
  120OSM    C1412635   3.970   0.132  10.723 -0.1480  0.1262 -0.3796
  120OSM   H14A12636   3.938   0.072  10.639 -3.0317  1.2627 -0.1990
  120OSM   H14B12637   4.040   0.072  10.780 -2.2282  0.6004  2.9234
  120OSM   H14C12638   4.025   0.220  10.693  0.1227  0.7645  1.7794
  120OSM    C1312639   3.918   0.211  10.938 -0.1043 -0.8135 -0.1572
  120OSM   H13A12640   3.850   0.231  11.020  2.6056  0.2435  2.0007
  120OSM   H13B12641   3.978   0.298  10.916 -0.1190 -1.0521 -1.1593
  120OSM   H13C12642   3.991   0.137  10.968 -0.0684 -0.7722 -0.1426
  120OSM    C1212643   3.786   0.026  10.858  0.6729  0.0316  0.4498
  120OSM   H12A12644   3.727   0.037  10.948  1.1507  1.2026  0.6399
  120OSM   H12B12645   3.865  -0.047  10.872  0.2583 -0.4746  0.1653
  120OSM    C1112646   3.687  -0.031  10.742 -0.2179 -0.9928 -0.5642
  120OSM   H11A12647   3.601   0.038  10.730  0.2906 -0.5416 -1.6609
  120OSM   H11B12648   3.642  -0.125  10.780 -2.3279  0.1030 -0.1935
  120OSM      P12649   3.764  -0.185  10.541  0.1437  0.1800  0.0821
  120OSM    O1312650   3.907  -0.205  10.502 -0.2852  0.0430 -0.3480
  120OSM    O1412651   3.690  -0.294  10.611 -0.1165 -0.2393 -0.1680
  120OSM    O1112652   3.681  -0.145  10.414  0.4996 -0.2578 -0.4883
  120OSM    O1212653   3.761  -0.048  10.625 -0.4525 -0.8247 -0.1222
  120OSM    C1S12654   3.683  -0.019  10.360  0.8765  0.1452  0.5020
  120OSM    H1S12655   3.777   0.032  10.391  0.8198 -0.7550  2.2973
  120OSM    H1T12656   3.592   0.038  10.389  0.4174 -0.6371  0.6369
  120OSM     NF12657   3.690   0.101  10.148  0.3002 -0.2725 -0.0343
  120OSM    HNF12658   3.607   0.151  10.126  1.6231  2.4566  0.7028
  120OSM    C2S12659   3.683  -0.030  10.201 -0.1326 -0.0156  0.1586
  120OSM    H2S12660   3.766  -0.087  10.156  0.7458  2.6636 -1.9008
  120OSM    C3S12661   3.556  -0.101  10.156 -0.0486  0.5147  0.3107
  120OSM    H3S12662   3.471  -0.049  10.205 -0.1197  0.4224  0.2857
  120OSM     O312663   3.542  -0.234  10.195 -0.2410  0.1123 -0.6162
  120OSM    HO312664   3.599  -0.240  10.272 -2.5873 -2.4874  1.1134
  120OSM    C4S12665   3.536  -0.098  10.006  0.1157  0.6595 -0.4778
  120OSM    H4S12666   3.460  -0.023   9.981 -0.8265 -0.1182  0.0074
  120OSM    C5S12667   3.602  -0.168   9.917 -0.2831 -0.3642  0.2722
  120OSM    H5S12668   3.685  -0.226   9.959 -0.4720 -0.0697  1.0640
  120OSM    C6S12669   3.577  -0.156   9.765 -0.0786  0.9476 -0.7881
  120OSM    H6S12670   3.545  -0.251   9.717  2.0986 -0.3685  0.2279
  120OSM    H6T12671   3.682  -0.139   9.732  1.1197 -1.0852  1.6003
  120OSM    C7S12672   3.493  -0.034   9.723 -0.3421 -0.0557 -0.1276
  120OSM    H7S12673   3.548   0.052   9.765  0.7795 -0.6975 -0.2311
  120OSM    H7T12674   3.392  -0.041   9.770 -0.4874  0.1700 -0.4055
  120OSM    C8S12675   3.471  -0.024   9.570  0.6727  0.0663 -0.5492
  120OSM    H8S12676   3.573  -0.033   9.525  0.3026 -0.5735 -1.2803
  120OSM    H8T12677   3.438   0.075   9.532  2.5837  0.2941 -1.8011
  120OSM    C9S12678   3.386  -0.126   9.504  0.6024  0.1532 -0.0582
  120OSM    H9S12679   3.280  -0.131   9.540 -1.0548  1.8638 -4.1592
  120OSM    H9T12680   3.426  -0.228   9.523 -0.7009 -1.1395 -3.4849
  120OSM   C10S12681   3.366  -0.104   9.351  0.0932 -0.1973  0.4758
  120OSM   H10S12682   3.467  -0.098   9.305 -0.1273  0.4682  0.0548
  120OSM   H10T12683   3.317  -0.012   9.313 -0.1257 -1.0436 -1.4462
  120OSM   C11S12684   3.284  -0.217   9.280 -0.4733 -0.2702 -0.5231
  120OSM   H11S12685   3.175  -0.213   9.301 -0.1279  0.3484  1.3636
  120OSM   H11T12686   3.315  -0.314   9.326  1.3172  1.3352  1.8915
  120OSM   C12S12687   3.309  -0.201   9.127 -0.1062 -1.2854  0.2381
  120OSM   H12S12688   3.414  -0.232   9.111  0.9544  1.9875  0.1422
  120OSM   H12T12689   3.313  -0.093   9.101  1.9104 -1.0356  1.3787
  120OSM   C13S12690   3.206  -0.281   9.040 -0.4069  0.0713 -0.3781
  120OSM   H13S12691   3.115  -0.218   9.051 -0.6808 -0.3084 -0.4376
  120OSM   H13T12692   3.200  -0.388   9.069  1.9103  0.1568  0.6159
  120OSM   C14S12693   3.257  -0.275   8.888  0.1518 -0.0984 -0.5139
  120OSM   H14S12694   3.364  -0.303   8.883  0.8672  1.6982  2.2523
  120OSM   H14T12695   3.257  -0.174   8.841  1.2963 -0.6931 -1.8392
  120OSM   C15S12696   3.182  -0.372   8.790 -0.4047  0.4583  0.1760
  120OSM   H15S12697   3.072  -0.356   8.793 -0.7086 -1.4489  0.8665
  120OSM   H15T12698   3.202  -0.473   8.831  0.2877  1.2862  2.0115
  120OSM   C16S12699   3.243  -0.359   8.650 -0.5307 -0.1970 -0.6149
  120OSM   H16S12700   3.252  -0.459   8.603  1.5417  0.4390 -1.7328
  120OSM   H16T12701   3.350  -0.329   8.657 -0.4116 -0.9885  1.5782
  120OSM   C17S12702   3.169  -0.253   8.564 -0.0928 -0.3171 -0.5036
  120OSM   H17S12703   3.232  -0.246   8.473 -1.9468  2.6106 -1.6829
  120OSM   H17T12704   3.180  -0.158   8.621  0.7705 -1.5502  1.4902
  120OSM   C18S12705   3.022  -0.273   8.529 -0.3584 -0.0155  0.0012
  120OSM   H18S12706   3.010  -0.379   8.496 -0.3660 -0.0014 -0.0415
  120OSM   H18T12707   2.985  -0.209   8.446 -2.2730  0.2398  0.9851
  120OSM   H18U12708   2.950  -0.260   8.612  1.3004  0.0989  1.4669
  120OSM    C1F12709   3.808   0.160  10.143 -0.3835  0.1486 -0.6564
  120OSM     OF12710   3.905   0.111  10.194  0.4075  0.1725  0.7647
  120OSM    C2F12711   3.826   0.284  10.059  0.5824 -0.1216 -0.7784
  120OSM    H2F12712   3.877   0.367  10.113 -1.1740  1.9528 -2.1397
  120OSM    H2G12713   3.724   0.316  10.028  0.4266  0.4534  0.2357
  120OSM    C3F12714   3.913   0.248   9.943  0.1006  0.4382 -0.4216
  120OSM    H3F12715   3.980   0.162   9.965 -1.3739 -0.0226  2.8205
  120OSM    H3G12716   3.980   0.334   9.920  0.2628  1.0282  1.9976
  120OSM    C4F12717   3.835   0.204   9.810 -0.2302 -0.3703  0.3222
  120OSM    H4F12718   3.785   0.292   9.764  0.0218  1.1581  2.7839
  120OSM    H4G12719   3.759   0.124   9.823  0.7303 -1.8438 -2.2357
  120OSM    C5F12720   3.942   0.157   9.713  0.2695 -1.6152  0.6369
  120OSM    H5F12721   3.999   0.070   9.752  0.4649 -1.7463  0.0641
  120OSM    H5G12722   4.017   0.238   9.708 -0.8934 -0.5604 -3.8220
  120OSM    C6F12723   3.877   0.118   9.581 -0.0753 -0.2027  0.1424
  120OSM    H6F12724   3.848   0.212   9.529  1.1727  0.1399  0.0337
  120OSM    H6G12725   3.782   0.063   9.596 -0.4180  0.3725  0.1327
  120OSM    C7F12726   3.973   0.055   9.477 -0.2194 -0.3750 -0.6564
  120OSM    H7F12727   4.007  -0.043   9.518 -1.8509 -0.8370 -0.3586
  120OSM    H7G12728   4.064   0.118   9.467 -0.5509  0.3192  0.5742
  120OSM    C8F12729   3.907   0.031   9.341 -0.3255 -0.3198 -0.4843
  120OSM    H8F12730   3.878   0.135   9.316 -0.0088 -0.0500  0.2521
  120OSM    H8G12731   3.810  -0.022   9.354 -1.2735  0.8906 -2.1215
  120OSM    C9F12732   4.007  -0.030   9.242 -0.2469  0.2631 -0.7646
  120OSM    H9F12733   4.082  -0.088   9.298 -2.2034  0.3532  2.1971
  120OSM   C10F12734   4.004  -0.013   9.108 -0.2711  0.5892 -0.0877
  120OSM   H10F12735   4.086  -0.061   9.053 -1.9215  0.3672 -2.5003
  120OSM   C11F12736   3.912   0.064   9.023 -0.2551 -0.0605 -0.4017
  120OSM   H11F12737   3.916   0.168   9.064 -3.0201 -0.3664  0.8603
  120OSM   H11G12738   3.807   0.028   9.020  0.2903 -1.6769 -1.4113
  120OSM   C12F12739   3.968   0.069   8.879  0.4648  0.3002 -0.1385
  120OSM   H12F12740   3.892   0.106   8.806  2.7032  2.6410 -1.4817
  120OSM   H12G12741   3.994  -0.034   8.849  0.2028  0.9590 -2.8988
  120OSM   C13F12742   4.099   0.152   8.857 -0.3318  0.3269 -0.1192
  120OSM   H13F12743   4.181   0.099   8.910  0.1642  0.4865 -0.7194
  120OSM   H13G12744   4.073   0.248   8.907 -1.3493 -0.0176  0.0346
  120OSM   C14F12745   4.145   0.174   8.710 -0.4465  0.1316 -0.2692
  120OSM   H14F12746   4.066   0.155   8.634 -0.4639 -0.3336 -0.1378
  120OSM   H14G12747   4.232   0.106   8.698  0.4774  0.7464  2.2224
  120OSM   C15F12748   4.196   0.323   8.712  0.2484  0.4685  0.6315
  120OSM   H15F12749   4.265   0.329   8.798  3.5375  0.9605 -1.8382
  120OSM   H15G12750   4.120   0.404   8.714  0.5394  0.7505  0.3722
  120OSM   C16F12751   4.264   0.352   8.576  0.2516  0.1170  0.0228
  120OSM   H16F12752   4.182   0.350   8.501 -1.3485  2.7628  1.5414
  120OSM   H16G12753   4.344   0.279   8.552 -1.6300 -1.9827 -0.2283
  120OSM   C17F12754   4.312   0.497   8.565  0.1442 -0.8155 -0.0499
  120OSM   H17F12755   4.412   0.502   8.614  0.4766 -1.0765 -0.6745
  120OSM   H17G12756   4.240   0.567   8.612 -0.1172  0.5610 -2.3488
  120OSM   C18F12757   4.339   0.531   8.416  0.1554 -0.0561  0.3942
  120OSM   H18F12758   4.248   0.548   8.354  1.3945  0.2732 -1.4331
  120OSM   H18G12759   4.401   0.454   8.366  0.9564  0.1028  1.1213
  120OSM   H18H12760   4.402   0.621   8.399  1.3690 -0.7330  1.1704
  121OSM      N12761   3.391   3.077  10.793  0.6152  0.1424 -0.3433
  121OSM    C1512762   3.311   3.144  10.903 -0.1987 -0.2148  0.0551
  121OSM   H15A12763   3.301   3.250  10.883  0.3504 -0.4946 -1.9542
  121OSM   H15B12764   3.370   3.146  10.993  2.2083  1.3829 -1.4439
  121OSM   H15C12765   3.223   3.084  10.921  0.5972 -1.8363 -1.1657
  121OSM    C1412766   3.302   3.068  10.678 -0.0033  0.0593 -0.3444
  121OSM   H14A12767   3.215   3.003  10.676 -0.8615  1.1852 -1.6518
  121OSM   H14B12768   3.361   3.028  10.598 -0.3201  0.6798 -0.8996
  121OSM   H14C12769   3.263   3.164  10.647  1.1650  0.8195  0.4724
  121OSM    C1312770   3.502   3.171  10.757 -0.5454 -0.0505 -0.2872
  121OSM   H13A12771   3.468   3.273  10.748 -1.4686 -0.2206  0.8795
  121OSM   H13B12772   3.540   3.144  10.660 -1.6877 -0.5720 -0.6079
  121OSM   H13C12773   3.581   3.158  10.830 -1.0036 -0.3893  0.1628
  121OSM    C1212774   3.443   2.942  10.835  0.0272 -0.0627 -0.1736
  121OSM   H12A12775   3.497   2.885  10.760  2.3484  1.4136  0.2878
  121OSM   H12B12776   3.354   2.886  10.862  0.8957 -1.4781 -0.1510
  121OSM    C1112777   3.530   2.943  10.965  0.2899 -0.0776  0.9196
  121OSM   H11A12778   3.544   2.835  10.984  1.3436 -0.0193  0.5610
  121OSM   H11B12779   3.469   2.966  11.054  1.7561  3.0048  1.2582
  121OSM      P12780   3.740   3.013  11.080 -0.0726  0.0215 -0.0557
  121OSM    O1312781   3.685   3.081  11.199  0.3349 -0.2018  0.0712
  121OSM    O1412782   3.797   2.878  11.097 -0.3455 -0.5322  0.1149
  121OSM    O1112783   3.860   3.096  11.033 -0.5802  0.1845 -0.2606
  121OSM    O1212784   3.647   3.023  10.958 -0.5832 -0.2135 -0.0110
  121OSM    C1S12785   3.952   3.046  10.932  0.3245 -0.2332  0.3640
  121OSM    H1S12786   3.960   2.936  10.936  1.1196 -0.1517  2.6979
  121OSM    H1T12787   4.055   3.086  10.948 -0.2505  1.0122  1.1107
  121OSM     NF12788   3.988   3.029  10.681 -0.1550 -0.8180 -0.8956
  121OSM    HNF12789   4.053   3.088  10.635 -1.5230  1.8320  0.3216
  121OSM    C2S12790   3.909   3.091  10.786 -0.2701 -0.2530 -0.0547
  121OSM    H2S12791   3.805   3.055  10.774 -0.1525 -0.9142  0.7794
  121OSM    C3S12792   3.906   3.253  10.772  0.1752  0.7022 -0.6928
  121OSM    H3S12793   4.007   3.298  10.758 -1.0116  3.2501 -1.6473
  121OSM     O312794   3.856   3.327  10.880 -0.3863 -0.5676 -0.1698
  121OSM    HO312795   3.845   3.258  10.946 -3.9312  1.1857  1.3348
  121OSM    C4S12796   3.829   3.287  10.646 -0.5001 -0.1950  0.1754
  121OSM    H4S12797   3.726   3.248  10.656 -0.6865 -0.3362 -1.8269
  121OSM    C5S12798   3.871   3.353  10.535  0.5714 -0.2379 -0.0020
  121OSM    H5S12799   3.980   3.363  10.525  0.5891  0.3891  0.7355
  121OSM    C6S12800   3.788   3.390  10.407  0.1869 -0.3362  0.3190
  121OSM    H6S12801   3.770   3.499  10.416  1.2132 -0.0256 -1.0794
  121OSM    H6T12802   3.689   3.340  10.404  0.0794 -0.0718 -1.9519
  121OSM    C7S12803   3.871   3.361  10.282  0.3773 -0.3649 -0.4471
  121OSM    H7S12804   3.906   3.257  10.300  2.0744  0.5676  2.0978
  121OSM    H7T12805   3.960   3.421  10.252  1.3264 -2.5976 -2.5431
  121OSM    C8S12806   3.772   3.369  10.157 -0.6710  0.2524  0.2649
  121OSM    H8S12807   3.732   3.473  10.158  0.7321  0.8188  0.1199
  121OSM    H8T12808   3.687   3.303  10.183  0.1443 -0.4851  1.1195
  121OSM    C9S12809   3.841   3.331  10.028  0.3761  0.1928  0.9318
  121OSM    H9S12810   3.903   3.239  10.031  2.9634  1.8131  0.8263
  121OSM    H9T12811   3.911   3.410   9.991  0.7172 -0.5618 -0.0547
  121OSM   C10S12812   3.734   3.315   9.914  0.3085 -0.4228  0.1554
  121OSM   H10S12813   3.697   3.419   9.903  1.9507  0.2210  0.4013
  121OSM   H10T12814   3.655   3.246   9.950 -0.0486 -0.0415  0.1048
  121OSM   C11S12815   3.810   3.274   9.786 -0.3332  0.6820  0.2972
  121OSM   H11S12816   3.835   3.167   9.801 -1.1651  0.5190  0.5819
  121OSM   H11T12817   3.909   3.324   9.792 -0.8691  1.7410  0.5373
  121OSM   C12S12818   3.728   3.292   9.661  0.6046  0.8682  0.1613
  121OSM   H12S12819   3.689   3.395   9.642 -0.8973  0.5166  1.1445
  121OSM   H12T12820   3.645   3.219   9.647  0.0510  1.4834  0.1603
  121OSM   C13S12821   3.820   3.267   9.542  0.6645  0.7526  0.7915
  121OSM   H13S12822   3.868   3.168   9.557 -0.3422  0.1368  0.0302
  121OSM   H13T12823   3.891   3.353   9.543  0.0109  1.3034  1.7732
  121OSM   C14S12824   3.729   3.252   9.413 -0.3624  1.3855  0.8007
  121OSM   H14S12825   3.641   3.320   9.419 -2.3451 -1.1119  2.5319
  121OSM   H14T12826   3.676   3.154   9.420 -0.4092  1.3214 -0.2243
  121OSM   C15S12827   3.799   3.260   9.280  0.5393 -0.1364 -0.0596
  121OSM   H15S12828   3.878   3.182   9.283 -0.1168 -0.8046  0.0421
  121OSM   H15T12829   3.848   3.360   9.278 -0.4289  0.3426 -0.2209
  121OSM   C16S12830   3.713   3.238   9.153  0.3025 -0.9807 -0.2003
  121OSM   H16S12831   3.648   3.328   9.152  0.0133 -0.9701  3.6862
  121OSM   H16T12832   3.643   3.155   9.177 -1.2926  0.7390  1.4129
  121OSM   C17S12833   3.790   3.207   9.025  0.0449 -0.1833 -0.3844
  121OSM   H17S12834   3.721   3.186   8.941  1.4549  1.6091 -2.0945
  121OSM   H17T12835   3.835   3.105   9.029 -0.6269 -0.4488  2.0873
  121OSM   C18S12836   3.886   3.322   8.997  0.2762 -0.0671  0.5237
  121OSM   H18S12837   3.944   3.313   8.903  1.0776  0.3365  0.9648
  121OSM   H18T12838   3.963   3.335   9.076  1.7393  1.8054 -1.0906
  121OSM   H18U12839   3.839   3.423   8.996  0.6532  0.1284  1.2298
  121OSM    C1F12840   3.991   2.895  10.672 -0.2825 -0.2305 -0.1791
  121OSM     OF12841   3.895   2.831  10.721 -0.0334 -0.7032  0.3868
  121OSM    C2F12842   4.107   2.824  10.608  0.1896 -0.8387  0.6444
  121OSM    H2F12843   4.138   2.736  10.669  0.3657 -0.4641  1.1028
  121OSM    H2G12844   4.196   2.891  10.609  0.4047 -1.1253  1.3458
  121OSM    C3F12845   4.075   2.759  10.471  0.1930  0.0838  0.0815
  121OSM    H3F12846   4.022   2.832  10.405 -0.1042 -0.5676 -0.4084
  121OSM    H3G12847   4.017   2.665  10.483  2.1513 -1.4068 -1.4197
  121OSM    C4F12848   4.204   2.722  10.386  0.1847 -0.3074  0.4337
  121OSM    H4F12849   4.271   2.650  10.437  3.4929  1.2993 -1.3305
  121OSM    H4G12850   4.260   2.818  10.383  0.3383 -0.4156 -0.3531
  121OSM    C5F12851   4.161   2.697  10.236  0.2194 -0.2431 -0.6735
  121OSM    H5F12852   4.105   2.786  10.200 -1.5613 -0.4583  1.3643
  121OSM    H5G12853   4.091   2.611  10.247  0.4462 -0.6148 -1.9457
  121OSM    C6F12854   4.281   2.669  10.146  0.3398  0.3080  0.1223
  121OSM    H6F12855   4.340   2.582  10.179  2.3178  1.7665  0.5916
  121OSM    H6G12856   4.351   2.755  10.156 -1.9743  2.3286  0.0415
  121OSM    C7F12857   4.234   2.660  10.007 -0.2593 -0.4298 -0.1464
  121OSM    H7F12858   4.192   2.757   9.975  0.7330  0.0954  0.1036
  121OSM    H7G12859   4.149   2.589  10.014 -0.2756 -0.2164  3.3035
  121OSM    C8F12860   4.343   2.601   9.913  0.0881 -0.4608 -0.4543
  121OSM    H8F12861   4.294   2.567   9.819 -1.5386 -1.9001  0.8607
  121OSM    H8G12862   4.376   2.512   9.970 -1.0527 -0.8776 -0.4302
  121OSM    C9F12863   4.464   2.685   9.899  0.4681  0.3180  0.4978
  121OSM    H9F12864   4.531   2.686   9.986 -1.8538 -0.5015  2.4288
  121OSM   C10F12865   4.503   2.738   9.783 -0.6273  0.4186 -0.3926
  121OSM   H10F12866   4.604   2.782   9.788  0.7608 -2.5578  0.0923
  121OSM   C11F12867   4.441   2.729   9.645  0.1531 -0.1417 -0.3595
  121OSM   H11F12868   4.356   2.800   9.648  0.2123  0.0187 -1.8710
  121OSM   H11G12869   4.413   2.623   9.627 -0.0463 -0.4973  1.7873
  121OSM   C12F12870   4.525   2.779   9.521  0.0417  0.0073  0.0774
  121OSM   H12F12871   4.631   2.752   9.537 -0.0238  0.8437  2.1666
  121OSM   H12G12872   4.508   2.888   9.534 -1.8399 -0.0823 -1.1371
  121OSM   C13F12873   4.447   2.749   9.387 -0.3864 -0.5607 -0.1370
  121OSM   H13F12874   4.341   2.748   9.420 -0.0471 -1.1187  1.0319
  121OSM   H13G12875   4.458   2.641   9.365  0.3593 -0.7405  1.0083
  121OSM   C14F12876   4.465   2.846   9.272  0.4054  0.2884 -0.3979
  121OSM   H14F12877   4.438   2.946   9.312 -2.5225 -0.7472  0.4716
  121OSM   H14G12878   4.398   2.829   9.185  3.7219 -0.1601 -3.0775
  121OSM   C15F12879   4.611   2.849   9.226  0.4423  0.2426  0.2647
  121OSM   H15F12880   4.680   2.871   9.310  1.4948 -0.6275 -0.3466
  121OSM   H15G12881   4.612   2.937   9.159 -2.4796 -1.0321 -1.6649
  121OSM   C16F12882   4.652   2.718   9.148  0.3116 -0.1405 -0.2083
  121OSM   H16F12883   4.641   2.623   9.205 -0.3694 -2.3659 -3.7597
  121OSM   H16G12884   4.759   2.736   9.124  0.4682  1.4101  1.4046
  121OSM   C17F12885   4.583   2.701   9.014  0.4388  0.0756  0.8892
  121OSM   H17F12886   4.582   2.796   8.956 -1.4299 -0.4102  0.0482
  121OSM   H17G12887   4.475   2.682   9.031  0.7689 -0.6555  2.3588
  121OSM   C18F12888   4.641   2.591   8.924  0.2566 -0.5729  0.4581
  121OSM   H18F12889   4.624   2.497   8.982 -0.8295 -0.1715  0.8104
  121OSM   H18G12890   4.750   2.608   8.914  0.0446  2.6296  2.2537
  121OSM   H18H12891   4.581   2.588   8.830  0.5458  1.4070  0.1879
  122OSM      N12892   4.999   0.515  11.202 -0.5824 -0.2159 -0.0942
  122OSM    C1512893   4.988   0.667  11.208 -0.1611  0.4509 -0.1473
  122OSM   H15A12894   4.896   0.702  11.253  1.0957  2.9806  0.6597
  122OSM   H15B12895   4.988   0.717  11.113 -0.4623 -1.8728 -1.4258
  122OSM   H15C12896   5.069   0.704  11.269  0.9151 -1.4355 -0.3623
  122OSM    C1412897   5.123   0.484  11.125 -0.3617 -0.3199  0.6052
  122OSM   H14A12898   5.127   0.541  11.033  1.3130  0.4703  1.1214
  122OSM   H14B12899   5.140   0.382  11.093 -1.7873 -0.4467  0.1554
  122OSM   H14C12900   5.211   0.521  11.175  0.4835 -0.2519 -0.8619
  122OSM    C1312901   5.001   0.459  11.344 -0.1898  0.0021  0.0677
  122OSM   H13A12902   5.010   0.352  11.352  0.4562  0.2059  3.5361
  122OSM   H13B12903   4.914   0.496  11.397 -1.8721  0.1434 -2.6164
  122OSM   H13C12904   5.087   0.499  11.396  0.1862 -0.7787  0.0519
  122OSM    C1212905   4.876   0.462  11.131  0.4134 -0.5800  0.7015
  122OSM   H12A12906   4.798   0.461  11.206  0.1902  0.5516  0.5083
  122OSM   H12B12907   4.883   0.356  11.115 -0.2232 -0.1921 -3.0726
  122OSM    C1112908   4.828   0.537  11.012  0.1701 -0.1052 -0.1580
  122OSM   H11A12909   4.826   0.648  11.022  0.2893 -0.2072  1.0672
  122OSM   H11B12910   4.722   0.507  10.998  0.0513  0.3735 -0.3158
  122OSM      P12911   4.955   0.594  10.787  0.5434 -0.4126 -0.4810
  122OSM    O1312912   5.033   0.694  10.866  0.2085  0.1182  0.2992
  122OSM    O1412913   5.033   0.524  10.688 -0.2302  0.4175 -0.2133
  122OSM    O1112914   4.831   0.673  10.727 -0.1226  0.4534  0.0636
  122OSM    O1212915   4.893   0.494  10.894 -0.5200 -0.2672  0.0998
  122OSM    C1S12916   4.814   0.690  10.586  0.4899  0.5406 -0.3051
  122OSM    H1S12917   4.909   0.710  10.532  1.1715 -0.3613  0.4934
  122OSM    H1T12918   4.747   0.776  10.567  2.3618  1.5207 -3.1566
  122OSM     NF12919   4.758   0.581  10.372 -0.0007  0.3574 -0.7174
  122OSM    HNF12920   4.682   0.630  10.329  0.0646  1.5287  0.4241
  122OSM    C2S12921   4.757   0.556  10.518  0.2243 -0.2740  0.3444
  122OSM    H2S12922   4.816   0.466  10.545  0.2530 -0.2602  0.3277
  122OSM    C3S12923   4.612   0.530  10.563  0.1754 -0.3437 -0.0898
  122OSM    H3S12924   4.556   0.626  10.561  0.7797  0.0293  0.3409
  122OSM     O312925   4.596   0.507  10.702 -0.5498  0.3245  0.2708
  122OSM    HO312926   4.679   0.544  10.732 -0.8736  0.6797  0.7306
  122OSM    C4S12927   4.551   0.421  10.476 -0.5880  0.7447 -0.8150
  122OSM    H4S12928   4.494   0.459  10.390 -2.2325  0.7552  0.2311
  122OSM    C5S12929   4.551   0.289  10.499  0.3705 -0.5981  0.0897
  122OSM    H5S12930   4.603   0.260  10.591 -0.5782 -1.6886  0.2997
  122OSM    C6S12931   4.489   0.178  10.418  0.5311 -0.2986 -0.3291
  122OSM    H6S12932   4.415   0.120  10.476  1.5973 -1.1937  0.1703
  122OSM    H6T12933   4.565   0.098  10.404  1.0106 -0.2729  1.7781
  122OSM    C7S12934   4.427   0.218  10.287 -0.0340 -0.9109  0.2289
  122OSM    H7S12935   4.517   0.235  10.225 -0.6323  0.1752 -0.3683
  122OSM    H7T12936   4.367   0.311  10.300 -1.0703 -1.6181  0.6895
  122OSM    C8S12937   4.355   0.098  10.215  0.4800  0.0308  0.3337
  122OSM    H8S12938   4.292   0.048  10.292 -0.6637  3.0784  1.5381
  122OSM    H8T12939   4.426   0.019  10.182 -0.7071 -0.8293 -0.2386
  122OSM    C9S12940   4.271   0.132  10.089  0.9969  0.2133  0.4952
  122OSM    H9S12941   4.189   0.200  10.120  0.4355 -1.5484  3.2632
  122OSM    H9T12942   4.209   0.046  10.055 -3.1132  2.4355  1.6046
  122OSM   C10S12943   4.357   0.186   9.977 -0.0462  0.8080  0.8823
  122OSM   H10S12944   4.434   0.110   9.951 -2.0686 -1.6980  1.7460
  122OSM   H10T12945   4.418   0.275  10.001  1.1545  0.3039 -0.1800
  122OSM   C11S12946   4.273   0.211   9.851 -0.0344 -0.3229 -0.0151
  122OSM   H11S12947   4.184   0.276   9.863 -0.0312  0.3312 -2.9058
  122OSM   H11T12948   4.237   0.114   9.811 -0.5584  0.4092 -1.3867
  122OSM   C12S12949   4.356   0.279   9.740 -1.1261  0.8148  0.3689
  122OSM   H12S12950   4.452   0.225   9.727 -0.4198  2.4129 -1.4081
  122OSM   H12T12951   4.385   0.382   9.768  3.1954  0.0288 -0.5790
  122OSM   C13S12952   4.283   0.257   9.601 -0.0852  0.5953 -0.2515
  122OSM   H13S12953   4.204   0.335   9.591 -1.8559 -1.3616 -2.7818
  122OSM   H13T12954   4.235   0.158   9.593  1.4497 -0.4070  1.9292
  122OSM   C14S12955   4.387   0.274   9.486 -0.5126 -0.4368 -0.1657
  122OSM   H14S12956   4.464   0.195   9.500 -0.1975  0.1391  1.7375
  122OSM   H14T12957   4.435   0.374   9.488 -2.2235  0.4176  0.6455
  122OSM   C15S12958   4.337   0.255   9.348 -0.9832  0.6139  0.4668
  122OSM   H15S12959   4.262   0.336   9.334 -1.1995  0.7148  2.0431
  122OSM   H15T12960   4.278   0.161   9.344 -0.2250  0.0971  1.2695
  122OSM   C16S12961   4.437   0.257   9.239  0.0157  0.0220  0.9582
  122OSM   H16S12962   4.520   0.185   9.253  1.2357  1.0408 -0.6429
  122OSM   H16T12963   4.481   0.359   9.239  0.4210 -0.1451  1.5937
  122OSM   C17S12964   4.372   0.216   9.102 -0.5367 -0.0350  0.6013
  122OSM   H17S12965   4.284   0.282   9.091 -0.0682  0.5724  0.4200
  122OSM   H17T12966   4.333   0.112   9.097  0.6639 -0.4620 -0.8827
  122OSM   C18S12967   4.471   0.227   8.984  0.1976  0.6331 -0.6470
  122OSM   H18S12968   4.540   0.142   9.003  1.0633  1.1549 -1.3906
  122OSM   H18T12969   4.534   0.318   8.989  0.7587  0.2549 -0.8411
  122OSM   H18U12970   4.425   0.218   8.884 -2.9776  3.6012  0.3295
  122OSM    C1F12971   4.868   0.568  10.303 -0.3168  0.2927 -0.1126
  122OSM     OF12972   4.957   0.500  10.354 -0.3602  0.1164 -0.3114
  122OSM    C2F12973   4.889   0.646  10.165  0.3289 -0.0366 -0.0859
  122OSM    H2F12974   4.830   0.739  10.180 -0.6971 -0.7081  0.1683
  122OSM    H2G12975   4.841   0.593  10.079 -0.6712  2.9233 -1.4815
  122OSM    C3F12976   5.037   0.675  10.129 -0.5376 -0.2192 -0.1291
  122OSM    H3F12977   5.084   0.576  10.110 -0.7509 -0.2646 -0.4327
  122OSM    H3G12978   5.091   0.729  10.209 -2.0258 -0.8619  1.3659
  122OSM    C4F12979   5.057   0.751   9.995 -0.0015  0.7092  0.0305
  122OSM    H4F12980   5.168   0.747   9.982  0.0099 -1.6577  0.5242
  122OSM    H4G12981   5.028   0.858  10.002  0.1967  0.7310  0.5962
  122OSM    C5F12982   5.001   0.685   9.869  0.2405  0.9015 -0.1067
  122OSM    H5F12983   4.892   0.675   9.886  0.2751  0.3757 -0.1495
  122OSM    H5G12984   5.036   0.580   9.858 -0.5795  0.5281  0.7188
  122OSM    C6F12985   5.044   0.758   9.745 -0.3980 -0.3867 -0.1297
  122OSM    H6F12986   5.001   0.710   9.654 -2.9915 -0.6965  1.1641
  122OSM    H6G12987   5.154   0.743   9.743 -0.4903 -1.2135  0.3558
  122OSM    C7F12988   4.993   0.905   9.744 -0.5923 -0.3133 -0.9171
  122OSM    H7F12989   5.006   0.937   9.638  1.6121 -0.3289 -0.6817
  122OSM    H7G12990   5.046   0.976   9.810 -2.8365 -0.0291  0.7048
  122OSM    C8F12991   4.839   0.931   9.789 -0.8454  0.4695  0.3465
  122OSM    H8F12992   4.839   0.915   9.899  0.3914 -0.9412  0.1716
  122OSM    H8G12993   4.778   0.847   9.751 -1.5702  1.0956  0.0855
  122OSM    C9F12994   4.781   1.068   9.751 -0.1354 -0.1869 -0.3057
  122OSM    H9F12995   4.786   1.145   9.830  0.0770  1.1259 -1.5596
  122OSM   C10F12996   4.713   1.101   9.642  0.6600  0.0597 -0.3438
  122OSM   H10F12997   4.672   1.201   9.623 -0.8914 -0.5011 -0.1404
  122OSM   C11F12998   4.677   1.000   9.533 -1.0130  0.1319  0.4120
  122OSM   H11F12999   4.573   0.961   9.527 -0.5011 -1.2672  0.3691
  122OSM   H11G13000   4.743   0.912   9.544 -1.5055 -0.0473  2.3598
  122OSM   C12F13001   4.716   1.057   9.395  1.2937 -0.1073  0.5571
  122OSM   H12F13002   4.681   0.987   9.317  2.7503  0.6470 -0.8203
  122OSM   H12G13003   4.825   1.078   9.393  1.1379  0.7401  0.5405
  122OSM   C13F13004   4.636   1.186   9.362  0.5455  0.0237 -0.2794
  122OSM   H13F13005   4.666   1.275   9.421  0.5835 -0.6631  0.7683
  122OSM   H13G13006   4.534   1.162   9.399 -0.3646  0.1630 -2.5576
  122OSM   C14F13007   4.622   1.214   9.208  0.5244  0.1491 -0.1823
  122OSM   H14F13008   4.576   1.131   9.152 -2.7295  0.0021  2.4328
  122OSM   H14G13009   4.724   1.224   9.163  0.5936 -1.6578 -0.4749
  122OSM   C15F13010   4.536   1.334   9.172 -0.6994  0.0821 -0.2856
  122OSM   H15F13011   4.591   1.430   9.178 -0.8859  0.1215  1.4470
  122OSM   H15G13012   4.453   1.343   9.246 -0.5267  1.0815 -0.1989
  122OSM   C16F13013   4.490   1.320   9.022 -0.2230 -0.2051  0.0839
  122OSM   H16F13014   4.439   1.222   9.005  0.9107 -1.0174  1.1416
  122OSM   H16G13015   4.574   1.323   8.949 -1.2725 -0.6490 -1.1846
  122OSM   C17F13016   4.389   1.432   8.987 -0.1671  0.1582 -0.4646
  122OSM   H17F13017   4.417   1.518   9.051  1.0329 -0.8060  0.3562
  122OSM   H17G13018   4.289   1.410   9.031 -0.8380  0.2947 -1.8801
  122OSM   C18F13019   4.376   1.462   8.839  0.5236  0.3697  0.3699
  122OSM   H18F13020   4.353   1.377   8.770  3.4993  0.9901 -1.5827
  122OSM   H18G13021   4.473   1.497   8.800  0.0157  0.6102 -0.7342
  122OSM   H18H13022   4.291   1.534   8.836 -0.4940 -0.7755  0.6651
  123OSM      N13023   0.558   6.582   6.029 -0.2359  0.3111 -0.2532
  123OSM    C1513024   0.672   6.492   6.021 -0.7460  0.6655  0.0258
  123OSM   H15A13025   0.683   6.419   5.942 -2.4257 -0.9268  1.1921
  123OSM   H15B13026   0.690   6.438   6.112  1.0372 -1.8202 -1.6809
  123OSM   H15C13027   0.761   6.553   6.015  0.3753 -0.9926 -0.9304
  123OSM    C1413028   0.560   6.667   5.911 -1.0896 -0.1540  1.2816
  123OSM   H14A13029   0.514   6.762   5.934 -1.4561 -0.4615  1.8400
  123OSM   H14B13030   0.512   6.623   5.825  1.5758  0.4114 -0.6259
  123OSM   H14C13031   0.658   6.695   5.876 -0.3874 -1.1292  2.4008
  123OSM    C1313032   0.428   6.504   6.020 -0.3310  0.2175 -0.0771
  123OSM   H13A13033   0.345   6.573   6.008  0.3316  1.0490  0.0156
  123OSM   H13B13034   0.413   6.440   6.105  0.0285 -0.1849 -0.3145
  123OSM   H13C13035   0.426   6.442   5.932 -1.3065  0.5226 -0.2832
  123OSM    C1213036   0.563   6.668   6.160  0.2425 -0.6759  0.0017
  123OSM   H12A13037   0.553   6.600   6.244 -2.2259 -1.3736 -0.7667
  123OSM   H12B13038   0.477   6.734   6.163 -0.1857 -1.2132 -0.3759
  123OSM    C1113039   0.686   6.759   6.193 -0.5085 -0.2971  0.4131
  123OSM   H11A13040   0.780   6.706   6.166 -0.3723 -0.9233  2.0534
  123OSM   H11B13041   0.683   6.779   6.302  2.2244 -0.4832  0.5877
  123OSM      P13042   0.568   6.986   6.131 -0.1285  0.1515 -0.1343
  123OSM    O1313043   0.600   7.113   6.058 -0.4764  0.1231  0.0456
  123OSM    O1413044   0.445   6.914   6.084 -0.2042 -0.1207  0.5332
  123OSM    O1113045   0.553   7.014   6.287 -0.4712 -0.3042  0.0401
  123OSM    O1213046   0.695   6.889   6.121  0.4092 -0.4218  0.2368
  123OSM    C1S13047   0.667   7.093   6.337  0.0502 -0.2620 -0.7222
  123OSM    H1S13048   0.677   7.193   6.289  1.9066  1.3805  2.7043
  123OSM    H1T13049   0.761   7.035   6.324 -2.0192 -4.3189  0.7644
  123OSM     NF13050   0.746   7.213   6.539  0.1142  0.5277 -0.5857
  123OSM    HNF13051   0.803   7.157   6.599  0.7615  0.9379 -0.7931
  123OSM    C2S13052   0.634   7.137   6.487  0.3189  0.0003  0.0381
  123OSM    H2S13053   0.545   7.202   6.475 -1.4632 -2.6704 -3.0475
  123OSM    C3S13054   0.600   7.020   6.575 -0.2287  0.7864 -0.4432
  123OSM    H3S13055   0.682   6.946   6.586 -1.3676 -0.1662  2.7929
  123OSM     O313056   0.490   6.947   6.529 -0.3520  0.3161  0.1689
  123OSM    HO313057   0.486   6.964   6.435 -0.5667 -1.5525 -0.2064
  123OSM    C4S13058   0.556   7.071   6.710  0.2676  0.9588  0.1563
  123OSM    H4S13059   0.456   7.115   6.714  0.1354  0.9447 -1.7947
  123OSM    C5S13060   0.623   7.057   6.821 -0.4552  0.0484  0.4831
  123OSM    H5S13061   0.723   7.012   6.817  0.6537  2.4240 -0.5440
  123OSM    C6S13062   0.593   7.110   6.963 -0.3153  0.7419  0.4033
  123OSM    H6S13063   0.502   7.173   6.959 -1.2274 -0.3312  2.5858
  123OSM    H6T13064   0.670   7.179   7.004 -0.6075  0.2492  1.8545
  123OSM    C7S13065   0.576   6.993   7.064 -0.3813 -0.8556 -0.3153
  123OSM    H7S13066   0.672   6.937   7.074 -0.5125 -1.1847 -0.8380
  123OSM    H7T13067   0.506   6.919   7.019 -1.1798 -0.4718  0.2931
  123OSM    C8S13068   0.518   7.036   7.197 -0.1539  0.4987 -0.3339
  123OSM    H8S13069   0.475   6.947   7.248 -0.0286 -0.8870 -2.5067
  123OSM    H8T13070   0.435   7.110   7.189 -1.5853 -0.8252  1.3914
  123OSM    C9S13071   0.627   7.084   7.297  0.0298 -0.7852 -0.1313
  123OSM    H9S13072   0.701   7.145   7.241  0.8310  0.4751  2.1496
  123OSM    H9T13073   0.676   6.994   7.339 -1.5360 -1.7686 -0.3596
  123OSM   C10S13074   0.586   7.178   7.412 -0.2385  0.3746  0.4596
  123OSM   H10S13075   0.530   7.268   7.378 -1.3698 -0.8933 -1.2140
  123OSM   H10T13076   0.679   7.212   7.462  0.9844 -3.3898  1.0335
  123OSM   C11S13077   0.493   7.103   7.502  0.7109 -0.7264  0.0558
  123OSM   H11S13078   0.555   7.021   7.543  0.7336  0.4747  2.5648
  123OSM   H11T13079   0.416   7.052   7.440  1.5527 -1.0607 -0.7496
  123OSM   C12S13080   0.433   7.187   7.621  0.3345  0.0428 -1.0866
  123OSM   H12S13081   0.380   7.124   7.696  2.2395  1.8311  1.9761
  123OSM   H12T13082   0.360   7.259   7.579 -0.2584 -0.3539 -0.7435
  123OSM   C13S13083   0.536   7.259   7.717  0.8385 -0.4934  0.9292
  123OSM   H13S13084   0.479   7.331   7.779 -0.2714  0.1745 -0.7787
  123OSM   H13T13085   0.602   7.322   7.653 -0.8829  1.6844  1.1910
  123OSM   C14S13086   0.606   7.148   7.799  0.1505  0.3599  0.5725
  123OSM   H14S13087   0.691   7.117   7.734 -1.3191 -1.9248 -0.3891
  123OSM   H14T13088   0.542   7.059   7.818 -2.5187  1.7316 -1.2725
  123OSM   C15S13089   0.630   7.199   7.942 -0.3351  0.7936 -0.0226
  123OSM   H15S13090   0.644   7.111   8.009 -0.0523  2.0257  1.5857
  123OSM   H15T13091   0.544   7.258   7.979 -0.8774  0.3270 -0.5199
  123OSM   C16S13092   0.755   7.283   7.953 -0.5290  0.3933  0.3001
  123OSM   H16S13093   0.739   7.366   7.882 -0.3261  1.7695  1.8085
  123OSM   H16T13094   0.848   7.229   7.925  0.9315  3.2065 -0.6688
  123OSM   C17S13095   0.754   7.338   8.096  0.0856 -0.5189 -0.9387
  123OSM   H17S13096   0.745   7.255   8.170 -0.3977  1.3908  1.2831
  123OSM   H17T13097   0.670   7.410   8.103  1.3723  0.9899 -0.3341
  123OSM   C18S13098   0.870   7.442   8.119 -0.2104 -0.4627 -0.7567
  123OSM   H18S13099   0.963   7.388   8.146 -1.8153 -2.0742  1.9210
  123OSM   H18T13100   0.849   7.509   8.205  1.5992  2.1358 -2.1894
  123OSM   H18U13101   0.877   7.504   8.027 -2.0030  2.4484  0.8904
  123OSM    C1F13102   0.795   7.328   6.497 -0.5906 -0.1065 -0.0256
  123OSM     OF13103   0.755   7.383   6.396  0.4136  0.0110  0.2237
  123OSM    C2F13104   0.922   7.393   6.569  0.3924 -0.2200 -0.3720
  123OSM    H2F13105   0.993   7.410   6.485  0.5479  2.8792  0.2628
  123OSM    H2G13106   0.963   7.320   6.643 -3.2927 -0.9364  1.1957
  123OSM    C3F13107   0.897   7.529   6.634 -0.5255  0.8098 -0.3047
  123OSM    H3F13108   0.873   7.597   6.549  0.5097  1.6028  0.0211
  123OSM    H3G13109   0.986   7.570   6.686 -1.0456 -1.5145  2.7459
  123OSM    C4F13110   0.790   7.532   6.741 -0.0339 -0.2143  0.6810
  123OSM    H4F13111   0.689   7.517   6.697  1.0097 -0.4665 -1.7759
  123OSM    H4G13112   0.791   7.637   6.776  2.8268  0.2953 -0.6869
  123OSM    C5F13113   0.820   7.447   6.861 -1.0151 -0.0292  0.2176
  123OSM    H5F13114   0.931   7.446   6.863 -0.9439  2.2245 -0.1963
  123OSM    H5G13115   0.796   7.341   6.840  1.9622 -0.4715 -1.5849
  123OSM    C6F13116   0.771   7.509   6.998  0.0857  0.8621 -0.1518
  123OSM    H6F13117   0.661   7.515   6.993 -0.0057 -1.0395 -2.4703
  123OSM    H6G13118   0.806   7.614   7.003 -0.1204  0.9056  0.4428
  123OSM    C7F13119   0.845   7.459   7.119 -0.6196 -0.3886 -0.3984
  123OSM    H7F13120   0.953   7.456   7.093 -0.1177 -1.9327  1.6194
  123OSM    H7G13121   0.815   7.357   7.152  1.9505 -0.6204  1.5473
  123OSM    C8F13122   0.826   7.546   7.246 -0.5613 -0.3282 -0.2331
  123OSM    H8F13123   0.839   7.652   7.216  2.2745 -1.0459 -1.8717
  123OSM    H8G13124   0.913   7.529   7.313 -1.3263  0.5163  1.0311
  123OSM    C9F13125   0.689   7.516   7.311  0.2747 -0.6612  0.2637
  123OSM    H9F13126   0.618   7.457   7.252 -1.1628  0.2986  0.9469
  123OSM   C10F13127   0.653   7.546   7.446  0.7950  0.8133 -0.7515
  123OSM   H10F13128   0.563   7.502   7.490  1.7761  0.2571  0.7678
  123OSM   C11F13129   0.738   7.623   7.543  0.1989  0.1896 -0.7295
  123OSM   H11F13130   0.829   7.663   7.495  0.9709 -2.2157 -1.4314
  123OSM   H11G13131   0.768   7.556   7.627  0.9427  1.1280 -0.2230
  123OSM   C12F13132   0.659   7.744   7.601  0.3011 -0.3742  0.2930
  123OSM   H12F13133   0.618   7.793   7.510 -0.4312 -3.2290 -1.0342
  123OSM   H12G13134   0.726   7.816   7.654  1.0399 -1.8711  1.4774
  123OSM   C13F13135   0.544   7.707   7.693  0.2701 -0.1756  0.2853
  123OSM   H13F13136   0.471   7.644   7.638 -0.0293 -0.0338  0.5185
  123OSM   H13G13137   0.489   7.799   7.721  1.3875  0.4445  0.5206
  123OSM   C14F13138   0.596   7.635   7.826 -0.0244  0.2123  0.1381
  123OSM   H14F13139   0.671   7.706   7.867 -1.1594 -0.2638  3.2494
  123OSM   H14G13140   0.644   7.539   7.797  0.9466  0.3139  1.3308
  123OSM   C15F13141   0.494   7.609   7.927  0.0759  0.5749 -0.7017
  123OSM   H15F13142   0.530   7.575   8.027  0.8642  2.1635 -0.4274
  123OSM   H15G13143   0.429   7.526   7.892 -0.9944  1.3450 -0.6004
  123OSM   C16F13144   0.395   7.718   7.965  0.3381 -0.4643  0.0113
  123OSM   H16F13145   0.332   7.672   8.044  2.5137 -2.1862  0.8585
  123OSM   H16G13146   0.329   7.738   7.878 -1.8888 -3.2473  0.9225
  123OSM   C17F13147   0.457   7.854   8.016  1.1125  0.6710  0.1838
  123OSM   H17F13148   0.374   7.918   8.054  2.2840  3.1408 -1.1640
  123OSM   H17G13149   0.506   7.899   7.926  3.5766 -0.3326  0.9432
  123OSM   C18F13150   0.568   7.848   8.125  0.7328 -0.1550  0.3406
  123OSM   H18F13151   0.600   7.950   8.154  0.1077  0.3063 -0.5595
  123OSM   H18G13152   0.660   7.800   8.085 -0.9278 -2.6001 -0.7985
  123OSM   H18H13153   0.530   7.787   8.210 -0.7600  0.0772 -0.1333
  124OSM      N13154   3.549   4.275   6.261  0.1801  0.4754 -0.8093
  124OSM    C1513155   3.443   4.184   6.215  0.2174  0.6743  0.1064
  124OSM   H15A13156   3.354   4.192   6.275 -1.7460 -0.0564 -2.5120
  124OSM   H15B13157   3.482   4.083   6.211 -1.3497  0.0236  0.4289
  124OSM   H15C13158   3.403   4.200   6.116 -2.0889 -1.6818  0.5404
  124OSM    C1413159   3.497   4.411   6.265  0.6084  0.5075 -0.1362
  124OSM   H14A13160   3.409   4.408   6.326  0.6933 -1.4362 -0.0353
  124OSM   H14B13161   3.463   4.431   6.164 -2.4173 -2.4813  0.1004
  124OSM   H14C13162   3.562   4.486   6.307 -1.2677  1.5408  1.0384
  124OSM    C1313163   3.582   4.223   6.397 -0.2807 -0.0820 -0.1179
  124OSM   H13A13164   3.646   4.298   6.441 -2.1273  1.5830 -0.0833
  124OSM   H13B13165   3.620   4.123   6.391 -1.3524 -0.4313 -2.2227
  124OSM   H13C13166   3.502   4.226   6.470  0.8824  1.7588  1.1633
  124OSM    C1213167   3.674   4.267   6.171  0.5653  0.3236  0.1997
  124OSM   H12A13168   3.760   4.319   6.209  0.0977  0.7222  0.7252
  124OSM   H12B13169   3.642   4.324   6.085  0.4543 -1.3143 -0.8961
  124OSM    C1113170   3.731   4.129   6.133 -0.3168 -0.2387  0.7431
  124OSM   H11A13171   3.807   4.139   6.052 -1.7369  1.8158 -0.4181
  124OSM   H11B13172   3.650   4.066   6.092 -0.5785  0.2863  0.4403
  124OSM      P13173   3.940   4.043   6.276  0.1913  0.2433 -0.2959
  124OSM    O1313174   3.966   3.911   6.219 -0.1138 -0.2077  0.3985
  124OSM    O1413175   4.016   4.166   6.240  0.2861  0.3098  0.3910
  124OSM    O1113176   3.957   4.019   6.426 -0.3489  0.0321 -0.1714
  124OSM    O1213177   3.783   4.070   6.258 -0.3775 -0.2242  0.5847
  124OSM    C1S13178   3.856   3.991   6.521  0.6985  0.1613  0.1138
  124OSM    H1S13179   3.784   3.918   6.476  1.1891  0.8014 -1.8028
  124OSM    H1T13180   3.807   4.088   6.544  2.1482  1.2620 -1.2642
  124OSM     NF13181   3.813   3.892   6.748 -0.3102  0.5819 -0.2845
  124OSM    HNF13182   3.791   3.951   6.825 -2.9324 -0.0094 -0.4960
  124OSM    C2S13183   3.915   3.930   6.656 -0.2630  0.5330 -0.3867
  124OSM    H2S13184   3.956   3.836   6.614 -0.5406  0.9513 -1.6512
  124OSM    C3S13185   4.036   4.004   6.712  0.4450 -0.3609  0.0598
  124OSM    H3S13186   4.009   4.111   6.726 -1.1935 -0.6218 -0.8449
  124OSM     O313187   4.145   4.012   6.619  0.4467  0.2690 -0.3158
  124OSM    HO313188   4.101   4.024   6.535 -0.7505 -0.4226  0.1988
  124OSM    C4S13189   4.091   3.946   6.839  0.4169 -0.0900 -0.1799
  124OSM    H4S13190   4.123   3.841   6.828  0.4655 -0.3562  1.9377
  124OSM    C5S13191   4.111   4.007   6.953  0.4520  0.2402 -0.9547
  124OSM    H5S13192   4.074   4.108   6.976 -1.0467 -0.4671 -0.1187
  124OSM    C6S13193   4.177   3.951   7.077 -0.4275  0.4818 -0.7982
  124OSM    H6S13194   4.282   3.927   7.051  0.0682  0.2659  1.1746
  124OSM    H6T13195   4.127   3.856   7.103  1.5073  0.1057  2.1856
  124OSM    C7S13196   4.189   4.045   7.200  0.0206  0.5866  0.3987
  124OSM    H7S13197   4.099   4.068   7.260  0.8120 -1.7067  2.6422
  124OSM    H7T13198   4.231   4.142   7.168 -2.1037  0.6563 -2.5803
  124OSM    C8S13199   4.292   3.982   7.296 -0.5379 -0.1527  0.6450
  124OSM    H8S13200   4.372   3.937   7.233 -0.9452 -0.5348  0.3980
  124OSM    H8T13201   4.245   3.891   7.338  2.2518 -2.4700 -0.9094
  124OSM    C9S13202   4.349   4.067   7.404 -0.8089  0.7492  0.0160
  124OSM    H9S13203   4.411   4.150   7.364  0.3484  1.2417  2.6010
  124OSM    H9T13204   4.428   4.006   7.453 -1.4434  0.3932  0.6168
  124OSM   C10S13205   4.250   4.110   7.511 -0.2104 -0.4336 -0.0702
  124OSM   H10S13206   4.203   4.025   7.565  1.7534 -0.2554  2.0284
  124OSM   H10T13207   4.167   4.161   7.457 -0.4186 -1.1826 -0.4687
  124OSM   C11S13208   4.307   4.188   7.629 -0.0431 -0.6192  0.7174
  124OSM   H11S13209   4.312   4.298   7.622 -0.4091 -0.5646  1.2547
  124OSM   H11T13210   4.411   4.153   7.642  0.7817  0.3588 -2.3833
  124OSM   C12S13211   4.240   4.162   7.769 -0.8593  0.0829 -0.5296
  124OSM   H12S13212   4.134   4.195   7.762 -1.0968 -0.8366 -1.7002
  124OSM   H12T13213   4.283   4.239   7.836 -1.0184  1.3174 -1.8107
  124OSM   C13S13214   4.265   4.027   7.831 -0.5084  0.2020  0.4423
  124OSM   H13S13215   4.373   4.003   7.824 -0.1932  1.6102  0.0712
  124OSM   H13T13216   4.212   3.955   7.766  0.1392  1.8552 -2.0693
  124OSM   C14S13217   4.220   4.013   7.975  0.2876  0.2279  0.3134
  124OSM   H14S13218   4.109   4.027   7.977  0.1405 -0.5638 -1.0044
  124OSM   H14T13219   4.265   4.089   8.042 -0.4614 -0.4812  1.6692
  124OSM   C15S13220   4.242   3.876   8.041  0.5234  0.5047  0.3146
  124OSM   H15S13221   4.351   3.851   8.034  0.5756  0.4444  1.2865
  124OSM   H15T13222   4.187   3.793   7.991  1.6842 -0.3642  0.4119
  124OSM   C16S13223   4.192   3.873   8.188 -0.2789  0.0426  0.8080
  124OSM   H16S13224   4.100   3.935   8.195  0.2973  0.8649  1.2794
  124OSM   H16T13225   4.260   3.942   8.242 -1.5241  2.2886 -0.3504
  124OSM   C17S13226   4.161   3.740   8.249 -0.0214  0.0144  0.5243
  124OSM   H17S13227   4.078   3.691   8.193 -2.0730  2.3413  1.3346
  124OSM   H17T13228   4.113   3.754   8.348 -1.0881  0.0049  0.0259
  124OSM   C18S13229   4.278   3.642   8.248  0.0828 -1.0104 -0.2196
  124OSM   H18S13230   4.259   3.545   8.299  2.6593 -0.6592  1.5791
  124OSM   H18T13231   4.369   3.689   8.288  0.5848 -2.9672  1.0698
  124OSM   H18U13232   4.310   3.623   8.143  0.2241 -0.4341 -0.2841
  124OSM    C1F13233   3.715   3.811   6.732  0.9209 -0.0713  0.1023
  124OSM     OF13234   3.676   3.768   6.625 -0.0562  0.1687  0.2526
  124OSM    C2F13235   3.651   3.775   6.863 -0.6560  1.0749 -0.1383
  124OSM    H2F13236   3.565   3.843   6.878  0.7210  2.5804  1.2249
  124OSM    H2G13237   3.724   3.788   6.946 -1.4372 -0.0700  0.7639
  124OSM    C3F13238   3.619   3.624   6.859  0.1499 -0.4273 -0.1912
  124OSM    H3F13239   3.718   3.573   6.867  1.2731  0.7650 -4.2339
  124OSM    H3G13240   3.579   3.584   6.763  2.8923 -2.8155 -0.4938
  124OSM    C4F13241   3.530   3.565   6.977 -0.1468  0.5836 -0.2384
  124OSM    H4F13242   3.512   3.461   6.943 -2.5215  1.3678 -1.5944
  124OSM    H4G13243   3.429   3.611   6.976 -0.3080  0.2561  0.5402
  124OSM    C5F13244   3.598   3.557   7.115  0.1552 -0.2424  0.5258
  124OSM    H5F13245   3.622   3.659   7.152 -2.4461  0.1407  1.3568
  124OSM    H5G13246   3.697   3.507   7.109 -0.6226 -1.8258  0.1820
  124OSM    C6F13247   3.519   3.490   7.224  0.3171  1.0000 -0.2027
  124OSM    H6F13248   3.419   3.538   7.214  0.7803  1.6408 -2.4126
  124OSM    H6G13249   3.546   3.511   7.329 -0.8214 -2.0708  0.8064
  124OSM    C7F13250   3.504   3.326   7.218 -0.0679 -0.5652 -0.0499
  124OSM    H7F13251   3.442   3.308   7.127  0.7696 -2.9907 -0.2149
  124OSM    H7G13252   3.457   3.284   7.309  1.2148 -0.1872  0.8145
  124OSM    C8F13253   3.636   3.243   7.196  0.5721 -0.0376 -0.1919
  124OSM    H8F13254   3.695   3.270   7.106  3.0146  1.6763  1.7705
  124OSM    H8G13255   3.613   3.135   7.184  0.5423 -0.1043  0.4135
  124OSM    C9F13256   3.723   3.268   7.316 -0.4506  0.0890  0.1024
  124OSM    H9F13257   3.802   3.344   7.316  0.6236 -0.9377  2.0474
  124OSM   C10F13258   3.723   3.183   7.424  0.3202  0.0239  0.5198
  124OSM   H10F13259   3.801   3.193   7.500  0.0910  1.6133  0.5875
  124OSM   C11F13260   3.620   3.070   7.450 -0.4684  0.5051  0.2305
  124OSM   H11F13261   3.673   2.976   7.478  1.9771  1.8621  0.4866
  124OSM   H11G13262   3.554   3.045   7.365 -0.0538 -0.7518  0.2626
  124OSM   C12F13263   3.522   3.095   7.565  0.5292  0.1316 -0.1900
  124OSM   H12F13264   3.430   3.149   7.537 -0.7548 -1.5159  0.6508
  124OSM   H12G13265   3.576   3.152   7.644 -0.7136  2.9110 -1.2259
  124OSM   C13F13266   3.477   2.953   7.627  0.2277 -0.5111 -0.3206
  124OSM   H13F13267   3.564   2.896   7.665 -1.4434 -2.4924  0.7402
  124OSM   H13G13268   3.430   2.897   7.543  0.5227 -0.9085 -0.2203
  124OSM   C14F13269   3.376   2.974   7.732 -0.5414  0.3346 -0.0988
  124OSM   H14F13270   3.346   2.877   7.777 -0.3483  1.0284  1.6030
  124OSM   H14G13271   3.284   3.024   7.695 -0.3650  0.6174 -0.1618
  124OSM   C15F13272   3.427   3.056   7.853 -0.0485  0.6120  0.1992
  124OSM   H15F13273   3.438   3.164   7.829  1.5028  0.0445 -1.9906
  124OSM   H15G13274   3.524   3.018   7.892 -0.6468 -1.1246  0.0913
  124OSM   C16F13275   3.322   3.053   7.969 -0.4233 -0.6928  0.4097
  124OSM   H16F13276   3.265   2.958   7.976 -0.3930 -0.5834  3.9500
  124OSM   H16G13277   3.250   3.129   7.932  0.4936  1.3328  2.4591
  124OSM   C17F13278   3.379   3.104   8.095  0.0670  0.0249 -0.6897
  124OSM   H17F13279   3.306   3.168   8.149  1.3215  0.0562  1.0323
  124OSM   H17G13280   3.449   3.186   8.072 -1.1956  1.5874  0.7549
  124OSM   C18F13281   3.447   3.010   8.190  0.6541 -0.6002 -0.0673
  124OSM   H18F13282   3.530   2.960   8.136  0.9397  0.1788 -0.3639
  124OSM   H18G13283   3.375   2.934   8.227 -2.2139  2.2402  0.7174
  124OSM   H18H13284   3.500   3.069   8.267  0.8170 -0.0913 -0.5591
  125OSM      N13285   4.449   5.134   6.020  0.5507 -0.5554 -0.1697
  125OSM    C1513286   4.342   5.094   5.925  0.1557  0.2457 -0.0225
  125OSM   H15A13287   4.384   5.023   5.856  2.1703 -1.9494  3.1724
  125OSM   H15B13288   4.300   5.172   5.864 -3.4990 -2.3951 -1.2784
  125OSM   H15C13289   4.257   5.049   5.976 -0.2925  0.1951 -0.8034
  125OSM    C1413290   4.573   5.164   5.935 -0.1770  0.2608 -0.4593
  125OSM   H14A13291   4.599   5.091   5.860  0.5600 -0.0402  0.0789
  125OSM   H14B13292   4.661   5.174   5.997  0.0783  0.4782 -0.8549
  125OSM   H14C13293   4.551   5.259   5.888 -0.3218  0.7141  0.4806
  125OSM    C1313294   4.409   5.254   6.100  0.2527 -0.0255  0.4613
  125OSM   H13A13295   4.409   5.339   6.034  0.5604 -1.6548 -1.7667
  125OSM   H13B13296   4.474   5.287   6.179  0.9926 -2.5703  1.0012
  125OSM   H13C13297   4.320   5.231   6.157  1.6103 -4.2930  1.1933
  125OSM    C1213298   4.469   5.018   6.112  0.7247 -0.4735 -0.7152
  125OSM   H12A13299   4.522   5.053   6.200  1.6719  1.6662 -2.0365
  125OSM   H12B13300   4.537   4.958   6.052 -0.2813 -0.6361 -1.7282
  125OSM    C1113301   4.346   4.942   6.175 -1.0302  0.0437  0.0207
  125OSM   H11A13302   4.379   4.866   6.250 -1.9833  0.5496  0.9896
  125OSM   H11B13303   4.298   4.900   6.084  1.4057 -1.1252 -0.8124
  125OSM      P13304   4.111   5.018   6.261 -0.5338 -0.5796 -0.1119
  125OSM    O1313305   4.051   5.143   6.218 -0.0308 -0.7738  0.3817
  125OSM    O1413306   4.063   4.903   6.180 -0.4606 -0.3846  0.0598
  125OSM    O1113307   4.070   5.000   6.419 -0.0492 -0.3530 -0.3101
  125OSM    O1213308   4.272   5.034   6.248  0.6247  0.1320  0.0716
  125OSM    C1S13309   4.181   5.000   6.511  0.4820  0.2932 -0.8807
  125OSM    H1S13310   4.249   5.083   6.484  1.1206 -0.0286 -0.3142
  125OSM    H1T13311   4.236   4.905   6.492 -0.4446 -0.8356  1.6393
  125OSM     NF13312   4.242   5.005   6.747  0.2195 -0.3969  0.3070
  125OSM    HNF13313   4.248   4.934   6.817 -2.5300  0.9298  2.0984
  125OSM    C2S13314   4.131   5.012   6.660 -0.0325 -0.6721 -0.3428
  125OSM    H2S13315   4.075   5.107   6.651 -1.1418 -1.2012  0.6749
  125OSM    C3S13316   4.026   4.905   6.693 -0.2172 -0.1370 -0.2906
  125OSM    H3S13317   4.082   4.811   6.672 -1.5552 -0.8754 -0.6804
  125OSM     O313318   3.906   4.900   6.620 -0.1723  0.0036  0.0583
  125OSM    HO313319   3.930   4.944   6.538 -0.1795  0.4386  0.2853
  125OSM    C4S13320   3.998   4.887   6.843 -0.1899 -0.6458  0.7038
  125OSM    H4S13321   4.066   4.819   6.896 -0.7621 -2.0319 -0.2769
  125OSM    C5S13322   3.901   4.943   6.920 -0.1183 -0.2064 -0.2723
  125OSM    H5S13323   3.838   5.008   6.858  0.4335  0.2286 -0.3906
  125OSM    C6S13324   3.883   4.909   7.069 -0.1432 -0.8850 -0.9645
  125OSM    H6S13325   3.891   5.004   7.125  2.5735  0.2829 -3.0602
  125OSM    H6T13326   3.962   4.837   7.098 -1.5235 -1.3227  2.0327
  125OSM    C7S13327   3.743   4.840   7.090 -0.2413 -0.2288 -0.0561
  125OSM    H7S13328   3.746   4.751   7.024 -0.8441 -0.3650  0.0896
  125OSM    H7T13329   3.655   4.898   7.053 -0.9323 -1.4254 -0.3263
  125OSM    C8S13330   3.710   4.804   7.244  0.1143  0.5590  0.2341
  125OSM    H8S13331   3.796   4.768   7.304  0.5476 -1.2769 -1.3978
  125OSM    H8T13332   3.632   4.726   7.231  0.1531  0.6713 -0.7621
  125OSM    C9S13333   3.645   4.927   7.311 -0.5584 -0.3873  0.7925
  125OSM    H9S13334   3.558   4.966   7.254  0.0895  0.3716  0.3047
  125OSM    H9T13335   3.717   5.012   7.304 -1.2844  0.5760  3.6969
  125OSM   C10S13336   3.599   4.913   7.457 -0.1870 -0.2091 -0.1267
  125OSM   H10S13337   3.509   4.851   7.476  0.5400 -1.3096 -0.1189
  125OSM   H10T13338   3.573   5.018   7.482  0.8834 -0.1179  0.7249
  125OSM   C11S13339   3.703   4.849   7.550  0.2202 -0.5769  0.1557
  125OSM   H11S13340   3.796   4.906   7.565  0.4535 -1.1168  0.8567
  125OSM   H11T13341   3.735   4.755   7.501  2.8957  0.3922 -0.0853
  125OSM   C12S13342   3.646   4.813   7.689  0.2240 -0.3263 -0.2719
  125OSM   H12S13343   3.727   4.750   7.733  1.9398  2.1810  0.3647
  125OSM   H12T13344   3.552   4.754   7.680  0.2410 -0.1584 -1.7696
  125OSM   C13S13345   3.626   4.941   7.778  0.4075 -0.3487 -0.4155
  125OSM   H13S13346   3.538   5.001   7.743  1.5652  0.0570 -2.8362
  125OSM   H13T13347   3.711   5.013   7.781 -0.3201  0.5350 -0.5471
  125OSM   C14S13348   3.601   4.908   7.922  0.3540  0.5780  0.5065
  125OSM   H14S13349   3.525   4.827   7.930  1.0115 -0.0856  0.1552
  125OSM   H14T13350   3.551   4.998   7.964  1.2844  2.3049 -1.8971
  125OSM   C15S13351   3.720   4.860   8.001 -0.4436  0.2745 -0.3610
  125OSM   H15S13352   3.808   4.927   8.008 -0.5019  0.3250 -0.0993
  125OSM   H15T13353   3.761   4.769   7.951  0.1141  0.5330 -0.3846
  125OSM   C16S13354   3.680   4.817   8.142  0.2437 -0.6143 -0.1262
  125OSM   H16S13355   3.599   4.745   8.116 -2.2382  1.1846  2.1341
  125OSM   H16T13356   3.631   4.901   8.195  0.1135 -0.8042  0.0589
  125OSM   C17S13357   3.798   4.755   8.223  0.2791 -0.4060 -0.2408
  125OSM   H17S13358   3.875   4.834   8.234  0.8650 -1.3205  3.6900
  125OSM   H17T13359   3.846   4.676   8.162  0.3889 -0.2708 -0.3304
  125OSM   C18S13360   3.744   4.716   8.368 -0.4706  0.1913  0.0895
  125OSM   H18S13361   3.728   4.811   8.423  0.7403  0.3517  0.1927
  125OSM   H18T13362   3.824   4.662   8.422 -1.8782 -0.0500  2.0139
  125OSM   H18U13363   3.647   4.665   8.355 -0.6602  0.6529 -0.3523
  125OSM    C1F13364   4.334   5.098   6.747  0.5421  0.2909 -0.0068
  125OSM     OF13365   4.311   5.209   6.703  0.2402  1.0313 -0.1649
  125OSM    C2F13366   4.469   5.060   6.810 -0.2773  0.6648  0.9482
  125OSM    H2F13367   4.510   4.969   6.763 -0.7678  1.1291 -0.4085
  125OSM    H2G13368   4.464   5.041   6.920  1.6950 -0.2395  0.9320
  125OSM    C3F13369   4.574   5.177   6.784 -0.0467  0.1969 -0.2336
  125OSM    H3F13370   4.550   5.278   6.822  0.2802 -0.1677  0.9731
  125OSM    H3G13371   4.578   5.198   6.675 -0.3273 -0.9270 -0.4770
  125OSM    C4F13372   4.718   5.148   6.833 -0.2285  0.6250 -0.5980
  125OSM    H4F13373   4.789   5.230   6.810  0.4059 -0.6050 -3.3507
  125OSM    H4G13374   4.759   5.056   6.788 -0.1353  0.0751  0.5732
  125OSM    C5F13375   4.730   5.139   6.989 -0.6956  0.0941 -0.8058
  125OSM    H5F13376   4.704   5.034   7.015  1.7547 -1.0964 -2.6958
  125OSM    H5G13377   4.674   5.219   7.043  1.3512  3.0080 -2.7320
  125OSM    C6F13378   4.875   5.166   7.036  0.7553  0.5215 -0.3355
  125OSM    H6F13379   4.899   5.273   7.020 -1.2147  1.3041  1.4904
  125OSM    H6G13380   4.943   5.102   6.975  0.5904 -0.0361  0.0535
  125OSM    C7F13381   4.914   5.123   7.183  0.9036 -0.8291 -0.4120
  125OSM    H7F13382   5.025   5.128   7.184  0.8699  1.2937 -1.0825
  125OSM    H7G13383   4.880   5.018   7.191 -1.6900  0.0139  0.8348
  125OSM    C8F13384   4.846   5.205   7.292  0.1861  0.0700 -0.2133
  125OSM    H8F13385   4.737   5.210   7.270  0.0362  0.3440  0.5587
  125OSM    H8G13386   4.885   5.309   7.283 -0.6076  0.3327 -0.7191
  125OSM    C9F13387   4.873   5.162   7.427  1.3497 -0.4797 -0.2150
  125OSM    H9F13388   4.979   5.155   7.454  0.6219  1.0768  3.6526
  125OSM   C10F13389   4.792   5.143   7.534  0.3813 -0.4696 -0.0338
  125OSM   H10F13390   4.849   5.108   7.622  1.5405 -1.2326 -1.0490
  125OSM   C11F13391   4.643   5.139   7.557 -0.7130  0.6448  0.2240
  125OSM   H11F13392   4.618   5.033   7.583  2.3207 -0.3998 -0.7211
  125OSM   H11G13393   4.598   5.159   7.457 -0.1946  0.3584 -0.0720
  125OSM   C12F13394   4.579   5.227   7.671  0.0759 -0.3743 -0.1578
  125OSM   H12F13395   4.470   5.207   7.663 -0.3554  1.0375  1.6113
  125OSM   H12G13396   4.601   5.330   7.636  0.5075  0.0045  1.1823
  125OSM   C13F13397   4.636   5.208   7.814  0.5963  0.0694 -0.0605
  125OSM   H13F13398   4.703   5.294   7.836  0.1502  0.2807  0.5035
  125OSM   H13G13399   4.699   5.116   7.812 -0.8320 -0.9984  1.2954
  125OSM   C14F13400   4.524   5.206   7.921 -0.1019  0.4809 -0.0355
  125OSM   H14F13401   4.458   5.119   7.900 -1.6957  2.0779 -2.1667
  125OSM   H14G13402   4.462   5.298   7.922 -0.3344  0.3210  0.7795
  125OSM   C15F13403   4.580   5.194   8.073  0.5167 -0.1641  0.3032
  125OSM   H15F13404   4.668   5.263   8.072  1.8743 -1.8359  0.6798
  125OSM   H15G13405   4.624   5.093   8.083 -0.5641 -0.5899  0.8879
  125OSM   C16F13406   4.469   5.203   8.178  0.1454  0.7262 -0.0590
  125OSM   H16F13407   4.421   5.303   8.172  1.8021  1.5729  0.0215
  125OSM   H16G13408   4.506   5.192   8.282 -0.3568 -1.6756 -0.0905
  125OSM   C17F13409   4.353   5.103   8.169 -0.5556 -0.0264  0.0718
  125OSM   H17F13410   4.346   5.056   8.269 -4.0279  0.4161  0.1609
  125OSM   H17G13411   4.394   5.019   8.110  0.5692 -0.2690  1.1580
  125OSM   C18F13412   4.219   5.150   8.121 -1.0374  0.6174 -0.7220
  125OSM   H18F13413   4.233   5.213   8.030  0.2507  1.5216  0.0755
  125OSM   H18G13414   4.163   5.207   8.198 -2.4462 -1.7652  0.1200
  125OSM   H18H13415   4.169   5.055   8.093 -1.8995  0.8813 -0.1248
  126OSM      N13416   1.014   5.042   6.619  0.0597  0.0558 -0.2345
  126OSM    C1513417   0.887   5.114   6.666  0.9481 -0.3844 -0.2408
  126OSM   H15A13418   0.889   5.216   6.632 -0.3112 -0.5321 -0.8353
  126OSM   H15B13419   0.880   5.117   6.774  3.4164 -0.1232 -0.0290
  126OSM   H15C13420   0.796   5.075   6.623  0.3758  0.9565 -0.3018
  126OSM    C1413421   0.990   5.011   6.470 -0.2078  0.1446 -0.7231
  126OSM   H14A13422   0.996   5.104   6.416 -1.9598  0.2947 -0.7175
  126OSM   H14B13423   0.893   4.966   6.453 -0.8675  1.7340 -1.3309
  126OSM   H14C13424   1.069   4.941   6.447  0.0353  0.3281 -0.4552
  126OSM    C1313425   1.137   5.122   6.622 -0.0669 -0.1595 -0.4705
  126OSM   H13A13426   1.136   5.181   6.713  0.1469  0.4136 -0.8306
  126OSM   H13B13427   1.139   5.196   6.543 -0.8298  0.1187 -0.2401
  126OSM   H13C13428   1.229   5.068   6.607  0.5840  1.3738 -2.3542
  126OSM    C1213429   1.022   4.905   6.688 -0.4002  0.2222 -0.6781
  126OSM   H12A13430   0.933   4.849   6.661 -1.1298  1.8680 -1.9124
  126OSM   H12B13431   1.016   4.912   6.795 -0.0691 -1.6240 -0.5139
  126OSM    C1113432   1.139   4.816   6.661 -0.1869 -0.0311  0.7529
  126OSM   H11A13433   1.152   4.731   6.731 -2.3774 -1.7072 -0.7646
  126OSM   H11B13434   1.234   4.874   6.661  0.3783 -0.9153  1.5388
  126OSM      P13435   1.018   4.643   6.503  0.0579  0.5676  0.2348
  126OSM    O1313436   0.905   4.710   6.441  0.3510 -0.1509 -0.8055
  126OSM    O1413437   1.074   4.538   6.421 -0.0323  0.6763 -0.1907
  126OSM    O1113438   0.983   4.586   6.648 -0.0479 -0.1409 -0.1543
  126OSM    O1213439   1.125   4.752   6.534  0.3136  0.9060 -0.1511
  126OSM    C1S13440   0.869   4.514   6.672  0.8034  0.4571  0.2661
  126OSM    H1S13441   0.858   4.438   6.593  1.1126  0.6372  0.0447
  126OSM    H1T13442   0.774   4.572   6.670 -0.8433 -2.1338 -0.4692
  126OSM     NF13443   0.741   4.353   6.814 -0.5081  0.8319 -0.1260
  126OSM    HNF13444   0.657   4.393   6.849 -0.3254  2.4576 -1.4054
  126OSM    C2S13445   0.850   4.452   6.810 -0.3735 -0.2564  0.1988
  126OSM    H2S13446   0.945   4.396   6.801  0.6990  1.7497 -1.6467
  126OSM    C3S13447   0.843   4.554   6.923 -0.0212  0.0166 -0.5035
  126OSM    H3S13448   0.759   4.626   6.909 -1.3034 -1.0237  1.3867
  126OSM     O313449   0.959   4.636   6.919  0.0259  0.1496 -0.5697
  126OSM    HO313450   1.018   4.604   6.851 -0.8951  1.0943 -1.8512
  126OSM    C4S13451   0.828   4.488   7.059  0.0115 -0.3748  0.3440
  126OSM    H4S13452   0.726   4.492   7.099  0.7966 -1.7908  2.6391
  126OSM    C5S13453   0.927   4.468   7.141 -0.9238 -0.1138 -0.0562
  126OSM    H5S13454   1.029   4.492   7.110 -0.0707 -3.7241 -0.4134
  126OSM    C6S13455   0.917   4.425   7.283  0.5908  0.2668 -0.6690
  126OSM    H6S13456   1.004   4.468   7.338  0.5141 -0.6678  0.2194
  126OSM    H6T13457   0.926   4.316   7.267  0.7104  0.0352  0.7844
  126OSM    C7S13458   0.792   4.469   7.364 -0.6547 -0.3394  0.7344
  126OSM    H7S13459   0.706   4.426   7.308  0.3816 -1.6250  0.0477
  126OSM    H7T13460   0.793   4.580   7.361 -0.4155 -0.3457  0.5643
  126OSM    C8S13461   0.797   4.421   7.512  0.0150  0.8490  0.4232
  126OSM    H8S13462   0.891   4.453   7.562  0.9211  0.5301 -0.9998
  126OSM    H8T13463   0.774   4.313   7.523 -0.6665  1.0493  1.0735
  126OSM    C9S13464   0.689   4.479   7.601  0.1760  0.2311  0.1897
  126OSM    H9S13465   0.588   4.440   7.577 -0.7831  1.4774  2.0095
  126OSM    H9T13466   0.679   4.589   7.600  0.2472  0.2454 -1.1642
  126OSM   C10S13467   0.706   4.424   7.744 -0.1870  0.3912  0.4178
  126OSM   H10S13468   0.814   4.430   7.770  1.3153 -0.4671 -4.5392
  126OSM   H10T13469   0.680   4.316   7.740 -3.1720  1.0506 -0.2242
  126OSM   C11S13470   0.626   4.500   7.849  0.1525 -1.6326 -0.3883
  126OSM   H11S13471   0.516   4.492   7.838 -0.2648  0.6557  1.2901
  126OSM   H11T13472   0.659   4.605   7.840 -2.7598 -0.3617  2.0313
  126OSM   C12S13473   0.670   4.459   7.991 -0.4172  0.0206  0.2978
  126OSM   H12S13474   0.779   4.458   8.013 -0.2983 -2.1677 -0.0777
  126OSM   H12T13475   0.646   4.351   8.007  0.5378 -0.6739 -2.4170
  126OSM   C13S13476   0.600   4.538   8.102 -0.8577 -0.7321 -0.2301
  126OSM   H13S13477   0.593   4.645   8.073  3.1356 -0.8213 -2.2659
  126OSM   H13T13478   0.666   4.538   8.192 -0.8491 -1.0972 -0.2385
  126OSM   C14S13479   0.465   4.483   8.145 -0.8409  0.5908 -0.5561
  126OSM   H14S13480   0.480   4.379   8.180  1.6173  0.7211 -1.0320
  126OSM   H14T13481   0.390   4.495   8.063 -2.6847  0.2089  1.0022
  126OSM   C15S13482   0.426   4.561   8.268 -0.0077  0.7751  0.4097
  126OSM   H15S13483   0.356   4.644   8.244  1.1299  2.4270  2.4334
  126OSM   H15T13484   0.511   4.621   8.308  0.5858  0.3477 -0.1914
  126OSM   C16S13485   0.370   4.470   8.380  0.6237 -0.3823  0.0684
  126OSM   H16S13486   0.406   4.366   8.361  3.2277  0.1180  1.8122
  126OSM   H16T13487   0.260   4.455   8.378  0.4322  0.6687  1.4605
  126OSM   C17S13488   0.411   4.508   8.524  0.5457 -0.4015 -0.6885
  126OSM   H17S13489   0.350   4.595   8.557 -0.6850 -1.0943 -1.0798
  126OSM   H17T13490   0.518   4.537   8.526  0.6901 -0.9246 -0.7959
  126OSM   C18S13491   0.383   4.391   8.614 -0.5075  0.0089 -0.0246
  126OSM   H18S13492   0.466   4.317   8.605 -1.2824 -0.7710 -0.9932
  126OSM   H18T13493   0.293   4.329   8.594 -0.3115 -1.0375  2.0447
  126OSM   H18U13494   0.369   4.429   8.718 -1.0605  0.2881 -0.1974
  126OSM    C1F13495   0.749   4.243   6.737  0.0984  0.0068 -0.5775
  126OSM     OF13496   0.837   4.215   6.659  0.2974 -0.4434  0.1970
  126OSM    C2F13497   0.635   4.141   6.744 -0.9864  0.3291 -0.5250
  126OSM    H2F13498   0.584   4.126   6.647  0.5481 -1.2944 -1.1461
  126OSM    H2G13499   0.566   4.166   6.827  1.5349  0.2940  1.7269
  126OSM    C3F13500   0.695   3.996   6.769 -0.0168 -0.0722 -0.2953
  126OSM    H3F13501   0.765   3.975   6.685 -1.6786 -1.1945 -1.4401
  126OSM    H3G13502   0.604   3.934   6.774 -0.6020  0.8404  1.0417
  126OSM    C4F13503   0.770   3.974   6.903  0.0852  0.1866  0.1471
  126OSM    H4F13504   0.871   4.019   6.908 -0.1266  0.7752 -0.6732
  126OSM    H4G13505   0.803   3.868   6.891 -2.9338 -0.7127 -1.2385
  126OSM    C5F13506   0.675   3.988   7.021 -0.9732  0.1990  0.2567
  126OSM    H5F13507   0.598   3.909   7.031  1.2521 -2.1648 -0.1301
  126OSM    H5G13508   0.629   4.089   7.025 -2.2608 -0.4039  2.1879
  126OSM    C6F13509   0.762   4.000   7.151 -0.5897 -0.4020 -0.0126
  126OSM    H6F13510   0.837   4.079   7.126 -0.3661 -0.2387  1.1319
  126OSM    H6G13511   0.825   3.909   7.159  1.9293  1.0243 -1.9244
  126OSM    C7F13512   0.676   4.025   7.273 -0.0555 -0.1457 -0.1630
  126OSM    H7F13513   0.619   3.931   7.290  0.2137 -0.6296 -1.8210
  126OSM    H7G13514   0.604   4.103   7.238  0.1544 -0.0415 -0.3638
  126OSM    C8F13515   0.752   4.078   7.393  0.2758  0.2773  0.2567
  126OSM    H8F13516   0.678   4.092   7.475  0.1195 -1.2961  0.4252
  126OSM    H8G13517   0.808   4.174   7.384  0.1344  0.4481  1.0628
  126OSM    C9F13518   0.833   3.962   7.449 -0.1799  0.3945 -0.5448
  126OSM    H9F13519   0.776   3.884   7.502 -0.5587  1.8508  1.2861
  126OSM   C10F13520   0.970   3.961   7.454  0.8073  0.6553 -0.0939
  126OSM   H10F13521   1.006   3.859   7.479 -1.7065 -0.9982 -2.6459
  126OSM   C11F13522   1.065   4.063   7.402 -0.1753  0.2892  0.0708
  126OSM   H11F13523   1.032   4.100   7.303  0.3383  0.2441 -0.1178
  126OSM   H11G13524   1.161   4.013   7.380 -0.2308 -0.3170  1.1278
  126OSM   C12F13525   1.090   4.176   7.498  0.2447  0.0159 -0.5439
  126OSM   H12F13526   0.990   4.225   7.509 -0.3892 -1.2049 -0.6489
  126OSM   H12G13527   1.167   4.241   7.454  0.5073  0.9604  1.2391
  126OSM   C13F13528   1.133   4.117   7.636 -0.2556  0.1084 -0.2660
  126OSM   H13F13529   1.197   4.027   7.623 -1.0394 -0.6692  1.0317
  126OSM   H13G13530   1.042   4.085   7.692  2.3711 -1.9015  3.2627
  126OSM   C14F13531   1.202   4.224   7.713 -0.2164  0.6405 -0.0272
  126OSM   H14F13532   1.272   4.274   7.642 -0.2892  0.4004 -0.2701
  126OSM   H14G13533   1.270   4.182   7.790  0.3278 -0.8160 -1.2514
  126OSM   C15F13534   1.109   4.321   7.784 -0.8673 -0.3292  0.8400
  126OSM   H15F13535   1.042   4.364   7.706 -2.2785 -0.9448  1.6647
  126OSM   H15G13536   1.174   4.398   7.830 -0.9955  1.0080 -1.1090
  126OSM   C16F13537   1.000   4.268   7.883 -0.5504 -0.0860 -0.2614
  126OSM   H16F13538   0.929   4.209   7.822  0.7767 -1.4334 -0.5565
  126OSM   H16G13539   0.943   4.355   7.922 -0.7859 -0.1016 -0.5590
  126OSM   C17F13540   1.065   4.207   8.007 -0.7959  0.1619 -0.2424
  126OSM   H17F13541   1.130   4.122   7.976 -3.7070 -2.6022  0.6683
  126OSM   H17G13542   0.975   4.164   8.057 -0.3473  1.6720  2.0201
  126OSM   C18F13543   1.134   4.301   8.106  0.3967  0.7749 -0.1489
  126OSM   H18F13544   1.160   4.235   8.192 -0.6259  1.0083  0.3567
  126OSM   H18G13545   1.070   4.389   8.128 -0.3272  0.5371 -1.2285
  126OSM   H18H13546   1.229   4.335   8.061 -0.4195  1.4231 -1.4603
  127OSM      N13547   2.009   3.368   5.949  0.4260  0.1825  0.3475
  127OSM    C1513548   2.048   3.226   5.943  0.3185 -0.2910  0.4646
  127OSM   H15A13549   2.131   3.214   6.012  1.7476  1.4281 -0.8516
  127OSM   H15B13550   2.081   3.191   5.847 -2.9860 -0.2562 -0.7954
  127OSM   H15C13551   1.974   3.155   5.975 -0.7994  1.0424  0.9262
  127OSM    C1413552   1.879   3.385   5.878 -0.2808 -0.6609  0.0199
  127OSM   H14A13553   1.848   3.488   5.889  0.7015 -0.4721  1.1544
  127OSM   H14B13554   1.797   3.329   5.921 -1.7681  2.0192  0.8937
  127OSM   H14C13555   1.892   3.362   5.773 -0.7720  1.0670 -0.4549
  127OSM    C1313556   1.983   3.414   6.096  0.1338  0.0031  0.6295
  127OSM   H13A13557   1.931   3.508   6.100 -0.1658 -0.0229 -1.5078
  127OSM   H13B13558   2.078   3.407   6.148  1.6731 -0.2133 -1.9952
  127OSM   H13C13559   1.920   3.346   6.151 -1.4393  3.1673  3.0504
  127OSM    C1213560   2.121   3.452   5.885  0.4827 -0.0184 -0.5279
  127OSM   H12A13561   2.093   3.553   5.911  0.8088 -0.1135  0.2434
  127OSM   H12B13562   2.137   3.424   5.782  2.7722 -2.3811  0.3483
  127OSM    C1113563   2.260   3.436   5.948 -0.0832  0.1151  0.6684
  127OSM   H11A13564   2.323   3.503   5.886  3.0353 -2.8615  0.2619
  127OSM   H11B13565   2.301   3.333   5.933 -1.5304 -0.5207  0.9096
  127OSM      P13566   2.339   3.396   6.194  0.0840  0.2313  0.3380
  127OSM    O1313567   2.456   3.349   6.117 -0.2096 -0.2175 -0.1064
  127OSM    O1413568   2.360   3.486   6.311 -0.3846  0.5690  0.7466
  127OSM    O1113569   2.249   3.265   6.241  0.7073 -0.5596  0.5417
  127OSM    O1213570   2.257   3.479   6.087  0.1817 -0.1328 -0.1117
  127OSM    C1S13571   2.295   3.181   6.340 -0.2483 -0.0178 -0.1722
  127OSM    H1S13572   2.381   3.221   6.397  0.2684 -1.2793 -0.0383
  127OSM    H1T13573   2.331   3.087   6.294 -0.3260  0.4220 -1.1659
  127OSM     NF13574   2.234   3.079   6.561  0.5149  0.0692 -0.4569
  127OSM    HNF13575   2.219   2.980   6.562  0.6481  0.0273  1.5739
  127OSM    C2S13576   2.183   3.150   6.441 -0.5297 -0.5003 -0.4592
  127OSM    H2S13577   2.142   3.247   6.477 -0.4244  0.3267 -2.4796
  127OSM    C3S13578   2.073   3.075   6.362  0.2397 -0.4942 -0.1753
  127OSM    H3S13579   2.130   2.997   6.307  1.5315  2.1200 -2.8655
  127OSM     O313580   2.017   3.156   6.252  0.5465 -0.2849 -0.0649
  127OSM    HO313581   2.091   3.206   6.215  0.6319 -1.4516 -1.5494
  127OSM    C4S13582   1.973   3.011   6.453 -0.0714 -0.4033  0.5458
  127OSM    H4S13583   1.994   2.905   6.469 -1.5714 -0.5341  1.8269
  127OSM    C5S13584   1.846   3.053   6.478  0.1555 -0.5831  0.5389
  127OSM    H5S13585   1.824   3.159   6.457 -0.0563 -0.3554  1.8488
  127OSM    C6S13586   1.740   2.979   6.556  0.0479 -0.9785 -0.0777
  127OSM    H6S13587   1.639   2.971   6.511  0.3113  0.5759 -1.0009
  127OSM    H6T13588   1.718   3.036   6.649 -0.1721 -1.4866  0.1856
  127OSM    C7S13589   1.777   2.834   6.590  0.5038  0.4449 -0.1424
  127OSM    H7S13590   1.875   2.831   6.644 -0.0492  0.8917  0.9130
  127OSM    H7T13591   1.791   2.774   6.498 -0.4643 -0.3034  0.1785
  127OSM    C8S13592   1.678   2.770   6.690 -0.5120  0.1563  0.3199
  127OSM    H8S13593   1.710   2.666   6.712 -0.4935  0.1951  0.4771
  127OSM    H8T13594   1.584   2.771   6.631  2.1565 -1.6820 -4.5208
  127OSM    C9S13595   1.655   2.842   6.822 -0.0391 -0.1415  0.1475
  127OSM    H9S13596   1.570   2.809   6.886 -0.8183 -0.4612 -1.0253
  127OSM    H9T13597   1.630   2.949   6.801 -1.7418 -0.5861 -0.2579
  127OSM   C10S13598   1.775   2.846   6.912 -0.8208  0.5868  0.2140
  127OSM   H10S13599   1.742   2.912   6.995  0.4782 -1.1709  2.2480
  127OSM   H10T13600   1.864   2.882   6.856  0.2043 -0.9030  0.7860
  127OSM   C11S13601   1.810   2.708   6.966 -0.4954 -0.9375  0.2736
  127OSM   H11S13602   1.830   2.648   6.875  0.2678  0.3393 -0.4301
  127OSM   H11T13603   1.734   2.660   7.032 -1.8831 -0.1478 -0.6974
  127OSM   C12S13604   1.940   2.704   7.047  0.1783 -0.0149 -0.0866
  127OSM   H12S13605   2.018   2.755   6.986 -0.1063  0.3318 -0.1647
  127OSM   H12T13606   1.973   2.598   7.052 -0.6187 -0.2240  1.1816
  127OSM   C13S13607   1.931   2.779   7.172  0.2372  0.3402 -0.0687
  127OSM   H13S13608   1.843   2.737   7.224  0.2816 -0.0744 -0.3239
  127OSM   H13T13609   1.922   2.889   7.162 -0.3185  0.3335  0.3541
  127OSM   C14S13610   2.052   2.756   7.267  1.0242  0.5295  0.5204
  127OSM   H14S13611   2.139   2.809   7.224  0.9759  0.0389 -0.1945
  127OSM   H14T13612   2.063   2.645   7.277  0.9716  0.6614  2.6952
  127OSM   C15S13613   2.026   2.814   7.407  0.2276 -0.3617 -0.2023
  127OSM   H15S13614   1.920   2.794   7.435 -0.6294  1.2325 -2.0696
  127OSM   H15T13615   2.028   2.925   7.410 -0.9579 -0.3421  0.5536
  127OSM   C16S13616   2.116   2.759   7.518 -0.0496  0.5348 -0.0131
  127OSM   H16S13617   2.154   2.830   7.595 -1.2682 -0.3507  1.4470
  127OSM   H16T13618   2.198   2.706   7.465 -1.7432 -1.4379 -0.7667
  127OSM   C17S13619   2.051   2.652   7.607  0.4832  0.0084  0.5457
  127OSM   H17S13620   2.014   2.565   7.550 -0.0614  0.5432  0.0811
  127OSM   H17T13621   1.955   2.696   7.640 -0.8755 -2.1978 -0.2808
  127OSM   C18S13622   2.149   2.610   7.711 -1.2429  0.6735 -0.5086
  127OSM   H18S13623   2.243   2.573   7.664 -0.4778  0.6431  0.9806
  127OSM   H18T13624   2.108   2.532   7.778  0.0608  0.3566 -0.0430
  127OSM   H18U13625   2.183   2.696   7.773  1.3376 -0.5809 -0.0049
  127OSM    C1F13626   2.325   3.131   6.645 -0.2553 -0.0073  0.5757
  127OSM     OF13627   2.374   3.244   6.629 -0.3394 -0.1767  0.4680
  127OSM    C2F13628   2.357   3.052   6.776 -0.6915 -0.0940  0.1633
  127OSM    H2F13629   2.415   2.962   6.747 -0.8171 -0.6161  1.4409
  127OSM    H2G13630   2.260   3.012   6.814 -0.3190 -0.1596  1.0810
  127OSM    C3F13631   2.440   3.133   6.882 -0.3188 -0.3760  1.3078
  127OSM    H3F13632   2.385   3.229   6.891 -0.1743  0.1359 -2.2010
  127OSM    H3G13633   2.542   3.151   6.842 -0.2877  0.6941  1.8264
  127OSM    C4F13634   2.449   3.069   7.017  0.0163 -0.0200 -0.0023
  127OSM    H4F13635   2.495   2.969   7.002  0.6175  0.0064  1.4861
  127OSM    H4G13636   2.347   3.053   7.059 -1.3108 -0.4657 -3.1419
  127OSM    C5F13637   2.525   3.151   7.115 -0.0183 -0.5802  0.0313
  127OSM    H5F13638   2.477   3.251   7.123  1.1253  0.3231 -3.0891
  127OSM    H5G13639   2.626   3.183   7.081 -0.5848  2.6306  0.9760
  127OSM    C6F13640   2.543   3.097   7.260  0.5948  0.1242  0.1146
  127OSM    H6F13641   2.629   3.026   7.254 -0.3192 -0.9574 -0.7610
  127OSM    H6G13642   2.452   3.038   7.281 -0.6373  1.7749 -0.3727
  127OSM    C7F13643   2.556   3.199   7.376 -1.3379  0.1591  0.3176
  127OSM    H7F13644   2.467   3.266   7.370 -1.5965 -0.2902 -1.4512
  127OSM    H7G13645   2.650   3.253   7.353 -0.4631 -1.7111 -0.7104
  127OSM    C8F13646   2.541   3.138   7.517 -0.7645  0.2140 -0.1751
  127OSM    H8F13647   2.470   3.052   7.514 -2.1083  1.3003 -2.8613
  127OSM    H8G13648   2.501   3.220   7.580 -0.3786  0.4028 -0.1745
  127OSM    C9F13649   2.669   3.073   7.574 -0.4550  0.4663 -0.0463
  127OSM    H9F13650   2.717   2.996   7.512 -0.2561  0.9514 -0.5070
  127OSM   C10F13651   2.741   3.117   7.686 -0.0205  0.3620 -0.2702
  127OSM   H10F13652   2.824   3.053   7.719 -2.2702 -3.2322 -1.0477
  127OSM   C11F13653   2.694   3.232   7.768 -0.2743  0.4331 -0.5389
  127OSM   H11F13654   2.590   3.270   7.759 -0.4465  0.8313  2.2590
  127OSM   H11G13655   2.766   3.316   7.761  0.4082  0.1465  2.2044
  127OSM   C12F13656   2.684   3.200   7.921  0.1878 -0.3950  0.5396
  127OSM   H12F13657   2.613   3.117   7.942 -0.2371  0.2943  1.9466
  127OSM   H12G13658   2.647   3.294   7.968 -0.6374  0.4163 -1.5884
  127OSM   C13F13659   2.817   3.174   7.985 -0.0504  0.2881 -0.0013
  127OSM   H13F13660   2.892   3.240   7.936  0.7151  0.7340  1.7028
  127OSM   H13G13661   2.845   3.069   7.965 -3.2225 -0.6849  0.0271
  127OSM   C14F13662   2.820   3.204   8.136  0.0091 -0.1520 -0.2621
  127OSM   H14F13663   2.731   3.167   8.192 -0.2275  1.0722  0.2172
  127OSM   H14G13664   2.814   3.315   8.132  0.4900 -0.1516 -1.5375
  127OSM   C15F13665   2.960   3.164   8.194  0.2382 -0.7256 -0.1373
  127OSM   H15F13666   2.964   3.205   8.297  0.7660 -2.6891  0.6644
  127OSM   H15G13667   3.043   3.209   8.136  0.2777  1.7324  1.6617
  127OSM   C16F13668   2.993   3.015   8.198 -0.7663 -0.0253 -0.6638
  127OSM   H16F13669   3.052   2.988   8.107 -0.0001 -1.4849  0.2320
  127OSM   H16G13670   2.899   2.958   8.202 -0.4135 -0.5257  1.3965
  127OSM   C17F13671   3.068   2.967   8.320 -0.4871  0.0305 -0.0015
  127OSM   H17F13672   3.005   2.986   8.410  0.1548 -1.2461  0.7394
  127OSM   H17G13673   3.171   3.008   8.325 -0.8371  0.7583  2.0175
  127OSM   C18F13674   3.081   2.815   8.313  0.3852  0.0149  0.7607
  127OSM   H18F13675   3.133   2.785   8.220  0.1946  0.6722  0.4364
  127OSM   H18G13676   2.980   2.770   8.324  1.2563 -2.1501  0.4839
  127OSM   H18H13677   3.153   2.782   8.391  0.7354  0.5752  0.6789
  128OSM      N13678   4.837   6.283   6.289  0.2662 -0.3112 -0.7847
  128OSM    C1513679   4.952   6.235   6.209  0.1456 -0.4512  0.1749
  128OSM   H15A13680   4.983   6.280   6.116  1.9209 -1.7234  0.0873
  128OSM   H15B13681   4.937   6.132   6.179 -1.8162  0.0016 -0.5849
  128OSM   H15C13682   5.036   6.241   6.277  0.3379  0.9348 -0.1609
  128OSM    C1413683   4.827   6.235   6.430 -0.0689  0.0211 -0.0840
  128OSM   H14A13684   4.913   6.259   6.490 -0.2761  1.0020 -0.1781
  128OSM   H14B13685   4.829   6.127   6.441  0.1863  0.1327  1.0739
  128OSM   H14C13686   4.750   6.281   6.489 -1.2339 -1.3434 -0.4808
  128OSM    C1313687   4.848   6.434   6.305  0.3635  0.0166  0.9218
  128OSM   H13A13688   4.855   6.483   6.209 -2.0015  0.1712  0.7626
  128OSM   H13B13689   4.937   6.465   6.358 -0.3360  0.8761  1.6324
  128OSM   H13C13690   4.759   6.485   6.340 -0.1818 -0.9286  0.9674
  128OSM    C1213691   4.715   6.247   6.216 -0.2290 -0.5226  0.7853
  128OSM   H12A13692   4.736   6.272   6.113  1.9976 -1.2748  1.0052
  128OSM   H12B13693   4.641   6.316   6.255  1.4515  0.4435  2.3961
  128OSM    C1113694   4.665   6.100   6.218 -0.7992  0.4497  0.3918
  128OSM   H11A13695   4.574   6.103   6.155 -0.1367  1.7131 -0.5637
  128OSM   H11B13696   4.639   6.066   6.320  2.0368  1.1453  1.4319
  128OSM      P13697   4.755   5.862   6.174  0.4073  0.2470 -0.0907
  128OSM    O1313698   4.617   5.820   6.206  0.0960 -0.0161 -0.1434
  128OSM    O1413699   4.819   5.802   6.054 -0.0819  0.0779 -0.0159
  128OSM    O1113700   4.843   5.817   6.293 -0.1752 -0.0194  0.1364
  128OSM    O1213701   4.766   6.015   6.154  0.2372 -0.7241 -0.4408
  128OSM    C1S13702   4.792   5.769   6.420  0.0207  0.1780  0.3721
  128OSM    H1S13703   4.772   5.660   6.411  0.0667  0.2737 -1.2296
  128OSM    H1T13704   4.698   5.819   6.453  0.1841  0.1696  0.8513
  128OSM     NF13705   4.836   5.720   6.650  0.2711  0.6729 -0.7952
  128OSM    HNF13706   4.795   5.783   6.715 -1.2955 -0.2959 -0.7756
  128OSM    C2S13707   4.898   5.772   6.531 -0.0963  0.3657 -0.7154
  128OSM    H2S13708   4.987   5.713   6.499  2.1175  1.6612  2.4795
  128OSM    C3S13709   4.944   5.915   6.547  0.3322  0.5184  0.2420
  128OSM    H3S13710   4.856   5.983   6.553 -0.4567 -0.4476 -0.1515
  128OSM     O313711   5.009   5.969   6.431  0.3838  0.4636 -0.5133
  128OSM    HO313712   4.966   5.914   6.366 -0.1446  0.4307 -0.1415
  128OSM    C4S13713   5.035   5.926   6.668  0.2375  0.9150 -0.4831
  128OSM    H4S13714   5.134   5.880   6.651 -0.5239 -0.0967 -2.5890
  128OSM    C5S13715   4.998   5.986   6.786 -0.3377 -0.3174  0.5472
  128OSM    H5S13716   4.897   6.030   6.793 -0.5030 -0.5501 -0.2442
  128OSM    C6S13717   5.071   5.976   6.916  0.1941  0.0813  0.3996
  128OSM    H6S13718   5.130   6.068   6.938  1.7166 -0.4842 -1.1528
  128OSM    H6T13719   5.155   5.903   6.910  1.2695  1.2868  0.3524
  128OSM    C7S13720   4.992   5.942   7.040  0.4985  0.1872  0.0822
  128OSM    H7S13721   4.983   5.832   7.042 -1.2729  0.2800 -0.8974
  128OSM    H7T13722   4.888   5.981   7.049  0.3451 -0.4123  0.9852
  128OSM    C8S13723   5.070   5.994   7.168  0.6174 -0.9352 -0.4525
  128OSM    H8S13724   5.048   6.101   7.188  3.5592 -0.1387 -0.9817
  128OSM    H8T13725   5.181   5.990   7.164  0.9391  0.4179  3.2813
  128OSM    C9S13726   5.021   5.922   7.295 -0.2671 -0.1103 -0.4619
  128OSM    H9S13727   5.054   5.816   7.290 -0.9009 -0.2828 -1.1290
  128OSM    H9T13728   4.912   5.919   7.316  0.4393 -2.5095  4.5241
  128OSM   C10S13729   5.095   5.976   7.425 -0.0803  0.1559  0.3064
  128OSM   H10S13730   5.070   6.078   7.459 -0.0772 -0.3792  1.9803
  128OSM   H10T13731   5.203   5.974   7.397  0.1002 -2.5629  0.9678
  128OSM   C11S13732   5.086   5.885   7.556 -0.9464 -0.5195 -0.4701
  128OSM   H11S13733   5.152   5.799   7.532  2.5460  1.1954  2.0349
  128OSM   H11T13734   4.982   5.850   7.575 -1.2120 -1.1522 -2.8782
  128OSM   C12S13735   5.152   5.938   7.683  0.2917  0.0750 -0.0717
  128OSM   H12S13736   5.256   5.974   7.665  0.6166 -0.1392  1.2313
  128OSM   H12T13737   5.187   5.846   7.735  1.7780  0.5092 -0.2349
  128OSM   C13S13738   5.067   6.022   7.783  0.2589  0.6338  0.2440
  128OSM   H13S13739   5.052   6.118   7.729 -1.0804  0.0210 -0.5351
  128OSM   H13T13740   5.135   6.034   7.870  1.7451 -1.9400 -0.4564
  128OSM   C14S13741   4.928   5.954   7.815 -0.3560 -0.1004 -0.4664
  128OSM   H14S13742   4.948   5.848   7.840  0.3700  0.2232  0.3698
  128OSM   H14T13743   4.852   5.970   7.735 -0.0125  2.0702 -0.4182
  128OSM   C15S13744   4.870   6.015   7.945  0.1253  0.1812  0.3922
  128OSM   H15S13745   4.760   6.009   7.955  0.1483  2.2118  2.7315
  128OSM   H15T13746   4.883   6.126   7.944  1.7782  0.1365  3.6560
  128OSM   C16S13747   4.945   5.961   8.072  0.0196  0.7469  0.3959
  128OSM   H16S13748   4.915   6.011   8.166 -0.3027 -1.7316  1.6952
  128OSM   H16T13749   5.054   5.980   8.060  0.0491 -0.1594 -1.1482
  128OSM   C17S13750   4.927   5.809   8.111 -0.8569 -0.1887  0.1443
  128OSM   H17S13751   4.947   5.739   8.027 -0.8619 -1.2690  1.0190
  128OSM   H17T13752   4.820   5.802   8.139 -1.3786 -0.2402 -1.7551
  128OSM   C18S13753   5.009   5.768   8.231 -0.5388  0.0629  0.1677
  128OSM   H18S13754   4.994   5.831   8.321 -2.1812 -1.2356  0.8699
  128OSM   H18T13755   5.115   5.788   8.206 -0.4398  0.1729  0.6677
  128OSM   H18U13756   4.987   5.663   8.262  1.8285 -0.2341  1.0042
  128OSM    C1F13757   4.813   5.588   6.664  0.5625  0.4651 -0.4778
  128OSM     OF13758   4.871   5.501   6.603 -0.0987  0.5029 -0.2054
  128OSM    C2F13759   4.713   5.554   6.776 -0.5250 -0.0686  0.4168
  128OSM    H2F13760   4.686   5.447   6.763 -1.0535  0.1674 -0.5540
  128OSM    H2G13761   4.619   5.612   6.764 -0.4984 -0.4071 -1.9113
  128OSM    C3F13762   4.780   5.576   6.918 -0.3600 -0.2688 -0.2289
  128OSM    H3F13763   4.815   5.681   6.922 -0.2032 -0.2804 -1.0350
  128OSM    H3G13764   4.866   5.506   6.923 -0.3783 -0.6242 -3.2249
  128OSM    C4F13765   4.687   5.553   7.038  0.1283  0.4800  0.4047
  128OSM    H4F13766   4.634   5.456   7.026 -2.6613  1.9509 -0.0089
  128OSM    H4G13767   4.613   5.635   7.033  3.0488  3.3813  1.4601
  128OSM    C5F13768   4.762   5.560   7.167 -0.1463  0.0458  0.3717
  128OSM    H5F13769   4.822   5.654   7.166 -0.6608  0.4175 -2.2392
  128OSM    H5G13770   4.840   5.481   7.163  0.8642  0.9616  1.2404
  128OSM    C6F13771   4.677   5.560   7.298 -0.3012  0.0457  0.4768
  128OSM    H6F13772   4.622   5.464   7.302 -1.3193  0.5518 -0.6512
  128OSM    H6G13773   4.600   5.637   7.276  1.9759  2.3634  0.1417
  128OSM    C7F13774   4.757   5.602   7.424  0.0468 -0.2528 -0.0307
  128OSM    H7F13775   4.810   5.696   7.398  2.9455 -2.0711 -1.3055
  128OSM    H7G13776   4.848   5.540   7.441  0.3388 -0.0319 -0.7517
  128OSM    C8F13777   4.668   5.603   7.539 -0.4370  0.6607 -0.6648
  128OSM    H8F13778   4.635   5.498   7.551  0.4378  0.3863 -0.6007
  128OSM    H8G13779   4.574   5.660   7.521 -1.2315 -1.2830 -3.5673
  128OSM    C9F13780   4.742   5.639   7.665  0.3064 -0.1918  0.8378
  128OSM    H9F13781   4.850   5.632   7.652  0.7402  2.5325  2.0847
  128OSM   C10F13782   4.708   5.703   7.778  0.2431  0.1108 -0.2670
  128OSM   H10F13783   4.791   5.720   7.848  0.1023 -1.6299  0.3878
  128OSM   C11F13784   4.574   5.753   7.817  0.2467 -0.3339 -0.0189
  128OSM   H11F13785   4.493   5.710   7.754 -1.1954  1.2676  0.6784
  128OSM   H11G13786   4.583   5.863   7.822  0.4859 -0.3610  0.1763
  128OSM   C12F13787   4.547   5.705   7.957  0.0838 -0.2080  0.0574
  128OSM   H12F13788   4.625   5.731   8.032  0.6502  1.2182 -0.9977
  128OSM   H12G13789   4.552   5.594   7.957 -1.4092 -0.3044 -1.2012
  128OSM   C13F13790   4.404   5.746   8.009 -0.0108  0.2893  0.0374
  128OSM   H13F13791   4.334   5.703   7.935 -0.9535  0.5603  0.7444
  128OSM   H13G13792   4.400   5.857   7.998 -1.4669  0.2994  0.3581
  128OSM   C14F13793   4.377   5.687   8.154 -0.5064 -0.3758 -0.2421
  128OSM   H14F13794   4.434   5.747   8.227 -2.7340  2.2032 -0.4776
  128OSM   H14G13795   4.407   5.581   8.171  0.2374  0.1281  1.8827
  128OSM   C15F13796   4.228   5.699   8.192 -0.8400  0.1080 -0.6524
  128OSM   H15F13797   4.163   5.632   8.131 -2.0823 -1.6869  2.4154
  128OSM   H15G13798   4.190   5.801   8.168 -0.3112  0.0083 -1.9964
  128OSM   C16F13799   4.200   5.668   8.340 -0.4617 -0.4139  0.1359
  128OSM   H16F13800   4.262   5.578   8.362 -0.9134 -0.2598  2.2391
  128OSM   H16G13801   4.097   5.630   8.361 -0.0697 -1.5335  0.0721
  128OSM   C17F13802   4.224   5.784   8.432  0.3636 -0.3435  0.0748
  128OSM   H17F13803   4.132   5.847   8.439  1.3036  0.9292  2.8123
  128OSM   H17G13804   4.294   5.857   8.387 -0.5373  2.1797  2.4198
  128OSM   C18F13805   4.278   5.750   8.572 -0.4773  0.4028 -0.2434
  128OSM   H18F13806   4.199   5.707   8.637  0.2704  0.7403  0.9040
  128OSM   H18G13807   4.326   5.841   8.614  2.5164 -1.6686  1.1261
  128OSM   H18H13808   4.364   5.681   8.567  0.8430  1.9977 -0.1374
  129OSM      N13809   0.836   4.153   6.329  0.7441 -0.1657  0.0344
  129OSM    C1513810   0.946   4.257   6.348 -0.1774  0.5153  0.5953
  129OSM   H15A13811   0.942   4.304   6.445  1.6789  1.2000  0.3713
  129OSM   H15B13812   0.941   4.340   6.280 -0.6698  1.8743  2.2103
  129OSM   H15C13813   1.044   4.213   6.338  1.0398  3.2454 -0.5356
  129OSM    C1413814   0.705   4.218   6.355  0.0946  0.0513  0.2214
  129OSM   H14A13815   0.630   4.141   6.346  0.1163 -0.0725  1.0614
  129OSM   H14B13816   0.696   4.308   6.296  4.3429 -1.2146 -2.8390
  129OSM   H14C13817   0.704   4.245   6.459  0.4214 -2.3327  0.9082
  129OSM    C1313818   0.831   4.109   6.187  0.4097  0.8285  0.3567
  129OSM   H13A13819   0.847   4.199   6.130 -0.8448  1.2105  0.5828
  129OSM   H13B13820   0.742   4.055   6.157  0.7076 -0.9475  2.4703
  129OSM   H13C13821   0.906   4.032   6.175 -0.0255  0.4504 -0.0302
  129OSM    C1213822   0.854   4.042   6.422  0.3328 -0.7168  0.0051
  129OSM   H12A13823   0.758   4.000   6.452  0.6554  0.2503  2.6851
  129OSM   H12B13824   0.894   4.080   6.515  0.2890  1.4715 -0.8175
  129OSM    C1113825   0.961   3.937   6.376  0.1726 -0.4232  0.2595
  129OSM   H11A13826   0.989   3.882   6.468  1.2920 -0.6481 -0.2130
  129OSM   H11B13827   1.047   3.996   6.339  0.5828 -1.3671 -0.3062
  129OSM      P13828   0.801   3.751   6.286  0.3426  0.5364  0.1872
  129OSM    O1313829   0.676   3.830   6.304 -0.1611  0.0862  0.3315
  129OSM    O1413830   0.804   3.651   6.175 -0.1046  0.3597 -0.4188
  129OSM    O1113831   0.838   3.673   6.421 -0.5654  0.0300 -0.1039
  129OSM    O1213832   0.921   3.855   6.263 -0.3041  0.5245  0.7805
  129OSM    C1S13833   0.734   3.644   6.513  0.2423  0.3765  0.2558
  129OSM    H1S13834   0.654   3.588   6.459 -0.0130  0.7702  0.2179
  129OSM    H1T13835   0.683   3.740   6.535 -0.0092  0.9659 -2.4901
  129OSM     NF13836   0.665   3.481   6.698  0.3299 -0.1340  0.0728
  129OSM    HNF13837   0.662   3.505   6.795 -0.6053  3.1484 -0.6428
  129OSM    C2S13838   0.777   3.545   6.631 -0.6548 -0.3797 -0.0348
  129OSM    H2S13839   0.844   3.466   6.591  1.2858 -0.3133  2.7615
  129OSM    C3S13840   0.873   3.627   6.725  0.0535  0.6676 -0.1013
  129OSM    H3S13841   0.807   3.689   6.789 -0.6989  0.0372 -0.2419
  129OSM     O313842   0.964   3.712   6.657 -0.6872  0.5649 -0.4218
  129OSM    HO313843   0.929   3.726   6.568  0.2401 -0.5612 -0.9854
  129OSM    C4S13844   0.945   3.534   6.831  0.1879 -0.5143 -0.6557
  129OSM    H4S13845   0.905   3.541   6.933 -0.4800  0.8878 -0.9976
  129OSM    C5S13846   1.062   3.463   6.818 -1.2669 -0.1128 -0.1869
  129OSM    H5S13847   1.121   3.465   6.725  0.2202  1.7942  0.7127
  129OSM    C6S13848   1.119   3.370   6.923 -0.0174  0.6562 -0.6585
  129OSM    H6S13849   1.214   3.412   6.962 -0.6200  0.3997  1.1655
  129OSM    H6T13850   1.136   3.271   6.877 -1.8399  1.3571 -3.0450
  129OSM    C7S13851   1.038   3.354   7.056 -0.2401 -0.9802 -0.2745
  129OSM    H7S13852   0.932   3.325   7.042 -1.0858  0.1211  2.8671
  129OSM    H7T13853   1.022   3.456   7.097  0.2646 -0.9077 -0.2496
  129OSM    C8S13854   1.117   3.270   7.163  0.1176  0.2849  0.8592
  129OSM    H8S13855   1.224   3.294   7.146 -0.4911  1.1701 -2.2115
  129OSM    H8T13856   1.102   3.165   7.130  0.5837  0.2824  0.6440
  129OSM    C9S13857   1.076   3.275   7.313 -0.3120 -1.0429 -0.4125
  129OSM    H9S13858   0.965   3.278   7.323 -0.4279 -3.0417 -0.7832
  129OSM    H9T13859   1.119   3.371   7.350  0.1775 -1.0521 -0.9524
  129OSM   C10S13860   1.132   3.162   7.403  0.0910 -0.3032 -0.6334
  129OSM   H10S13861   1.243   3.155   7.404  0.5482  3.6930  1.5301
  129OSM   H10T13862   1.097   3.067   7.358  0.5812  0.2395 -2.2472
  129OSM   C11S13863   1.085   3.158   7.550  0.5171  0.0570 -0.2690
  129OSM   H11S13864   0.976   3.139   7.551 -0.0803  2.9617 -0.4078
  129OSM   H11T13865   1.095   3.260   7.592 -1.1272  0.6791 -1.2957
  129OSM   C12S13866   1.173   3.053   7.624 -0.2443  0.8493 -0.5996
  129OSM   H12S13867   1.283   3.071   7.622  0.2026 -1.4579 -2.6471
  129OSM   H12T13868   1.155   2.957   7.570  0.4964  1.0677 -1.2614
  129OSM   C13S13869   1.135   3.026   7.772 -0.3886  0.8201  1.2317
  129OSM   H13S13870   1.028   3.044   7.794 -0.5352  0.8674  0.4877
  129OSM   H13T13871   1.173   3.109   7.836 -0.2013  0.0674  2.1186
  129OSM   C14S13872   1.184   2.899   7.826  0.3232  0.0953 -0.0469
  129OSM   H14S13873   1.285   2.878   7.785  2.3071  0.5885  4.0287
  129OSM   H14T13874   1.132   2.806   7.794  2.0056  0.2012 -3.4538
  129OSM   C15S13875   1.211   2.895   7.982 -0.0831  0.2474 -0.0941
  129OSM   H15S13876   1.108   2.902   8.025 -0.6347 -1.1286 -1.0825
  129OSM   H15T13877   1.277   2.981   8.006 -0.5497  1.5969 -3.0944
  129OSM   C16S13878   1.262   2.755   8.041  0.1465 -0.1067 -0.2150
  129OSM   H16S13879   1.353   2.726   7.985 -1.1405 -0.7414 -2.0922
  129OSM   H16T13880   1.195   2.668   8.026  2.0344 -1.4668 -1.1179
  129OSM   C17S13881   1.287   2.767   8.188 -0.2319  0.1363  0.7399
  129OSM   H17S13882   1.188   2.783   8.235 -0.7573 -0.7187 -0.0325
  129OSM   H17T13883   1.357   2.853   8.196 -1.6870  1.7792 -2.3101
  129OSM   C18S13884   1.351   2.640   8.238 -0.6338 -0.2391 -0.8812
  129OSM   H18S13885   1.382   2.645   8.345  1.6941 -1.1695 -1.4649
  129OSM   H18T13886   1.447   2.603   8.197  0.5115  0.3267  1.1322
  129OSM   H18U13887   1.279   2.557   8.223  0.1514 -0.8749 -1.1826
  129OSM    C1F13888   0.589   3.385   6.644  0.7083  0.4558 -0.7009
  129OSM     OF13889   0.605   3.365   6.524  0.4233 -0.1803  0.3297
  129OSM    C2F13890   0.488   3.313   6.728 -0.0773  0.5144 -0.5001
  129OSM    H2F13891   0.385   3.333   6.693  0.1128  1.4995 -0.5396
  129OSM    H2G13892   0.498   3.349   6.833 -3.0457  2.1579 -0.6770
  129OSM    C3F13893   0.515   3.160   6.720  0.2328 -0.9620 -0.1008
  129OSM    H3F13894   0.484   3.124   6.620 -0.5249 -1.8855  0.4379
  129OSM    H3G13895   0.443   3.113   6.791 -0.8430 -0.7259 -1.0024
  129OSM    C4F13896   0.664   3.124   6.744  0.8328 -0.2722 -0.1401
  129OSM    H4F13897   0.723   3.149   6.653 -1.1243  1.4736 -0.9888
  129OSM    H4G13898   0.661   3.013   6.732  0.9512 -0.2105 -0.7610
  129OSM    C5F13899   0.742   3.150   6.880 -0.5662  0.3708  0.1963
  129OSM    H5F13900   0.723   3.248   6.928  0.5510  1.5512 -1.6732
  129OSM    H5G13901   0.853   3.144   6.878 -0.5661 -0.3733  1.3355
  129OSM    C6F13902   0.711   3.025   6.974 -0.7927 -0.4785  0.4011
  129OSM    H6F13903   0.758   2.934   6.932 -1.1370  0.0774 -1.2798
  129OSM    H6G13904   0.602   3.005   6.968 -0.4999 -2.4656  1.1103
  129OSM    C7F13905   0.752   3.055   7.120  0.4626  0.3576 -0.3513
  129OSM    H7F13906   0.717   3.156   7.151  0.6047 -0.6726  3.6230
  129OSM    H7G13907   0.862   3.064   7.134  0.5802 -0.4663 -0.6708
  129OSM    C8F13908   0.700   2.960   7.221  0.0095  0.4336  0.3129
  129OSM    H8F13909   0.590   2.949   7.224  0.1226 -0.4920  2.3541
  129OSM    H8G13910   0.734   3.011   7.314 -1.6698  1.2224  0.5164
  129OSM    C9F13911   0.759   2.818   7.198  0.5745 -1.0265 -0.4695
  129OSM    H9F13912   0.723   2.762   7.110  0.5913 -2.4141  0.3797
  129OSM   C10F13913   0.830   2.752   7.289 -0.8759 -0.5994  0.9792
  129OSM   H10F13914   0.872   2.656   7.256 -0.4979  0.5597 -2.3424
  129OSM   C11F13915   0.874   2.811   7.421 -0.2366  0.7636  0.5836
  129OSM   H11F13916   0.879   2.922   7.410 -3.2403  0.8600 -0.6903
  129OSM   H11G13917   0.968   2.759   7.449 -1.2761 -1.7727 -0.3612
  129OSM   C12F13918   0.786   2.776   7.535 -0.0074 -0.2015 -0.3497
  129OSM   H12F13919   0.786   2.667   7.555  2.8788 -0.3250 -0.5407
  129OSM   H12G13920   0.688   2.820   7.507 -0.2959 -0.0150  0.8849
  129OSM   C13F13921   0.837   2.842   7.664 -0.5657  0.1591  0.1328
  129OSM   H13F13922   0.834   2.953   7.669  2.2168  0.2660  0.7843
  129OSM   H13G13923   0.945   2.817   7.664 -0.9525 -1.8676  2.2243
  129OSM   C14F13924   0.759   2.787   7.787 -0.7511  0.1316  0.5930
  129OSM   H14F13925   0.648   2.783   7.779 -0.7906 -0.6360  1.3485
  129OSM   H14G13926   0.777   2.861   7.868 -1.4237 -0.1070  0.9711
  129OSM   C15F13927   0.811   2.659   7.846  0.2743 -0.5261  0.3993
  129OSM   H15F13928   0.911   2.684   7.887  0.3662 -1.7475  0.9789
  129OSM   H15G13929   0.812   2.580   7.768  0.5463 -2.4774  2.2740
  129OSM   C16F13930   0.734   2.617   7.971  0.2269 -0.1166 -0.0026
  129OSM   H16F13931   0.632   2.590   7.936  1.0891 -1.6617 -1.4820
  129OSM   H16G13932   0.718   2.705   8.037  1.4964 -0.0381  0.2276
  129OSM   C17F13933   0.788   2.503   8.054 -0.3747 -0.0020 -0.1886
  129OSM   H17F13934   0.804   2.413   7.991  1.6178  0.8344 -0.9369
  129OSM   H17G13935   0.714   2.471   8.131 -0.7610  1.7953  0.2316
  129OSM   C18F13936   0.911   2.534   8.138 -0.0616  1.0437  0.0115
  129OSM   H18F13937   0.904   2.623   8.204 -0.6957  0.4379  0.7806
  129OSM   H18G13938   0.996   2.528   8.066  0.7241  2.9009  0.7292
  129OSM   H18H13939   0.930   2.454   8.213  1.6142  2.6131  1.3352
  130OSM      N13940   6.093   5.135   6.145  0.7353  0.1768 -0.1556
  130OSM    C1513941   6.012   5.007   6.145 -0.1672  0.5357  0.4758
  130OSM   H15A13942   6.010   4.964   6.244 -0.8516  0.1541  0.3040
  130OSM   H15B13943   6.052   4.936   6.075  1.8086 -1.0063  2.9743
  130OSM   H15C13944   5.906   5.023   6.127 -0.4574 -2.6982 -1.4227
  130OSM    C1413945   6.241   5.089   6.141  0.2873  0.0330  0.1993
  130OSM   H14A13946   6.263   5.041   6.235  0.9976  0.0831  0.0659
  130OSM   H14B13947   6.309   5.168   6.113  0.2383  0.3909  1.0486
  130OSM   H14C13948   6.245   5.025   6.055  0.4807 -1.7597  1.4794
  130OSM    C1313949   6.058   5.193   6.014  0.7577  0.4120  0.0375
  130OSM   H13A13950   5.955   5.223   6.000  0.4460  0.2007  1.6655
  130OSM   H13B13951   6.077   5.125   5.931 -1.5192  0.3691 -0.5238
  130OSM   H13C13952   6.104   5.290   6.005 -1.2230  1.2909 -1.4715
  130OSM    C1213953   6.049   5.225   6.268 -0.9487  0.5120  0.0876
  130OSM   H12A13954   6.076   5.172   6.358 -1.8932 -1.4192 -0.7012
  130OSM   H12B13955   5.942   5.230   6.272 -0.9655  2.6535 -1.5277
  130OSM    C1113956   6.098   5.372   6.280 -0.3968  0.9097 -0.6751
  130OSM   H11A13957   6.205   5.377   6.251 -0.2118  0.7108 -0.0412
  130OSM   H11B13958   6.094   5.415   6.383  1.4812 -1.5167  0.4897
  130OSM      P13959   5.892   5.509   6.192 -0.0034  0.1463  0.3242
  130OSM    O1313960   5.879   5.626   6.103 -0.2861 -0.2744  0.9122
  130OSM    O1413961   5.811   5.385   6.163 -0.3822 -0.1905 -0.7611
  130OSM    O1113962   5.864   5.560   6.345  0.4639  0.3570 -0.2263
  130OSM    O1213963   6.043   5.465   6.193 -0.1018  0.2118  0.4501
  130OSM    C1S13964   5.730   5.603   6.383 -0.8437  0.0425 -0.5691
  130OSM    H1S13965   5.654   5.531   6.346 -2.2097  2.0451 -1.8249
  130OSM    H1T13966   5.712   5.705   6.343 -1.0838  0.1923 -0.0803
  130OSM     NF13967   5.584   5.647   6.569  0.3018  0.2216  0.2955
  130OSM    HNF13968   5.565   5.744   6.581 -0.0850 -0.0579  2.1220
  130OSM    C2S13969   5.722   5.613   6.533  0.0620 -0.2852 -0.2202
  130OSM    H2S13970   5.746   5.517   6.584  2.1589  0.1871 -0.2312
  130OSM    C3S13971   5.828   5.715   6.582  0.5416 -0.6535 -0.3521
  130OSM    H3S13972   5.794   5.817   6.554  2.1785 -0.6140 -2.4183
  130OSM     O313973   5.959   5.697   6.533 -0.4970  0.1726  0.1169
  130OSM    HO313974   5.949   5.627   6.467 -0.2715  2.3951 -2.4526
  130OSM    C4S13975   5.823   5.713   6.736 -0.0123 -0.5626 -0.1242
  130OSM    H4S13976   5.752   5.791   6.770 -0.6714 -0.9763 -0.5346
  130OSM    C5S13977   5.896   5.627   6.816  0.1696 -0.5533  0.1245
  130OSM    H5S13978   5.958   5.547   6.774 -1.1816 -1.5494 -0.0186
  130OSM    C6S13979   5.879   5.623   6.961 -0.4461 -0.5247 -0.3029
  130OSM    H6S13980   5.859   5.517   6.989 -0.8809 -0.7169 -1.2865
  130OSM    H6T13981   5.799   5.687   7.005  0.3272  0.5970 -0.5041
  130OSM    C7S13982   6.011   5.680   7.027 -0.4983 -0.0888 -0.0685
  130OSM    H7S13983   6.008   5.789   7.005 -0.5348  0.5001  2.5417
  130OSM    H7T13984   6.099   5.631   6.979 -1.5843 -1.2695 -0.9168
  130OSM    C8S13985   6.044   5.662   7.177  0.3941  0.7969 -0.1453
  130OSM    H8S13986   6.151   5.681   7.198  0.6034 -0.4497 -0.0135
  130OSM    H8T13987   6.025   5.556   7.203  0.9185  0.8646  0.5281
  130OSM    C9S13988   5.950   5.754   7.252  0.3218  0.2241  0.4978
  130OSM    H9S13989   5.846   5.735   7.218  0.2474  0.3833  0.6338
  130OSM    H9T13990   5.976   5.857   7.219  0.8183  0.4054  1.4296
  130OSM   C10S13991   5.968   5.753   7.407  0.3443  0.2150 -0.5791
  130OSM   H10S13992   5.916   5.840   7.455  0.5875  0.1339 -0.1672
  130OSM   H10T13993   6.072   5.763   7.444  0.0089 -0.8301  0.7105
  130OSM   C11S13994   5.899   5.628   7.463  0.2318  0.0258 -0.1738
  130OSM   H11S13995   5.882   5.551   7.385 -0.6802  0.7490 -0.7151
  130OSM   H11T13996   5.797   5.657   7.496  0.2526 -0.2071  0.1003
  130OSM   C12S13997   5.960   5.558   7.588  0.0510 -0.6227  0.1508
  130OSM   H12S13998   6.065   5.530   7.568  0.4865  1.1022 -0.1432
  130OSM   H12T13999   5.907   5.464   7.616  0.5603 -1.8593 -2.7275
  130OSM   C13S14000   5.965   5.660   7.704  1.1374  0.0450 -0.8964
  130OSM   H13S14001   5.868   5.711   7.720  0.1542 -2.5257  2.6000
  130OSM   H13T14002   6.037   5.742   7.685 -0.0526  1.7627  1.4478
  130OSM   C14S14003   5.992   5.599   7.847  0.0405  0.1150  0.3889
  130OSM   H14S14004   6.095   5.559   7.848 -0.8664 -2.4246 -0.0879
  130OSM   H14T14005   5.925   5.513   7.869  1.4891 -0.9777  0.7014
  130OSM   C15S14006   5.965   5.700   7.955  0.1618  0.2209  0.1577
  130OSM   H15S14007   5.870   5.756   7.940  0.4930  0.9644  0.7331
  130OSM   H15T14008   6.042   5.781   7.956 -0.9624  1.3250 -0.2460
  130OSM   C16S14009   5.975   5.622   8.093 -0.4650 -0.2925 -0.2225
  130OSM   H16S14010   6.077   5.582   8.110 -0.9160 -1.0994  0.6901
  130OSM   H16T14011   5.899   5.541   8.084  0.8081 -1.7392  1.4034
  130OSM   C17S14012   5.913   5.689   8.223 -0.2203  0.3633  0.1463
  130OSM   H17S14013   5.980   5.768   8.264  2.0249 -1.3695  0.0294
  130OSM   H17T14014   5.901   5.621   8.310 -1.5994  0.3810 -0.0128
  130OSM   C18S14015   5.781   5.753   8.199  0.0485 -0.7304  0.1652
  130OSM   H18S14016   5.786   5.851   8.148  1.5526 -1.1210 -0.5002
  130OSM   H18T14017   5.740   5.779   8.299  0.0214  1.7653 -0.4281
  130OSM   H18U14018   5.715   5.692   8.133  0.2955 -0.5384 -0.2620
  130OSM    C1F14019   5.479   5.556   6.545  0.1356 -0.2093  0.2376
  130OSM     OF14020   5.493   5.438   6.514 -0.0799 -0.3641 -0.1702
  130OSM    C2F14021   5.338   5.609   6.552 -0.5844 -0.3257  0.1284
  130OSM    H2F14022   5.311   5.650   6.452  2.3859 -2.3104 -1.6487
  130OSM    H2G14023   5.337   5.683   6.635  1.9880 -1.0124  0.8649
  130OSM    C3F14024   5.242   5.487   6.582 -0.3739 -0.3343  0.0075
  130OSM    H3F14025   5.257   5.398   6.516 -1.5472  0.1584 -0.9606
  130OSM    H3G14026   5.142   5.524   6.550  1.3271  2.3009 -2.7999
  130OSM    C4F14027   5.256   5.432   6.721 -0.1074  0.2154  0.3245
  130OSM    H4F14028   5.364   5.432   6.745  0.7551 -0.6040 -3.0545
  130OSM    H4G14029   5.217   5.327   6.717  2.1782 -0.6545 -2.9268
  130OSM    C5F14030   5.193   5.515   6.827 -0.0971  0.9771  0.2405
  130OSM    H5F14031   5.086   5.485   6.815  0.0795 -0.0674  1.1400
  130OSM    H5G14032   5.209   5.624   6.816  1.5860  0.7331  0.0156
  130OSM    C6F14033   5.239   5.472   6.970  0.0068 -0.4227  0.3208
  130OSM    H6F14034   5.345   5.503   6.985 -0.2188  0.9920 -0.8452
  130OSM    H6G14035   5.233   5.361   6.974  0.6592 -0.5448 -1.2725
  130OSM    C7F14036   5.133   5.531   7.064  0.3681  1.1527 -0.0615
  130OSM    H7F14037   5.045   5.466   7.046  1.3346 -0.3739  0.5335
  130OSM    H7G14038   5.102   5.634   7.036 -0.4636  0.9773  0.2107
  130OSM    C8F14039   5.174   5.525   7.212 -0.3655 -0.8241 -0.7585
  130OSM    H8F14040   5.095   5.584   7.265  1.8497  1.8662 -0.1901
  130OSM    H8G14041   5.275   5.569   7.228  0.5176 -1.3218 -4.2579
  130OSM    C9F14042   5.179   5.396   7.273  0.5586 -0.1510  0.1459
  130OSM    H9F14043   5.187   5.318   7.195 -1.2621  0.3600 -0.5917
  130OSM   C10F14044   5.195   5.373   7.404  0.1607 -0.4235  0.2885
  130OSM   H10F14045   5.214   5.271   7.441 -1.8114 -0.8010  0.4027
  130OSM   C11F14046   5.196   5.488   7.506 -1.1529 -0.2501 -0.1982
  130OSM   H11F14047   5.186   5.590   7.463  1.1757 -0.1732 -0.6727
  130OSM   H11G14048   5.294   5.483   7.558 -1.4939 -0.2223  0.4721
  130OSM   C12F14049   5.088   5.468   7.615  0.1735 -0.2349 -0.0903
  130OSM   H12F14050   4.990   5.469   7.562  0.0605 -2.2745  0.0205
  130OSM   H12G14051   5.095   5.559   7.679 -0.8185  1.0707 -1.7611
  130OSM   C13F14052   5.106   5.346   7.697 -0.0081  0.6812 -0.6916
  130OSM   H13F14053   5.210   5.358   7.735 -0.4055  0.8441  0.3768
  130OSM   H13G14054   5.091   5.253   7.638 -0.9930 -0.1000  0.7269
  130OSM   C14F14055   5.017   5.360   7.821 -0.0961  0.7863  0.4508
  130OSM   H14F14056   4.913   5.371   7.785 -1.1654 -1.6129  2.5141
  130OSM   H14G14057   5.058   5.452   7.868  2.5812  0.7593 -1.5577
  130OSM   C15F14058   5.034   5.247   7.915  0.4559 -0.4332  0.1788
  130OSM   H15F14059   5.141   5.241   7.945  1.5549  1.1194 -2.9561
  130OSM   H15G14060   5.021   5.145   7.871  3.6917 -0.5156 -0.8878
  130OSM   C16F14061   4.956   5.267   8.047 -0.3701  0.0716 -0.5950
  130OSM   H16F14062   4.857   5.299   8.005  0.4577  1.5375 -1.5466
  130OSM   H16G14063   4.996   5.354   8.103 -1.3824  1.5310 -2.0180
  130OSM   C17F14064   4.965   5.139   8.135 -0.2397  0.5401 -0.1604
  130OSM   H17F14065   5.070   5.109   8.156 -0.4707  1.0221  1.9537
  130OSM   H17G14066   4.919   5.061   8.072  2.6166 -0.4625 -1.1662
  130OSM   C18F14067   4.886   5.131   8.277 -0.2150  0.1826  0.6177
  130OSM   H18F14068   4.950   5.189   8.347  1.5327  1.1072 -1.5799
  130OSM   H18G14069   4.873   5.030   8.320 -1.1960 -0.4867 -1.1153
  130OSM   H18H14070   4.783   5.172   8.280 -0.2597 -0.0148  2.4900
  131OSM      N14071   1.650   0.522   5.710 -0.2563  0.2144 -0.5469
  131OSM    C1514072   1.687   0.398   5.635  0.1139  0.5557  0.3264
  131OSM   H15A14073   1.743   0.320   5.686  1.2945  0.5288 -0.9681
  131OSM   H15B14074   1.737   0.432   5.546 -0.5591  1.5515  0.3149
  131OSM   H15C14075   1.598   0.352   5.596  0.9435 -0.2712 -0.6608
  131OSM    C1414076   1.586   0.611   5.612 -0.1541  0.0979 -0.6315
  131OSM   H14A14077   1.541   0.692   5.666 -1.2470 -0.9769  0.1001
  131OSM   H14B14078   1.506   0.556   5.564  0.1093 -0.1477 -0.7936
  131OSM   H14C14079   1.667   0.632   5.543  1.8358  0.9632  1.8144
  131OSM    C1314080   1.551   0.484   5.816  0.2055  0.2692 -0.1301
  131OSM   H13A14081   1.597   0.412   5.882 -1.3519 -1.9230 -1.3046
  131OSM   H13B14082   1.471   0.428   5.770  1.7348 -2.5317  0.3998
  131OSM   H13C14083   1.506   0.562   5.876  1.0876 -0.6381  1.7661
  131OSM    C1214084   1.774   0.580   5.778 -0.2761  0.1545  0.8043
  131OSM   H12A14085   1.846   0.607   5.702 -0.2337  0.4272  0.9439
  131OSM   H12B14086   1.822   0.508   5.842  0.8246 -0.4867 -0.6647
  131OSM    C1114087   1.749   0.705   5.864  0.0393 -0.2365  0.7061
  131OSM   H11A14088   1.850   0.738   5.896 -0.0038  1.2174 -0.5356
  131OSM   H11B14089   1.694   0.680   5.958 -2.0388 -0.9315 -0.6222
  131OSM      P14090   1.761   0.912   5.709  0.5514 -0.2400 -0.2939
  131OSM    O1314091   1.845   0.834   5.617  0.0318  0.3199 -0.2173
  131OSM    O1414092   1.667   1.013   5.656 -0.0840  0.2087 -0.2291
  131OSM    O1114093   1.845   0.977   5.823 -0.4110 -0.6521  0.1399
  131OSM    O1214094   1.680   0.804   5.794  0.1685 -0.0747  0.4272
  131OSM    C1S14095   1.841   1.104   5.885 -0.0224 -0.0962  0.3981
  131OSM    H1S14096   1.735   1.135   5.886 -0.1550 -0.3821 -1.5530
  131OSM    H1T14097   1.905   1.182   5.838  0.1676 -0.7733 -0.5029
  131OSM     NF14098   1.869   1.212   6.106  0.0733  0.1224 -0.2448
  131OSM    HNF14099   1.933   1.288   6.113 -0.8414  0.9617 -0.8638
  131OSM    C2S14100   1.903   1.093   6.029  0.3156 -0.1670 -0.0872
  131OSM    H2S14101   1.851   1.006   6.075 -0.5974 -0.6985 -1.9989
  131OSM    C3S14102   2.054   1.057   6.015 -0.2238  0.6773 -0.0535
  131OSM    H3S14103   2.108   1.146   5.977 -0.0813 -0.7787 -3.6054
  131OSM     O314104   2.102   0.967   5.917  0.2315  0.8817 -0.5452
  131OSM    HO314105   2.034   0.956   5.851  0.3772 -1.3652 -0.3908
  131OSM    C4S14106   2.108   1.014   6.155  0.4134  0.0897  0.5181
  131OSM    H4S14107   2.123   1.099   6.224  0.8124  0.3787  0.0874
  131OSM    C5S14108   2.112   0.888   6.212  0.0713 -0.6325 -0.1063
  131OSM    H5S14109   2.055   0.812   6.156  0.7965 -1.7663  0.6644
  131OSM    C6S14110   2.145   0.847   6.355  0.1172 -0.2439  0.3137
  131OSM    H6S14111   2.237   0.785   6.353  0.2451 -0.0413 -0.3857
  131OSM    H6T14112   2.058   0.798   6.403 -1.1649  0.5220 -1.1370
  131OSM    C7S14113   2.158   0.972   6.446  0.0702 -0.2236  0.5091
  131OSM    H7S14114   2.068   1.038   6.443 -0.0244 -0.3142  1.1969
  131OSM    H7T14115   2.239   1.045   6.425 -0.7397  0.9282  1.2694
  131OSM    C8S14116   2.166   0.945   6.590  0.2910 -0.5023 -0.2031
  131OSM    H8S14117   2.077   0.898   6.638  0.6962 -0.1701  0.8968
  131OSM    H8T14118   2.198   1.032   6.651  2.0414  0.2023 -2.0037
  131OSM    C9S14119   2.278   0.847   6.632  0.1944  0.0794  0.1436
  131OSM    H9S14120   2.355   0.855   6.552  1.4179 -0.5993  1.1952
  131OSM    H9T14121   2.227   0.749   6.621  2.3065 -1.2247  1.2020
  131OSM   C10S14122   2.331   0.870   6.772 -0.3833 -0.9275  0.5482
  131OSM   H10S14123   2.246   0.872   6.842 -2.0933 -1.5387 -1.4211
  131OSM   H10T14124   2.393   0.962   6.782 -1.0906 -0.5137  1.1876
  131OSM   C11S14125   2.432   0.752   6.812  0.1348 -0.3815  0.9635
  131OSM   H11S14126   2.534   0.788   6.785 -0.1224 -0.7653 -0.6283
  131OSM   H11T14127   2.406   0.664   6.750 -0.5413  0.5089 -0.0528
  131OSM   C12S14128   2.434   0.718   6.960  0.7778  0.0678  0.7307
  131OSM   H12S14129   2.513   0.643   6.981 -1.3059 -2.4134  0.3456
  131OSM   H12T14130   2.331   0.680   6.975 -0.5170  2.6797 -0.7907
  131OSM   C13S14131   2.455   0.840   7.048 -0.0820  1.1581  0.1607
  131OSM   H13S14132   2.392   0.928   7.023 -0.4608  0.6037 -0.8973
  131OSM   H13T14133   2.560   0.866   7.024  0.6778 -1.3560  0.3989
  131OSM   C14S14134   2.449   0.813   7.201 -0.0829 -0.0751 -0.4764
  131OSM   H14S14135   2.523   0.737   7.234  0.4201  0.2173 -0.9012
  131OSM   H14T14136   2.353   0.761   7.220  0.0315 -0.5935 -1.2650
  131OSM   C15S14137   2.449   0.938   7.290  1.0039  0.4203  0.2447
  131OSM   H15S14138   2.374   1.008   7.247  0.4657  0.6438  1.4862
  131OSM   H15T14139   2.546   0.988   7.271  0.6883  0.4645 -1.3355
  131OSM   C16S14140   2.436   0.909   7.438 -0.4840 -0.6335 -0.5835
  131OSM   H16S14141   2.516   0.835   7.458  0.1450 -0.0316 -0.8630
  131OSM   H16T14142   2.339   0.857   7.456 -0.0332 -1.1209  0.5394
  131OSM   C17S14143   2.467   1.033   7.521 -0.7354  0.4294 -0.3994
  131OSM   H17S14144   2.568   1.070   7.490 -1.5337 -0.6481 -4.9963
  131OSM   H17T14145   2.473   1.009   7.629  2.5759  0.8589 -0.3789
  131OSM   C18S14146   2.367   1.149   7.518  0.1047  0.2190  0.0168
  131OSM   H18S14147   2.394   1.206   7.609 -2.8951 -0.4632  1.4648
  131OSM   H18T14148   2.265   1.110   7.538  0.3161  0.6975  2.2747
  131OSM   H18U14149   2.382   1.197   7.419  2.3677 -1.5196 -0.5835
  131OSM    C1F14150   1.758   1.222   6.173  0.2695 -0.4745  0.4227
  131OSM     OF14151   1.658   1.153   6.140 -0.4398 -0.5417 -0.3562
  131OSM    C2F14152   1.751   1.330   6.281 -0.0372 -0.7059  0.3642
  131OSM    H2F14153   1.760   1.426   6.224  4.6029 -0.0672  1.7812
  131OSM    H2G14154   1.843   1.312   6.341  0.4703 -1.1777 -0.5380
  131OSM    C3F14155   1.640   1.313   6.384 -0.0573 -0.2048  0.5367
  131OSM    H3F14156   1.639   1.206   6.414 -1.0197 -1.5981 -3.7041
  131OSM    H3G14157   1.546   1.317   6.324  0.9552 -0.9063 -1.1854
  131OSM    C4F14158   1.649   1.410   6.501 -0.1252 -0.7197  0.0246
  131OSM    H4F14159   1.654   1.507   6.448 -1.9265 -1.3741 -1.4440
  131OSM    H4G14160   1.740   1.392   6.563  0.7726  1.2331 -0.6446
  131OSM    C5F14161   1.533   1.398   6.598 -0.6271 -0.1816  0.8634
  131OSM    H5F14162   1.531   1.295   6.640  1.1804 -0.1777  1.0075
  131OSM    H5G14163   1.434   1.419   6.551  0.4842 -0.4446 -1.7673
  131OSM    C6F14164   1.555   1.485   6.728 -0.1871 -0.1467 -0.0262
  131OSM    H6F14165   1.581   1.585   6.689  1.3097 -0.6561 -0.3839
  131OSM    H6G14166   1.656   1.461   6.769  0.6454  1.4487 -1.0700
  131OSM    C7F14167   1.441   1.487   6.815  0.3600 -0.2942 -0.4368
  131OSM    H7F14168   1.344   1.516   6.769 -0.3641 -0.4010  0.9488
  131OSM    H7G14169   1.455   1.562   6.896 -0.2279  0.4666 -1.0234
  131OSM    C8F14170   1.430   1.354   6.897  0.7239  0.3923  0.6657
  131OSM    H8F14171   1.427   1.266   6.829  0.3251 -0.5903  1.9072
  131OSM    H8G14172   1.332   1.351   6.949  1.6255 -2.7098  2.4786
  131OSM    C9F14173   1.545   1.330   6.995 -0.0727 -0.2231 -0.0277
  131OSM    H9F14174   1.643   1.350   6.950  0.1629  0.9057  0.9447
  131OSM   C10F14175   1.536   1.276   7.116  0.0144 -0.5098 -0.0310
  131OSM   H10F14176   1.630   1.272   7.173  0.1784 -0.3739 -0.2875
  131OSM   C11F14177   1.412   1.229   7.193 -0.2397  0.7460  0.4124
  131OSM   H11F14178   1.418   1.121   7.218 -2.0388  0.2056 -1.2890
  131OSM   H11G14179   1.318   1.230   7.134 -1.5723 -1.8571  2.2931
  131OSM   C12F14180   1.387   1.296   7.337 -0.7075  0.3999  0.3155
  131OSM   H12F14181   1.300   1.252   7.391 -1.3527  1.1987 -0.0492
  131OSM   H12G14182   1.361   1.402   7.319  1.0661  0.3388 -4.0220
  131OSM   C13F14183   1.501   1.275   7.447  0.6327 -0.0138  0.1527
  131OSM   H13F14184   1.587   1.335   7.412 -0.0320  1.0712  0.3155
  131OSM   H13G14185   1.519   1.167   7.468 -5.6063 -1.5610 -0.4106
  131OSM   C14F14186   1.460   1.323   7.581 -0.0740 -0.2548  0.5799
  131OSM   H14F14187   1.373   1.262   7.612  0.7390 -0.8760  1.7158
  131OSM   H14G14188   1.432   1.429   7.564  3.0165  0.4263 -1.0437
  131OSM   C15F14189   1.573   1.317   7.689 -0.5186  0.0554 -0.5248
  131OSM   H15F14190   1.642   1.396   7.653 -0.8059  0.8748  0.6719
  131OSM   H15G14191   1.634   1.225   7.705  0.1292  0.4158 -0.9104
  131OSM   C16F14192   1.528   1.350   7.832 -0.5032  0.2688  0.0433
  131OSM   H16F14193   1.497   1.456   7.850  1.9388  1.2346 -0.9601
  131OSM   H16G14194   1.617   1.347   7.897  0.1622 -1.0277 -0.8931
  131OSM   C17F14195   1.417   1.258   7.889 -0.4931 -0.0343  0.0474
  131OSM   H17F14196   1.353   1.215   7.809 -0.5952 -0.6677  0.4664
  131OSM   H17G14197   1.358   1.324   7.956  1.1869  1.6779 -0.0880
  131OSM   C18F14198   1.474   1.141   7.962  0.1182  0.3021  0.2702
  131OSM   H18F14199   1.545   1.086   7.898  0.7912 -0.0527  1.2954
  131OSM   H18G14200   1.390   1.081   8.003  1.1043 -0.8787  0.5973
  131OSM   H18H14201   1.529   1.173   8.053  1.2657 -2.2270  0.5389
  132OSM      N14202   5.028   2.940   6.260  0.2314 -0.0047 -0.0714
  132OSM    C1514203   5.054   2.799   6.299 -0.3480  0.3919  0.1872
  132OSM   H15A14204   5.110   2.745   6.224  1.5616  1.4195  0.7969
  132OSM   H15B14205   4.964   2.754   6.339 -0.1318 -1.1540 -0.9901
  132OSM   H15C14206   5.125   2.808   6.380  1.6183 -0.3594 -1.3685
  132OSM    C1414207   5.162   3.004   6.251  0.3167 -0.3457 -0.1566
  132OSM   H14A14208   5.233   2.952   6.188 -0.8280 -0.4366 -1.4142
  132OSM   H14B14209   5.200   3.013   6.352 -2.1936 -0.7615  0.8810
  132OSM   H14C14210   5.145   3.101   6.207 -0.5985 -0.5324 -0.2255
  132OSM    C1314211   4.957   2.943   6.131  0.5525  1.1744  0.2991
  132OSM   H13A14212   4.933   3.041   6.092  1.6736  1.1095 -0.6102
  132OSM   H13B14213   4.864   2.888   6.132  1.7234 -0.9086  0.6961
  132OSM   H13C14214   5.019   2.908   6.050 -1.2487 -2.4726  0.2716
  132OSM    C1214215   4.940   3.010   6.372  0.0832 -0.6515  1.0883
  132OSM   H12A14216   4.980   2.993   6.471 -1.6824 -0.8000  1.8216
  132OSM   H12B14217   4.844   2.960   6.367 -0.4469  0.4768 -1.1241
  132OSM    C1114218   4.909   3.157   6.363  0.1255 -0.2659 -0.6390
  132OSM   H11A14219   5.005   3.204   6.333 -1.0013  0.6529 -3.0433
  132OSM   H11B14220   4.885   3.206   6.459  1.8156 -0.6675  0.0117
  132OSM      P14221   4.667   3.197   6.298  0.1795  0.3522 -0.6112
  132OSM    O1314222   4.633   3.336   6.266 -0.8596 -0.4147  0.0985
  132OSM    O1414223   4.602   3.091   6.220 -0.1208  0.1150  0.4698
  132OSM    O1114224   4.662   3.169   6.456  0.3989  1.2617 -0.3529
  132OSM    O1214225   4.816   3.182   6.265  0.2230  0.0202 -0.2433
  132OSM    C1S14226   4.534   3.146   6.518 -0.1184  0.2968  0.1453
  132OSM    H1S14227   4.474   3.059   6.484  1.0902 -0.0485 -1.1973
  132OSM    H1T14228   4.468   3.234   6.502 -1.4644 -0.8371 -0.7953
  132OSM     NF14229   4.420   3.137   6.740  0.2496 -0.1765 -0.2559
  132OSM    HNF14230   4.390   3.228   6.767 -0.2516 -0.8696  1.7762
  132OSM    C2S14231   4.550   3.123   6.675  0.1467  1.0651  0.3080
  132OSM    H2S14232   4.592   3.023   6.696  1.0681  0.5960 -3.1408
  132OSM    C3S14233   4.654   3.216   6.740 -0.3463 -0.0991 -0.3762
  132OSM    H3S14234   4.633   3.322   6.714  0.2388 -0.4432 -2.4367
  132OSM     O314235   4.794   3.186   6.702  0.7394  0.2086 -0.0481
  132OSM    HO314236   4.770   3.136   6.624  0.7176 -1.7174  1.1127
  132OSM    C4S14237   4.659   3.210   6.890 -0.1136  0.4985  0.2167
  132OSM    H4S14238   4.705   3.122   6.937  0.9947  1.0987  0.3102
  132OSM    C5S14239   4.640   3.315   6.969 -0.1447 -0.3639  0.0122
  132OSM    H5S14240   4.605   3.409   6.925  0.1392  0.9325  2.3545
  132OSM    C6S14241   4.653   3.335   7.118 -0.0930 -0.0928  0.0588
  132OSM    H6S14242   4.550   3.343   7.158  0.0306 -0.5198  0.4839
  132OSM    H6T14243   4.706   3.431   7.135  2.6596 -1.3741 -0.7821
  132OSM    C7S14244   4.712   3.207   7.196  0.1303 -0.2359  0.4711
  132OSM    H7S14245   4.809   3.187   7.147  0.3213 -0.7978  1.0629
  132OSM    H7T14246   4.646   3.118   7.185  1.4545 -1.5704  2.6220
  132OSM    C8S14247   4.742   3.233   7.345  0.6486  0.4855  1.1825
  132OSM    H8S14248   4.640   3.230   7.390 -0.5120 -3.8444 -1.1915
  132OSM    H8T14249   4.774   3.338   7.360 -0.7354  0.9966  0.6534
  132OSM    C9S14250   4.817   3.121   7.411  0.4491  0.8133 -0.2554
  132OSM    H9S14251   4.919   3.113   7.367  0.4828 -3.1456  0.1260
  132OSM    H9T14252   4.781   3.017   7.392  2.1434  0.5086 -2.1301
  132OSM   C10S14253   4.812   3.145   7.567 -0.2669 -0.3701  0.2542
  132OSM   H10S14254   4.784   3.249   7.594 -0.3838 -0.4673  0.5101
  132OSM   H10T14255   4.913   3.126   7.609 -0.2497 -0.9567 -0.0420
  132OSM   C11S14256   4.715   3.049   7.639 -0.0148  0.0397 -0.2250
  132OSM   H11S14257   4.753   2.945   7.626  0.0781 -0.0142  0.4226
  132OSM   H11T14258   4.616   3.035   7.591 -0.0900 -1.8114  0.3740
  132OSM   C12S14259   4.728   3.065   7.793  0.4225  0.0079  0.1136
  132OSM   H12S14260   4.671   3.155   7.821  4.0262  3.0950 -1.5341
  132OSM   H12T14261   4.835   3.084   7.819 -0.1345  1.9133  1.2129
  132OSM   C13S14262   4.673   2.934   7.873 -0.2806  0.0241 -0.4173
  132OSM   H13S14263   4.717   2.845   7.825  1.4551  0.5544  0.1204
  132OSM   H13T14264   4.562   2.932   7.859 -0.1555 -1.3358 -1.3287
  132OSM   C14S14265   4.709   2.925   8.022 -0.0190  0.2989  0.5823
  132OSM   H14S14266   4.675   3.013   8.082  1.3890  0.4902  1.1420
  132OSM   H14T14267   4.820   2.928   8.030 -0.0181 -0.5618  1.0101
  132OSM   C15S14268   4.669   2.791   8.078  0.4267 -0.2653  0.2495
  132OSM   H15S14269   4.729   2.706   8.039 -1.5933 -2.5714  1.8398
  132OSM   H15T14270   4.567   2.765   8.042  0.4638  0.1094 -0.1178
  132OSM   C16S14271   4.693   2.770   8.227  0.8221  0.0669  0.1697
  132OSM   H16S14272   4.615   2.827   8.281 -0.0223 -0.1662 -0.7789
  132OSM   H16T14273   4.791   2.808   8.264  1.4783 -1.6458  0.2827
  132OSM   C17S14274   4.686   2.623   8.256  0.8119  0.4685  0.0509
  132OSM   H17S14275   4.702   2.600   8.363  0.3609  1.2992  0.3089
  132OSM   H17T14276   4.770   2.573   8.204  0.6465 -0.4295  0.6369
  132OSM   C18S14277   4.548   2.561   8.221  0.0806 -0.3735 -0.4732
  132OSM   H18S14278   4.459   2.621   8.251 -0.6023 -1.1967 -0.8053
  132OSM   H18T14279   4.541   2.462   8.272  2.7135 -0.6615 -0.5162
  132OSM   H18U14280   4.543   2.553   8.111  0.6657 -0.0240 -0.5277
  132OSM    C1F14281   4.335   3.034   6.738 -0.1494  0.1555  0.4969
  132OSM     OF14282   4.374   2.931   6.679  0.4421 -0.3020  0.0422
  132OSM    C2F14283   4.203   3.043   6.800 -0.2803 -0.0539  0.4414
  132OSM    H2F14284   4.137   2.965   6.755  0.2309 -0.3615  0.2225
  132OSM    H2G14285   4.154   3.141   6.777  0.3029  0.1316 -0.0338
  132OSM    C3F14286   4.204   3.035   6.954  0.3759  0.0982  0.5009
  132OSM    H3F14287   4.104   3.056   6.996  0.2718  0.3506  0.1380
  132OSM    H3G14288   4.281   3.107   6.989  1.6338 -1.0801  0.2731
  132OSM    C4F14289   4.261   2.898   7.013  0.3214  0.0686  0.5777
  132OSM    H4F14290   4.355   2.861   6.967 -0.6321 -0.8021 -0.7538
  132OSM    H4G14291   4.181   2.824   6.994  0.6513  0.2695 -1.9577
  132OSM    C5F14292   4.282   2.907   7.160 -0.1932 -0.3728 -0.9209
  132OSM    H5F14293   4.308   2.811   7.208 -0.7102 -0.9141 -1.6985
  132OSM    H5G14294   4.196   2.939   7.223 -1.0866  0.7106 -2.6147
  132OSM    C6F14295   4.403   2.996   7.196  0.2161  0.2974 -0.2996
  132OSM    H6F14296   4.393   3.105   7.177 -0.9742 -0.2043 -2.8610
  132OSM    H6G14297   4.482   2.960   7.127 -1.2139 -3.0579 -0.3867
  132OSM    C7F14298   4.464   2.968   7.334  0.1437 -0.3523 -0.1396
  132OSM    H7F14299   4.554   3.033   7.345 -0.8667  0.8397  1.6765
  132OSM    H7G14300   4.498   2.863   7.342 -0.1501 -0.5178 -0.9392
  132OSM    C8F14301   4.377   2.995   7.457 -0.1532  0.2570  0.0983
  132OSM    H8F14302   4.433   2.948   7.541 -0.2296  1.9683  1.1545
  132OSM    H8G14303   4.290   2.927   7.445  1.5664 -1.7732 -1.7946
  132OSM    C9F14304   4.344   3.141   7.463  0.8805 -0.4545  0.6010
  132OSM    H9F14305   4.296   3.189   7.376  0.1011 -0.1530  1.1836
  132OSM   C10F14306   4.350   3.223   7.575  0.1924 -0.7856 -0.3428
  132OSM   H10F14307   4.338   3.332   7.568  0.1664 -0.6979  0.8271
  132OSM   C11F14308   4.392   3.184   7.718 -0.7271  0.3378 -0.2596
  132OSM   H11F14309   4.475   3.252   7.748 -1.0083 -0.0571  1.5296
  132OSM   H11G14310   4.428   3.080   7.735 -0.2947  0.2448 -1.6103
  132OSM   C12F14311   4.297   3.210   7.832  0.4449  0.4618 -0.2369
  132OSM   H12F14312   4.213   3.144   7.801  1.7055 -3.0540  2.9478
  132OSM   H12G14313   4.269   3.317   7.837  0.6593  0.4799  0.7967
  132OSM   C13F14314   4.339   3.181   7.977 -0.0260  0.4716  0.4197
  132OSM   H13F14315   4.438   3.229   7.996  0.4454 -0.1970 -0.2520
  132OSM   H13G14316   4.351   3.073   8.000 -0.5793  0.7364  2.0492
  132OSM   C14F14317   4.223   3.230   8.068  0.6266 -0.0827  0.0646
  132OSM   H14F14318   4.129   3.176   8.045  1.2251 -1.1248  0.0070
  132OSM   H14G14319   4.197   3.335   8.047  1.4313 -0.2093 -1.7458
  132OSM   C15F14320   4.271   3.226   8.218  0.1658  0.2821 -0.5834
  132OSM   H15F14321   4.184   3.255   8.280  1.5844  0.4583  1.4328
  132OSM   H15G14322   4.351   3.300   8.240 -0.3228  0.2725  1.3711
  132OSM   C16F14323   4.317   3.091   8.267 -0.0127 -0.2776 -0.2955
  132OSM   H16F14324   4.421   3.086   8.229 -1.5952  0.9844 -5.5497
  132OSM   H16G14325   4.263   3.020   8.200  1.9730 -0.2777 -2.0035
  132OSM   C17F14326   4.298   3.064   8.417 -0.5197  0.1664 -0.4051
  132OSM   H17F14327   4.318   2.957   8.438 -2.1574 -0.1638 -0.4062
  132OSM   H17G14328   4.189   3.077   8.436 -0.7757 -0.2054 -1.5191
  132OSM   C18F14329   4.386   3.159   8.492  0.1916  0.1251 -0.3676
  132OSM   H18F14330   4.374   3.173   8.602  4.4315  2.0572  0.0616
  132OSM   H18G14331   4.373   3.259   8.445  0.0084  0.6160  0.6892
  132OSM   H18H14332   4.490   3.123   8.473  0.2805 -0.8790  1.7349
  133OSM      N14333   4.289   2.389   5.893  0.0943 -0.0148  0.9751
  133OSM    C1514334   4.236   2.518   5.957 -0.4724  0.7079  0.0996
  133OSM   H15A14335   4.298   2.600   5.925 -0.1944  0.1677 -0.7922
  133OSM   H15B14336   4.241   2.513   6.065  1.3454 -0.8885  0.0018
  133OSM   H15C14337   4.133   2.527   5.926 -0.3673  0.4905 -0.3229
  133OSM    C1414338   4.179   2.288   5.906  1.0031  0.5116 -0.5026
  133OSM   H14A14339   4.209   2.189   5.873  1.1010  0.7428 -1.1363
  133OSM   H14B14340   4.088   2.323   5.860 -1.2966  0.5593  3.6049
  133OSM   H14C14341   4.154   2.288   6.011  2.5246 -1.0030 -0.0920
  133OSM    C1314342   4.305   2.416   5.747  0.1342 -1.0234 -0.3029
  133OSM   H13A14343   4.381   2.493   5.740  1.2065 -1.7045  2.4769
  133OSM   H13B14344   4.218   2.452   5.693  2.1320  1.8483 -1.8924
  133OSM   H13C14345   4.345   2.330   5.696 -0.5536 -0.5564 -1.6839
  133OSM    C1214346   4.418   2.342   5.946  0.6600 -0.1066 -0.3087
  133OSM   H12A14347   4.494   2.408   5.908  0.2611  0.1224 -0.7262
  133OSM   H12B14348   4.445   2.247   5.903 -1.1452 -1.8003  1.9899
  133OSM    C1114349   4.438   2.320   6.093 -0.4870 -0.4241 -0.0158
  133OSM   H11A14350   4.541   2.281   6.108  1.0836  2.8607 -1.2893
  133OSM   H11B14351   4.366   2.242   6.129 -1.2195  0.4732  0.5017
  133OSM      P14352   4.530   2.557   6.145 -0.0087 -0.1026 -0.1368
  133OSM    O1314353   4.635   2.501   6.054  0.2984 -0.0325 -0.1164
  133OSM    O1414354   4.481   2.694   6.106  0.3329 -0.0120  0.2769
  133OSM    O1114355   4.595   2.572   6.291  0.4645 -0.1361 -0.5328
  133OSM    O1214356   4.413   2.445   6.163 -0.5903 -0.0302  0.2500
  133OSM    C1S14357   4.492   2.603   6.392 -0.2434  0.3644 -0.1548
  133OSM    H1S14358   4.422   2.519   6.414  1.4168 -1.2267 -0.6987
  133OSM    H1T14359   4.426   2.689   6.371  0.1897  0.6871 -0.2156
  133OSM     NF14360   4.457   2.648   6.634 -0.4509  0.0767  0.0906
  133OSM    HNF14361   4.431   2.740   6.660 -2.2968 -0.5250  0.4709
  133OSM    C2S14362   4.558   2.633   6.528  0.1647 -0.6441  0.9799
  133OSM    H2S14363   4.639   2.562   6.554  2.1270  1.1582  0.1063
  133OSM    C3S14364   4.640   2.770   6.509 -0.2666  0.0938  0.7087
  133OSM    H3S14365   4.571   2.853   6.483  1.9663  1.3711 -1.5932
  133OSM     O314366   4.740   2.777   6.405 -0.1912 -0.2267  0.3960
  133OSM    HO314367   4.725   2.699   6.352 -0.6224 -0.2694  0.5821
  133OSM    C4S14368   4.699   2.797   6.638  0.0113  0.3122 -0.0528
  133OSM    H4S14369   4.622   2.836   6.707 -2.0609 -0.8891 -1.5576
  133OSM    C5S14370   4.817   2.767   6.697 -0.3250  0.4639  0.1169
  133OSM    H5S14371   4.894   2.718   6.635 -0.9399  1.7614 -1.7649
  133OSM    C6S14372   4.839   2.791   6.844 -0.6542 -0.3571  0.4373
  133OSM    H6S14373   4.808   2.892   6.876 -0.6576 -0.2983  0.2458
  133OSM    H6T14374   4.949   2.791   6.860 -0.5653  1.9541  0.1604
  133OSM    C7S14375   4.790   2.675   6.928  0.3077 -0.3110 -0.4780
  133OSM    H7S14376   4.875   2.603   6.929 -0.6853 -1.5042  0.7967
  133OSM    H7T14377   4.698   2.627   6.890  1.0770 -1.6237 -0.7342
  133OSM    C8S14378   4.759   2.704   7.075  0.4366  1.1129  0.2500
  133OSM    H8S14379   4.686   2.633   7.120  0.6980  1.6019  1.5075
  133OSM    H8T14380   4.713   2.805   7.084 -0.0272  0.8712  0.5944
  133OSM    C9S14381   4.872   2.694   7.169  0.0609 -0.0834  0.3870
  133OSM    H9S14382   4.943   2.777   7.149 -3.0509  3.4566  2.5320
  133OSM    H9T14383   4.919   2.596   7.149 -3.4464 -1.9019  0.2092
  133OSM   C10S14384   4.817   2.716   7.313 -0.3374  0.6104 -0.2726
  133OSM   H10S14385   4.740   2.636   7.313 -2.3542  2.4240 -2.0159
  133OSM   H10T14386   4.758   2.809   7.325 -2.2238 -0.8120  3.3626
  133OSM   C11S14387   4.923   2.712   7.428 -0.7998 -0.2697  0.5616
  133OSM   H11S14388   4.970   2.812   7.426 -0.8920 -0.2218  0.7817
  133OSM   H11T14389   5.005   2.648   7.389 -1.6505 -0.3200 -1.2580
  133OSM   C12S14390   4.880   2.669   7.564  0.5760  0.0713  0.1325
  133OSM   H12S14391   4.862   2.560   7.556  0.9333  0.1213 -1.8947
  133OSM   H12T14392   4.786   2.718   7.597  0.5007  2.7585 -3.4610
  133OSM   C13S14393   4.974   2.716   7.676 -0.1482  0.0785 -0.3523
  133OSM   H13S14394   4.988   2.826   7.687  0.1726  0.0774 -0.7251
  133OSM   H13T14395   5.066   2.684   7.623  1.1143  2.0838  0.5178
  133OSM   C14S14396   4.962   2.622   7.808  0.8241 -0.0917  0.3373
  133OSM   H14S14397   4.926   2.524   7.770  2.3470 -0.9962  1.1467
  133OSM   H14T14398   4.885   2.669   7.872  0.8248 -2.4368  2.1968
  133OSM   C15S14399   5.087   2.602   7.888  0.1836  0.6828 -1.2802
  133OSM   H15S14400   5.153   2.691   7.894  0.4023  0.5323 -1.4187
  133OSM   H15T14401   5.155   2.525   7.845  2.0881  0.4654  1.8218
  133OSM   C16S14402   5.042   2.573   8.030  0.1261  0.1975 -0.5884
  133OSM   H16S14403   4.965   2.493   8.038  0.0363  0.1908 -1.4250
  133OSM   H16T14404   4.988   2.657   8.078 -2.3923 -1.2697 -0.6515
  133OSM   C17S14405   5.163   2.540   8.118  0.4793 -0.1450 -0.0303
  133OSM   H17S14406   5.211   2.640   8.128  0.8910 -0.4067  0.7527
  133OSM   H17T14407   5.224   2.460   8.071 -0.2270 -0.1346 -0.9875
  133OSM   C18S14408   5.123   2.487   8.254 -0.0039 -0.4296  0.2739
  133OSM   H18S14409   5.203   2.472   8.330  1.0282  0.5584 -0.5629
  133OSM   H18T14410   5.054   2.401   8.247  0.0873 -0.4721 -0.1648
  133OSM   H18U14411   5.052   2.565   8.290 -1.5440 -0.7991 -1.7964
  133OSM    C1F14412   4.402   2.544   6.694 -0.0239  0.3064 -0.3338
  133OSM     OF14413   4.410   2.431   6.643 -0.1635 -0.0513  0.3611
  133OSM    C2F14414   4.301   2.576   6.809 -0.3637  0.7876  0.4013
  133OSM    H2F14415   4.204   2.537   6.774  0.2513  0.3892 -0.9211
  133OSM    H2G14416   4.293   2.686   6.819 -0.0876  0.6690  2.2712
  133OSM    C3F14417   4.356   2.521   6.937 -0.8389  0.7458 -0.0014
  133OSM    H3F14418   4.455   2.562   6.966  0.9020 -2.7906 -0.4352
  133OSM    H3G14419   4.384   2.415   6.923 -2.5019  0.3279 -0.3378
  133OSM    C4F14420   4.265   2.514   7.052 -0.1953  0.1915 -0.5268
  133OSM    H4F14421   4.174   2.456   7.025 -1.8333  1.9061  1.0829
  133OSM    H4G14422   4.221   2.611   7.083 -1.4600 -0.7630  0.7738
  133OSM    C5F14423   4.317   2.450   7.183  0.4407 -0.1954 -0.0166
  133OSM    H5F14424   4.427   2.467   7.194  0.3627 -0.0008  0.4835
  133OSM    H5G14425   4.292   2.344   7.163  0.8068 -0.2207 -0.3559
  133OSM    C6F14426   4.238   2.481   7.307 -0.8987 -0.6476  0.0815
  133OSM    H6F14427   4.140   2.430   7.306  0.4792 -3.4721 -0.3023
  133OSM    H6G14428   4.227   2.591   7.321 -0.3042 -0.5204 -0.4054
  133OSM    C7F14429   4.295   2.439   7.446 -0.0268 -0.1674 -0.4549
  133OSM    H7F14430   4.324   2.331   7.451 -1.6870 -0.5889  0.6606
  133OSM    H7G14431   4.210   2.452   7.516 -0.6220  1.2116 -1.3968
  133OSM    C8F14432   4.409   2.529   7.493  0.1915  0.4344 -0.8601
  133OSM    H8F14433   4.474   2.550   7.405  1.3013  0.7961  0.0151
  133OSM    H8G14434   4.469   2.466   7.562  1.8977  1.4317 -1.3807
  133OSM    C9F14435   4.378   2.658   7.558 -0.2421 -0.1731  0.0319
  133OSM    H9F14436   4.325   2.729   7.492 -2.2252 -1.1441  0.4878
  133OSM   C10F14437   4.405   2.693   7.683 -0.1975 -0.0849 -0.4972
  133OSM   H10F14438   4.390   2.795   7.720  3.1671  0.7232 -1.0444
  133OSM   C11F14439   4.477   2.600   7.779  0.1916  0.4013 -0.1558
  133OSM   H11F14440   4.514   2.664   7.861 -1.7199  0.2457  0.8947
  133OSM   H11G14441   4.563   2.558   7.722  0.1149  2.4224 -1.8601
  133OSM   C12F14442   4.392   2.475   7.834  0.0933 -0.4406  0.3771
  133OSM   H12F14443   4.443   2.444   7.928  0.1521  0.5806  0.7034
  133OSM   H12G14444   4.402   2.400   7.753  0.5702 -0.7550  0.7234
  133OSM   C13F14445   4.245   2.501   7.861  0.7445  0.4245  0.6433
  133OSM   H13F14446   4.203   2.406   7.899 -1.1547 -0.0214 -2.2354
  133OSM   H13G14447   4.182   2.521   7.772 -0.3794  0.4960  1.4368
  133OSM   C14F14448   4.221   2.598   7.973  0.3424  0.5818  0.9646
  133OSM   H14F14449   4.258   2.697   7.939  0.0674  0.2701 -0.2987
  133OSM   H14G14450   4.277   2.553   8.058  2.3493  0.3552 -0.3993
  133OSM   C15F14451   4.079   2.605   8.013  0.1577 -0.8720 -0.0755
  133OSM   H15F14452   4.033   2.504   8.006  2.2974 -2.1155  2.1526
  133OSM   H15G14453   4.033   2.675   7.941 -0.7300 -0.6433  0.6950
  133OSM   C16F14454   4.057   2.669   8.151  0.5148  0.0511 -0.7232
  133OSM   H16F14455   4.117   2.763   8.154 -0.0155  0.4123 -1.3949
  133OSM   H16G14456   4.109   2.606   8.227 -0.4444  1.0310  0.7999
  133OSM   C17F14457   3.912   2.696   8.198  0.1043 -0.7144 -0.2035
  133OSM   H17F14458   3.846   2.607   8.187 -1.6930  0.7995 -2.7117
  133OSM   H17G14459   3.857   2.771   8.138 -0.2152  1.7598  2.9227
  133OSM   C18F14460   3.903   2.748   8.342 -0.1974 -0.7419  0.1524
  133OSM   H18F14461   3.995   2.809   8.351 -0.1381 -0.5182 -1.5583
  133OSM   H18G14462   3.899   2.673   8.423  0.2585 -2.8724 -1.7056
  133OSM   H18H14463   3.821   2.822   8.357 -1.6680 -1.9426 -1.5039
  134OSM      N14464   6.151   6.760   6.414 -0.1606  0.1807 -0.4857
  134OSM    C1514465   6.107   6.809   6.275  0.1256 -0.2787  0.4191
  134OSM   H15A14466   6.036   6.743   6.229 -0.0158  0.6328 -0.7187
  134OSM   H15B14467   6.190   6.833   6.209 -0.8775  0.8074 -0.5023
  134OSM   H15C14468   6.066   6.908   6.287  1.7920  0.7054 -1.2843
  134OSM    C1414469   6.267   6.673   6.386 -0.2131  0.3224 -0.5319
  134OSM   H14A14470   6.294   6.619   6.475  2.3159  0.8864 -0.8657
  134OSM   H14B14471   6.352   6.740   6.380  0.4118 -0.2684  1.1555
  134OSM   H14C14472   6.245   6.605   6.305 -0.0726 -0.3488 -0.0104
  134OSM    C1314473   6.192   6.873   6.502 -0.2118  0.2698 -0.9957
  134OSM   H13A14474   6.264   6.936   6.451  2.0965 -1.0034  0.5315
  134OSM   H13B14475   6.238   6.836   6.592 -2.5701  0.1479  0.2539
  134OSM   H13C14476   6.105   6.929   6.533 -1.1093 -0.6192 -1.8174
  134OSM    C1214477   6.035   6.681   6.471 -0.2244  0.1589  0.2348
  134OSM   H12A14478   6.009   6.615   6.389  2.5311  0.0979 -0.6890
  134OSM   H12B14479   5.954   6.752   6.478  0.8068  1.6454 -1.8296
  134OSM    C1114480   6.051   6.603   6.600 -0.0530 -0.7687  0.7956
  134OSM   H11A14481   6.142   6.635   6.656 -0.8189  1.8781  0.6680
  134OSM   H11B14482   6.056   6.496   6.574 -2.4709 -0.2537 -2.2671
  134OSM      P14483   5.793   6.580   6.636 -0.1572  0.0603  0.0729
  134OSM    O1314484   5.687   6.628   6.726  0.1236 -0.2315 -0.8127
  134OSM    O1414485   5.771   6.589   6.490 -0.0530 -0.1841  0.5799
  134OSM    O1114486   5.807   6.429   6.674 -0.2893  0.2701 -0.0207
  134OSM    O1214487   5.934   6.634   6.678 -0.1015 -0.3564  0.5439
  134OSM    C1S14488   5.821   6.376   6.809 -0.0524  0.6031 -0.7583
  134OSM    H1S14489   5.732   6.398   6.873 -0.6121 -3.5135  0.2074
  134OSM    H1T14490   5.908   6.432   6.849  0.3070 -0.8579  0.6090
  134OSM     NF14491   5.919   6.200   6.959  0.3491 -0.6278 -0.4496
  134OSM    HNF14492   6.009   6.226   6.994 -0.4849  0.8196  0.7246
  134OSM    C2S14493   5.880   6.226   6.818  0.3101  0.4735  0.5930
  134OSM    H2S14494   5.801   6.150   6.798  1.1864 -0.0807 -0.8943
  134OSM    C3S14495   5.994   6.202   6.723  0.2689  0.3976  0.2589
  134OSM    H3S14496   6.078   6.268   6.753  1.2437 -0.2718 -0.8842
  134OSM     O314497   5.968   6.238   6.586  0.0842 -0.1209 -0.6305
  134OSM    HO314498   5.907   6.311   6.595 -0.7965 -0.4400 -3.2487
  134OSM    C4S14499   6.049   6.059   6.731 -0.0800  0.4745  0.2363
  134OSM    H4S14500   5.977   5.976   6.734  0.6918 -0.2844 -1.2640
  134OSM    C5S14501   6.179   6.027   6.741 -0.0335  0.2222  0.4674
  134OSM    H5S14502   6.249   6.111   6.753 -1.4708  1.3781  1.1049
  134OSM    C6S14503   6.242   5.886   6.755  0.1613  0.0139  0.0524
  134OSM    H6S14504   6.269   5.840   6.657  1.7777  0.4739  0.2468
  134OSM    H6T14505   6.173   5.810   6.796 -1.3924  1.0860 -0.5085
  134OSM    C7S14506   6.359   5.896   6.854  0.3428  0.6322 -0.2499
  134OSM    H7S14507   6.436   5.964   6.813  0.5188  0.7459  0.2605
  134OSM    H7T14508   6.404   5.795   6.864  0.8681  0.6382 -2.2392
  134OSM    C8S14509   6.305   5.943   6.988  0.8188  0.2156 -0.0757
  134OSM    H8S14510   6.197   5.916   6.990  0.3167  1.8146 -2.2734
  134OSM    H8T14511   6.310   6.053   7.000 -0.7002  0.6205 -2.5440
  134OSM    C9S14512   6.362   5.878   7.118  0.2201 -0.1646 -0.1639
  134OSM    H9S14513   6.469   5.908   7.115  0.6011 -1.5235 -1.5384
  134OSM    H9T14514   6.361   5.767   7.109  0.6647 -0.2655  0.8556
  134OSM   C10S14515   6.290   5.930   7.250  0.2614  0.6723  0.0590
  134OSM   H10S14516   6.342   5.889   7.339  0.3029  0.6609  0.0295
  134OSM   H10T14517   6.186   5.893   7.256 -0.3047  2.3677  1.9043
  134OSM   C11S14518   6.268   6.088   7.259  0.0283 -0.0262  0.3371
  134OSM   H11S14519   6.206   6.111   7.348  1.2772 -0.0944  1.2508
  134OSM   H11T14520   6.204   6.105   7.169 -0.2046 -0.4620  0.4191
  134OSM   C12S14521   6.398   6.159   7.267 -0.1928  0.4165  0.1899
  134OSM   H12S14522   6.362   6.263   7.283 -0.3150  0.2684  0.9090
  134OSM   H12T14523   6.458   6.155   7.173  3.0180 -0.8408  2.1563
  134OSM   C13S14524   6.474   6.130   7.391 -0.4635 -0.7023 -0.2564
  134OSM   H13S14525   6.561   6.198   7.380 -0.0457 -1.6592 -4.1294
  134OSM   H13T14526   6.509   6.025   7.384 -1.4422 -0.9612 -1.7167
  134OSM   C14S14527   6.397   6.161   7.521  0.0629  0.4577  0.7681
  134OSM   H14S14528   6.329   6.073   7.519  0.3781  0.1201 -3.1776
  134OSM   H14T14529   6.319   6.240   7.509 -1.4326 -1.1856 -1.2148
  134OSM   C15S14530   6.483   6.164   7.642  0.2797  0.5337 -0.0340
  134OSM   H15S14531   6.543   6.257   7.632  0.1615  0.3964 -2.4868
  134OSM   H15T14532   6.546   6.074   7.656 -1.2778 -0.7380 -0.8049
  134OSM   C16S14533   6.393   6.167   7.770  0.5220 -0.9302  1.2162
  134OSM   H16S14534   6.310   6.094   7.754  0.2938 -0.3226 -0.5831
  134OSM   H16T14535   6.337   6.261   7.786 -0.5847 -0.9085 -2.0772
  134OSM   C17S14536   6.478   6.132   7.887 -0.3364  0.1492  0.9340
  134OSM   H17S14537   6.497   6.023   7.892 -4.0350 -0.7407 -0.7299
  134OSM   H17T14538   6.421   6.157   7.979  0.7724 -0.5699  1.8351
  134OSM   C18S14539   6.618   6.196   7.895  0.2774 -0.0718 -0.3095
  134OSM   H18S14540   6.606   6.305   7.876  0.3267 -0.2700 -1.5015
  134OSM   H18T14541   6.686   6.156   7.818 -0.0476  1.3464 -1.3737
  134OSM   H18U14542   6.656   6.187   7.999  3.4264  1.2046 -1.2157
  134OSM    C1F14543   5.831   6.179   7.062 -0.0231 -0.1740  0.2124
  134OSM     OF14544   5.713   6.156   7.037  0.1805 -0.0429 -0.4149
  134OSM    C2F14545   5.890   6.192   7.198 -0.9386 -0.1470 -0.2371
  134OSM    H2F14546   5.952   6.284   7.206  2.2554 -2.0151 -1.5475
  134OSM    H2G14547   5.959   6.107   7.214  1.4356  1.5156 -1.1442
  134OSM    C3F14548   5.774   6.203   7.305  0.0704  0.3478 -0.5753
  134OSM    H3F14549   5.727   6.102   7.312  0.9309  0.0491  2.0914
  134OSM    H3G14550   5.699   6.281   7.282 -0.0444  0.4662  0.1648
  134OSM    C4F14551   5.830   6.221   7.449  0.5152 -1.1294  0.2500
  134OSM    H4F14552   5.751   6.219   7.527  2.8052  1.3126  2.8737
  134OSM    H4G14553   5.870   6.324   7.450  0.5165 -1.1256  1.5444
  134OSM    C5F14554   5.936   6.123   7.484 -0.4043 -0.2789  0.4429
  134OSM    H5F14555   5.998   6.071   7.408 -1.0165  1.6891 -1.4911
  134OSM    H5G14556   5.878   6.039   7.529 -1.2043 -0.5882 -1.1155
  134OSM    C6F14557   6.042   6.164   7.589  0.3444 -0.6580  0.1793
  134OSM    H6F14558   6.100   6.254   7.563 -0.1226 -0.6503 -0.8610
  134OSM    H6G14559   6.120   6.085   7.598  1.5090  0.2921 -1.2384
  134OSM    C7F14560   5.979   6.195   7.725  0.1310  0.1294  0.8355
  134OSM    H7F14561   5.895   6.267   7.715 -0.0412 -0.0124  1.2424
  134OSM    H7G14562   6.058   6.237   7.791 -0.9413 -1.2565  3.1101
  134OSM    C8F14563   5.932   6.076   7.813 -0.0748  0.2006  0.8804
  134OSM    H8F14564   5.994   5.984   7.802 -0.3337  0.2508 -1.6249
  134OSM    H8G14565   5.839   6.041   7.764 -0.8686 -0.4377  2.7441
  134OSM    C9F14566   5.907   6.100   7.961  0.0943 -0.2268  0.6392
  134OSM    H9F14567   5.803   6.109   7.996 -0.0659 -0.0089  0.1181
  134OSM   C10F14568   5.996   6.102   8.057 -0.4629  0.3551  0.0702
  134OSM   H10F14569   5.964   6.128   8.159 -2.8600  1.5190 -0.8980
  134OSM   C11F14570   6.143   6.069   8.038 -0.3284 -0.2415  0.2402
  134OSM   H11F14571   6.185   6.171   8.045 -1.4482  0.1392  1.8143
  134OSM   H11G14572   6.166   6.022   7.940 -0.0417  1.7332 -0.6818
  134OSM   C12F14573   6.215   5.980   8.142  0.6096 -0.2262 -0.8767
  134OSM   H12F14574   6.325   5.971   8.124  0.9667  0.0450  0.9912
  134OSM   H12G14575   6.172   5.878   8.128 -1.6282  0.4106  0.8876
  134OSM   C13F14576   6.195   6.030   8.285 -0.1842  0.4452  0.2869
  134OSM   H13F14577   6.085   6.029   8.306 -0.0383 -0.3239  1.0815
  134OSM   H13G14578   6.249   6.126   8.300 -0.4508  0.5073  0.9047
  134OSM   C14F14579   6.259   5.932   8.383 -0.2922 -0.3942  0.1096
  134OSM   H14F14580   6.365   5.929   8.351  0.4494  2.6261  1.9267
  134OSM   H14G14581   6.222   5.827   8.386  1.2819 -0.9594  1.2326
  134OSM   C15F14582   6.261   5.987   8.528 -0.5460 -0.0470 -0.3997
  134OSM   H15F14583   6.154   5.996   8.556 -0.5781  0.8983 -0.7547
  134OSM   H15G14584   6.317   6.083   8.536  0.5258 -0.7804  1.4607
  134OSM   C16F14585   6.329   5.883   8.618 -0.4098  0.8425 -0.2818
  134OSM   H16F14586   6.404   5.826   8.559  0.4652  1.5043  0.1718
  134OSM   H16G14587   6.254   5.806   8.647 -0.7005  1.7726  1.5342
  134OSM   C17F14588   6.403   5.933   8.739 -1.0425  0.0251 -0.8421
  134OSM   H17F14589   6.496   5.985   8.707 -1.2568 -0.7675 -2.8697
  134OSM   H17G14590   6.418   5.851   8.812 -2.3798  1.1842  0.8352
  134OSM   C18F14591   6.322   6.044   8.809 -0.4043  0.0922 -0.4872
  134OSM   H18F14592   6.236   6.005   8.868  0.4913  0.0345  0.8133
  134OSM   H18G14593   6.289   6.122   8.737  0.4564  0.5756 -0.3660
  134OSM   H18H14594   6.388   6.091   8.884  1.1458 -0.5335 -1.4112
  135OSM      N14595   5.745   6.166   6.127  0.1244  0.4789 -0.6456
  135OSM    C1514596   5.753   6.093   5.995  0.7275 -0.4085 -0.2419
  135OSM   H15A14597   5.801   5.997   6.010 -1.8310 -1.7898 -0.2427
  135OSM   H15B14598   5.816   6.144   5.924  1.7505 -2.5229 -0.9242
  135OSM   H15C14599   5.658   6.086   5.944  0.2449  0.9829  0.4081
  135OSM    C1414600   5.883   6.194   6.176 -0.0192 -0.2376  0.2645
  135OSM   H14A14601   5.936   6.100   6.181 -0.4016 -0.4247  0.8547
  135OSM   H14B14602   5.892   6.254   6.265  1.2557  1.2163 -0.7821
  135OSM   H14C14603   5.926   6.258   6.101 -0.6092  1.1430  1.0663
  135OSM    C1314604   5.666   6.289   6.112  0.3076 -0.4068  1.2278
  135OSM   H13A14605   5.715   6.362   6.050 -0.2443 -0.5228  0.6490
  135OSM   H13B14606   5.654   6.339   6.207 -0.9287  2.3424 -0.2884
  135OSM   H13C14607   5.569   6.269   6.071  0.1408  0.4818  1.1786
  135OSM    C1214608   5.680   6.076   6.223  0.0090  0.2196 -0.0280
  135OSM   H12A14609   5.738   5.986   6.239 -0.8282 -0.2038  0.7086
  135OSM   H12B14610   5.585   6.039   6.188  0.5204 -0.0100 -1.2053
  135OSM    C1114611   5.650   6.128   6.368  0.7752 -0.5406  0.4770
  135OSM   H11A14612   5.746   6.168   6.407  0.3646  1.4805 -0.4503
  135OSM   H11B14613   5.610   6.042   6.427 -1.1606 -0.8575 -1.1746
  135OSM      P14614   5.387   6.182   6.382  0.0746  0.1888  0.5692
  135OSM    O1314615   5.310   6.302   6.350  0.3909 -0.2602 -0.0219
  135OSM    O1414616   5.366   6.055   6.303  0.0079 -0.6685 -0.6438
  135OSM    O1114617   5.377   6.147   6.536  0.0687 -0.1954 -0.0525
  135OSM    O1214618   5.544   6.228   6.370 -0.0025  0.2225  0.1948
  135OSM    C1S14619   5.465   6.214   6.635 -0.0019  0.7670  0.0895
  135OSM    H1S14620   5.420   6.315   6.641 -2.2118 -0.1111 -0.4766
  135OSM    H1T14621   5.569   6.226   6.600  0.1353 -0.1515  0.1549
  135OSM     NF14622   5.490   6.223   6.888 -0.0572 -0.6197 -0.1683
  135OSM    HNF14623   5.577   6.209   6.934 -0.4695  1.0037  1.2184
  135OSM    C2S14624   5.462   6.135   6.772  0.6294 -0.0947 -0.2375
  135OSM    H2S14625   5.356   6.102   6.778  0.4699  0.5295  0.4775
  135OSM    C3S14626   5.554   6.014   6.757 -0.0247 -0.0462 -0.0328
  135OSM    H3S14627   5.659   6.045   6.740  0.2150  0.0267  1.4248
  135OSM     O314628   5.519   5.928   6.646 -0.5690 -0.0016  0.1274
  135OSM    HO314629   5.464   5.991   6.598 -0.0993  0.5190  0.2604
  135OSM    C4S14630   5.547   5.933   6.879 -0.1881 -0.6563 -0.0964
  135OSM    H4S14631   5.620   5.963   6.955 -2.9983  2.6406  1.6163
  135OSM    C5S14632   5.453   5.849   6.925  0.3260  0.6363 -0.0009
  135OSM    H5S14633   5.370   5.828   6.856  2.6222 -1.5451 -2.3261
  135OSM    C6S14634   5.464   5.769   7.051 -0.3362 -0.9545  0.0389
  135OSM    H6S14635   5.557   5.710   7.044  1.9914  1.9639  3.1681
  135OSM    H6T14636   5.372   5.706   7.055 -0.3703 -0.9026  0.0932
  135OSM    C7S14637   5.482   5.861   7.174  0.1501 -0.2284  0.3397
  135OSM    H7S14638   5.410   5.946   7.181  2.5291  1.9928 -0.6348
  135OSM    H7T14639   5.577   5.918   7.169 -0.2416  0.3086 -2.8273
  135OSM    C8S14640   5.490   5.785   7.306  0.5409  0.4231 -0.3296
  135OSM    H8S14641   5.550   5.692   7.294 -0.4153  0.1410 -4.6294
  135OSM    H8T14642   5.384   5.760   7.331  0.9655 -0.3578  0.7624
  135OSM    C9S14643   5.554   5.860   7.416  0.0880 -0.4936  0.1669
  135OSM    H9S14644   5.518   5.965   7.417  1.6967  0.0901  0.0961
  135OSM    H9T14645   5.664   5.872   7.409 -0.1759  2.3875 -0.1901
  135OSM   C10S14646   5.511   5.804   7.554 -0.5765  0.0457 -0.3290
  135OSM   H10S14647   5.558   5.706   7.576  2.1343  1.0817 -1.0820
  135OSM   H10T14648   5.401   5.796   7.564 -0.3727 -0.3158  2.0488
  135OSM   C11S14649   5.550   5.898   7.669  0.1467 -0.1504 -0.1993
  135OSM   H11S14650   5.506   5.999   7.653  0.7608 -0.0805 -1.5704
  135OSM   H11T14651   5.659   5.916   7.664  0.1935 -0.4569 -0.3037
  135OSM   C12S14652   5.518   5.850   7.811  0.6291  0.5108  0.3011
  135OSM   H12S14653   5.567   5.752   7.831  0.5845  0.2046 -1.0032
  135OSM   H12T14654   5.409   5.835   7.822  0.6897  1.7897  4.9581
  135OSM   C13S14655   5.556   5.950   7.921  0.0656 -0.3691 -0.7011
  135OSM   H13S14656   5.539   6.051   7.878 -1.8194  0.4207  1.6556
  135OSM   H13T14657   5.664   5.935   7.944  0.0947 -2.3395 -1.9415
  135OSM   C14S14658   5.487   5.926   8.053  0.1262  0.2684 -0.2796
  135OSM   H14S14659   5.520   5.830   8.097  1.1430  1.1359  0.9313
  135OSM   H14T14660   5.378   5.934   8.032 -0.2203 -2.0737  0.4028
  135OSM   C15S14661   5.519   6.020   8.162 -0.4879  0.2530 -0.0508
  135OSM   H15S14662   5.465   6.112   8.132 -0.2564  0.0921 -1.0110
  135OSM   H15T14663   5.630   6.029   8.165 -0.5909  2.1379  3.2952
  135OSM   C16S14664   5.475   5.978   8.303 -0.1038 -0.8197  0.4980
  135OSM   H16S14665   5.517   6.047   8.380 -1.3578  1.0242 -0.4064
  135OSM   H16T14666   5.495   5.870   8.318 -0.5861 -0.7467  1.7805
  135OSM   C17S14667   5.326   6.005   8.316 -0.6562  0.8279 -0.6413
  135OSM   H17S14668   5.274   5.936   8.246  0.2356 -0.8984  0.3369
  135OSM   H17T14669   5.313   6.115   8.307  5.1248  2.0592  1.5866
  135OSM   C18S14670   5.279   5.971   8.454 -0.3778  0.5870 -0.4824
  135OSM   H18S14671   5.328   5.881   8.498 -2.3664 -0.8293 -1.0762
  135OSM   H18T14672   5.172   5.943   8.454 -0.4836  0.9819 -0.9992
  135OSM   H18U14673   5.307   6.054   8.523 -0.5059  0.6120 -0.4605
  135OSM    C1F14674   5.409   6.323   6.921  0.3160 -0.0835 -0.1976
  135OSM     OF14675   5.314   6.356   6.853 -0.1693  0.0028  0.0422
  135OSM    C2F14676   5.431   6.400   7.047 -0.2776 -1.1423  0.3074
  135OSM    H2F14677   5.355   6.481   7.055 -1.3609 -2.1625  0.6163
  135OSM    H2G14678   5.532   6.446   7.044 -0.4702 -0.7824 -2.3018
  135OSM    C3F14679   5.418   6.301   7.171  0.0120 -0.1874  0.0324
  135OSM    H3F14680   5.510   6.239   7.165  2.2837  2.9309 -0.0629
  135OSM    H3G14681   5.326   6.240   7.164 -1.9822  2.6848 -0.5170
  135OSM    C4F14682   5.413   6.385   7.297 -0.9200  0.2914  0.2510
  135OSM    H4F14683   5.318   6.441   7.305 -0.3233  1.0805  2.4147
  135OSM    H4G14684   5.498   6.456   7.302 -2.0703  1.6000  2.3277
  135OSM    C5F14685   5.428   6.292   7.422 -0.1515 -0.4110  0.0916
  135OSM    H5F14686   5.502   6.210   7.404 -0.9774 -0.8585 -1.4887
  135OSM    H5G14687   5.335   6.239   7.451 -1.1785  2.5120  2.7052
  135OSM    C6F14688   5.468   6.375   7.543 -0.2184 -0.7986 -0.3617
  135OSM    H6F14689   5.398   6.461   7.547 -0.9845 -1.4188 -0.0753
  135OSM    H6G14690   5.572   6.413   7.535 -0.1700  0.2092  3.1467
  135OSM    C7F14691   5.464   6.288   7.676 -0.3453  0.1664  0.0223
  135OSM    H7F14692   5.561   6.234   7.680  1.3614  2.9995 -0.1458
  135OSM    H7G14693   5.380   6.217   7.666  1.1049 -1.3093 -2.4214
  135OSM    C8F14694   5.454   6.363   7.808 -0.0558 -0.0239  0.1863
  135OSM    H8F14695   5.551   6.411   7.831 -0.4001  0.8228 -0.0768
  135OSM    H8G14696   5.444   6.290   7.890  0.2249  1.3189  1.4496
  135OSM    C9F14697   5.349   6.470   7.804  0.1894  0.8820 -0.2674
  135OSM    H9F14698   5.378   6.566   7.758 -2.5008  1.1680 -1.5537
  135OSM   C10F14699   5.232   6.473   7.860 -0.0990  0.4180 -0.5700
  135OSM   H10F14700   5.162   6.556   7.849 -1.2678 -0.4619  0.0314
  135OSM   C11F14701   5.179   6.373   7.954  0.1717 -0.3667  1.1041
  135OSM   H11F14702   5.259   6.302   7.984  3.3419  2.4908 -0.0395
  135OSM   H11G14703   5.092   6.321   7.909  1.4149 -1.6449  0.0998
  135OSM   C12F14704   5.140   6.444   8.089  0.2011  0.1360  0.1747
  135OSM   H12F14705   5.052   6.510   8.075  0.4294  0.4457  0.2002
  135OSM   H12G14706   5.233   6.496   8.120  0.4948 -0.3181  0.0726
  135OSM   C13F14707   5.104   6.346   8.205 -0.6205 -0.2213 -0.4814
  135OSM   H13F14708   5.176   6.262   8.199 -0.6646 -0.4089  1.0723
  135OSM   H13G14709   4.997   6.317   8.193 -0.4865 -0.5464 -0.9088
  135OSM   C14F14710   5.130   6.408   8.350  0.1571 -0.3197 -0.6372
  135OSM   H14F14711   5.065   6.496   8.367  2.2302  0.8299  2.1665
  135OSM   H14G14712   5.238   6.437   8.352  1.2425 -3.9562  1.0774
  135OSM   C15F14713   5.115   6.316   8.468  0.6828  1.0522  0.6440
  135OSM   H15F14714   5.194   6.239   8.453 -1.1504 -1.1443  1.6266
  135OSM   H15G14715   5.017   6.263   8.461  1.6915 -0.8988  0.6553
  135OSM   C16F14716   5.133   6.383   8.610  0.1818  0.0743  0.2503
  135OSM   H16F14717   5.052   6.455   8.630  1.1416  1.1460  0.3943
  135OSM   H16G14718   5.230   6.437   8.614 -0.7165  1.7283  0.3632
  135OSM   C17F14719   5.137   6.264   8.706  0.1546 -0.4572  0.0453
  135OSM   H17F14720   5.216   6.196   8.669 -1.2976 -0.2988 -3.9094
  135OSM   H17G14721   5.044   6.206   8.686 -1.0901  1.0908  1.0402
  135OSM   C18F14722   5.155   6.317   8.854  0.5235  0.2474  1.2181
  135OSM   H18F14723   5.124   6.226   8.909  2.5897 -2.1249 -1.2124
  135OSM   H18G14724   5.102   6.413   8.868  0.1871  0.4370 -1.0170
  135OSM   H18H14725   5.262   6.331   8.882  0.3165  0.4841  1.9087
  136OSM      N14726   4.905   0.085   5.792  0.1391  0.4295 -0.0966
  136OSM    C1514727   5.047   0.078   5.756  0.1021  0.1064  0.2251
  136OSM   H15A14728   5.059   0.037   5.657 -2.0607  0.8125 -0.3859
  136OSM   H15B14729   5.102   0.014   5.823 -0.7386 -0.6562  0.2057
  136OSM   H15C14730   5.100   0.172   5.760  2.1235 -0.6490 -3.9221
  136OSM    C1414731   4.842   0.186   5.708  0.0793 -0.6362 -0.1045
  136OSM   H14A14732   4.734   0.183   5.708 -0.0792  1.5147  2.2895
  136OSM   H14B14733   4.875   0.168   5.607 -0.3750 -1.9290 -0.0464
  136OSM   H14C14734   4.876   0.284   5.738  2.4139 -1.5214  0.3330
  136OSM    C1314735   4.848  -0.052   5.762  0.2070 -0.4419  0.0574
  136OSM   H13A14736   4.895  -0.134   5.813  1.4186  0.3775  0.2991
  136OSM   H13B14737   4.862  -0.075   5.658  1.3774 -0.0610  0.1198
  136OSM   H13C14738   4.743  -0.057   5.788 -0.0155 -0.9697 -0.9005
  136OSM    C1214739   4.886   0.117   5.940  0.0878  0.1790 -0.2100
  136OSM   H12A14740   4.946   0.204   5.964  1.2239 -0.4659 -0.6519
  136OSM   H12B14741   4.925   0.038   6.002 -1.6943 -0.4112  0.2415
  136OSM    C1114742   4.736   0.133   5.995 -0.5737  0.3664 -0.1587
  136OSM   H11A14743   4.686   0.212   5.935  3.0071  0.9431 -2.6811
  136OSM   H11B14744   4.727   0.167   6.101 -2.4664  0.7076 -0.3886
  136OSM      P14745   4.694  -0.118   6.087 -0.5016  0.2478 -0.1688
  136OSM    O1314746   4.661  -0.240   6.013 -0.4486 -0.0505  0.0018
  136OSM    O1414747   4.831  -0.122   6.150 -0.3464  0.3016  0.0343
  136OSM    O1114748   4.588  -0.104   6.202  0.4697 -0.5923  0.1240
  136OSM    O1214749   4.668   0.004   5.989 -0.1352 -0.3625  0.2882
  136OSM    C1S14750   4.565   0.020   6.276  0.4979  1.0871 -0.6075
  136OSM    H1S14751   4.521   0.095   6.208  1.4286  1.1762 -1.1311
  136OSM    H1T14752   4.656   0.060   6.326  0.9114  0.1231 -0.5739
  136OSM     NF14753   4.439   0.113   6.478  0.6927 -0.9060 -0.0859
  136OSM    HNF14754   4.484   0.154   6.557 -1.2111  1.9849 -0.3676
  136OSM    C2S14755   4.476  -0.008   6.405  0.4375  0.6142 -0.6155
  136OSM    H2S14756   4.380  -0.053   6.371  0.5927  0.0740 -0.3593
  136OSM    C3S14757   4.539  -0.118   6.498 -0.0703 -0.4164  0.4261
  136OSM    H3S14758   4.641  -0.091   6.531  0.5565 -1.5369 -0.5221
  136OSM     O314759   4.558  -0.241   6.424 -0.1164  0.0745 -0.3835
  136OSM    HO314760   4.554  -0.224   6.330 -1.8604 -2.1030 -0.7889
  136OSM    C4S14761   4.464  -0.137   6.630  0.2230 -0.3918 -0.1118
  136OSM    H4S14762   4.505  -0.071   6.708 -2.0788  0.5517  0.3767
  136OSM    C5S14763   4.363  -0.222   6.662  0.0365  0.2760 -0.5704
  136OSM    H5S14764   4.319  -0.279   6.578  0.4137 -1.0754  0.1191
  136OSM    C6S14765   4.293  -0.238   6.793  0.3878  0.5453  0.4975
  136OSM    H6S14766   4.333  -0.334   6.831 -0.1791  0.5612  1.1614
  136OSM    H6T14767   4.182  -0.236   6.787  0.2632 -0.0809  2.0524
  136OSM    C7S14768   4.323  -0.139   6.907  0.8202 -0.0053  0.3097
  136OSM    H7S14769   4.290  -0.034   6.890  0.3894  0.0173  1.2264
  136OSM    H7T14770   4.433  -0.137   6.921  0.8418  1.6635  0.1658
  136OSM    C8S14771   4.259  -0.190   7.031 -0.1874 -0.1855  0.3256
  136OSM    H8S14772   4.268  -0.299   7.050 -1.3391 -0.1125  1.4071
  136OSM    H8T14773   4.149  -0.181   7.019  0.0517  0.1503 -2.2950
  136OSM    C9S14774   4.290  -0.112   7.166 -0.5375 -0.1450  0.1545
  136OSM    H9S14775   4.283  -0.006   7.135  2.3164  0.1752  0.3353
  136OSM    H9T14776   4.399  -0.130   7.183 -0.4502 -0.4337 -0.6733
  136OSM   C10S14777   4.213  -0.163   7.291  0.7279 -0.3539 -0.2619
  136OSM   H10S14778   4.224  -0.274   7.294 -0.2063 -0.4740 -0.8621
  136OSM   H10T14779   4.108  -0.144   7.261  0.2830 -1.2536  0.6668
  136OSM   C11S14780   4.249  -0.105   7.426  0.2473 -0.2598  0.0053
  136OSM   H11S14781   4.233   0.005   7.428  1.4908 -0.0809  0.5832
  136OSM   H11T14782   4.356  -0.118   7.449  0.4913  3.5036  1.8091
  136OSM   C12S14783   4.162  -0.160   7.541 -0.7029 -0.0616 -0.1808
  136OSM   H12S14784   4.179  -0.269   7.550  1.2486  0.3023  1.1454
  136OSM   H12T14785   4.059  -0.122   7.521 -0.4654  0.8015  0.1926
  136OSM   C13S14786   4.204  -0.106   7.688  0.1335  0.1013  0.7029
  136OSM   H13S14787   4.183   0.003   7.693 -0.9064  0.1480 -2.4027
  136OSM   H13T14788   4.314  -0.122   7.694  0.4918  0.3499 -2.8841
  136OSM   C14S14789   4.138  -0.179   7.805 -0.2723  0.5960 -0.5899
  136OSM   H14S14790   4.192  -0.275   7.818 -2.2339 -0.6317 -1.0053
  136OSM   H14T14791   4.030  -0.198   7.786 -0.7519  0.3822  2.0247
  136OSM   C15S14792   4.138  -0.114   7.950  0.0406  0.1618  0.1533
  136OSM   H15S14793   4.100  -0.192   8.019  0.5123  0.4718  0.7799
  136OSM   H15T14794   4.076  -0.022   7.937 -0.4694 -0.0094  1.2907
  136OSM   C16S14795   4.283  -0.085   7.992 -0.1644 -0.5399  0.0243
  136OSM   H16S14796   4.326  -0.012   7.919 -1.0532  1.2303  1.1913
  136OSM   H16T14797   4.339  -0.180   7.993 -0.1356 -0.6731  4.5477
  136OSM   C17S14798   4.294  -0.029   8.138 -1.1851  0.4590  0.9465
  136OSM   H17S14799   4.241   0.069   8.138  0.1874  1.2197  0.6418
  136OSM   H17T14800   4.396   0.009   8.157 -1.1899  1.5456 -0.9795
  136OSM   C18S14801   4.221  -0.119   8.235  0.1798  0.4050  0.1303
  136OSM   H18S14802   4.271  -0.218   8.241 -2.8060 -1.3166 -1.0231
  136OSM   H18T14803   4.117  -0.141   8.204 -0.6021  0.0416  2.7761
  136OSM   H18U14804   4.221  -0.083   8.340  0.4354 -2.0193  1.0354
  136OSM    C1F14805   4.360   0.204   6.423  0.0736 -0.1701 -0.0170
  136OSM     OF14806   4.289   0.175   6.325  0.3217  0.0619 -0.7179
  136OSM    C2F14807   4.376   0.340   6.487 -0.2358 -0.2028  0.0129
  136OSM    H2F14808   4.349   0.421   6.417 -0.9089  1.7961  2.4113
  136OSM    H2G14809   4.474   0.347   6.540 -0.0177 -1.5285 -0.1805
  136OSM    C3F14810   4.269   0.353   6.597 -0.8762 -0.5009  0.1237
  136OSM    H3F14811   4.172   0.371   6.545 -0.5641 -0.9386 -0.6298
  136OSM    H3G14812   4.290   0.450   6.646 -1.3992 -0.8302  1.0231
  136OSM    C4F14813   4.255   0.250   6.708  0.0366 -0.0753 -0.6007
  136OSM    H4F14814   4.348   0.244   6.768 -0.0028  1.2486 -0.3731
  136OSM    H4G14815   4.220   0.149   6.680 -0.1615 -0.4246  0.8277
  136OSM    C5F14816   4.137   0.285   6.804 -0.9192 -0.0310  0.1588
  136OSM    H5F14817   4.054   0.304   6.733 -0.1649  0.1241 -0.6931
  136OSM    H5G14818   4.161   0.380   6.857 -0.5006 -0.4831  0.7972
  136OSM    C6F14819   4.104   0.169   6.904  0.0638 -0.4101 -0.0979
  136OSM    H6F14820   4.191   0.138   6.965  1.2988  0.4494 -1.3692
  136OSM    H6G14821   4.074   0.080   6.845 -0.3020  0.1163 -0.7289
  136OSM    C7F14822   3.990   0.214   7.002 -0.8343 -0.1988 -0.0672
  136OSM    H7F14823   3.915   0.267   6.940 -1.9172 -0.1772  1.2092
  136OSM    H7G14824   4.029   0.295   7.068  2.8510 -2.6388  1.0249
  136OSM    C8F14825   3.934   0.104   7.093 -0.3190 -0.0790 -0.0244
  136OSM    H8F14826   3.863   0.157   7.160  1.2646  0.3503  1.3973
  136OSM    H8G14827   4.011   0.079   7.169 -0.4069  1.6786  0.6921
  136OSM    C9F14828   3.871  -0.024   7.036  0.0444  0.3756 -0.0859
  136OSM    H9F14829   3.899  -0.063   6.937 -0.2102  0.2081 -0.0930
  136OSM   C10F14830   3.772  -0.095   7.085  0.2110  0.1129 -0.6926
  136OSM   H10F14831   3.745  -0.191   7.041  0.0150 -0.6327  0.9697
  136OSM   C11F14832   3.703  -0.084   7.212  0.1667 -0.3352  0.3439
  136OSM   H11F14833   3.622  -0.161   7.207  1.2939 -1.4724 -1.4170
  136OSM   H11G14834   3.663   0.019   7.225  0.8543 -0.0908  0.5471
  136OSM   C12F14835   3.770  -0.113   7.340 -0.3038 -0.1606  0.4453
  136OSM   H12F14836   3.865  -0.057   7.346 -0.5817  0.3039  0.6151
  136OSM   H12G14837   3.799  -0.219   7.333 -0.9008 -0.3968  1.3106
  136OSM   C13F14838   3.675  -0.080   7.458  0.6422 -0.0053 -0.5212
  136OSM   H13F14839   3.589  -0.151   7.454  0.4879  0.1406  0.1499
  136OSM   H13G14840   3.641   0.025   7.457  0.5177 -0.0285  0.7017
  136OSM   C14F14841   3.736  -0.117   7.598 -0.0488 -0.3494 -0.5566
  136OSM   H14F14842   3.817  -0.047   7.629 -1.4337  1.7856 -1.4939
  136OSM   H14G14843   3.772  -0.222   7.596 -0.2492 -0.4866  1.3300
  136OSM   C15F14844   3.630  -0.100   7.708  0.2991  0.5505 -0.0064
  136OSM   H15F14845   3.544  -0.170   7.707  0.4956  0.2128  1.9487
  136OSM   H15G14846   3.590   0.004   7.700  2.2183  1.5363  2.0156
  136OSM   C16F14847   3.698  -0.115   7.842 -0.6334 -0.7744  0.7399
  136OSM   H16F14848   3.785  -0.045   7.840 -0.6785 -0.7234 -0.0405
  136OSM   H16G14849   3.758  -0.209   7.849 -0.6862 -0.9681 -0.9075
  136OSM   C17F14850   3.612  -0.103   7.967 -0.4485 -0.2959  0.1474
  136OSM   H17F14851   3.561  -0.198   7.992  1.6061 -0.8105  2.8710
  136OSM   H17G14852   3.548  -0.014   7.953 -2.7168 -1.8482  0.0559
  136OSM   C18F14853   3.704  -0.091   8.089 -0.1325  0.1696 -0.4981
  136OSM   H18F14854   3.746   0.011   8.103  2.4573 -1.1427  2.2997
  136OSM   H18G14855   3.790  -0.161   8.092  0.3301  0.6836  3.2274
  136OSM   H18H14856   3.655  -0.114   8.186 -0.1491 -1.5183 -0.8739
  137OSM      N14857   1.150   5.520   6.070 -0.1862  0.3324 -0.0056
  137OSM    C1514858   1.018   5.443   6.075  0.3526  0.1163  0.0715
  137OSM   H15A14859   0.938   5.507   6.112  0.1830 -0.1412  0.1522
  137OSM   H15B14860   1.020   5.359   6.142 -2.8624 -0.6325 -0.5909
  137OSM   H15C14861   0.996   5.411   5.974 -1.4521 -0.0789  0.4869
  137OSM    C1414862   1.261   5.444   5.999  0.0910 -0.2811  0.0929
  137OSM   H14A14863   1.338   5.516   5.978  0.0990  0.9606  3.7139
  137OSM   H14B14864   1.229   5.396   5.907 -0.3457  0.2225 -0.0215
  137OSM   H14C14865   1.307   5.370   6.063  0.6350  1.7223  2.1043
  137OSM    C1314866   1.133   5.650   5.992  0.2663  0.2520  0.0666
  137OSM   H13A14867   1.084   5.725   6.052 -0.0733 -0.3616  0.5803
  137OSM   H13B14868   1.067   5.644   5.907  0.5846  1.0500 -0.2366
  137OSM   H13C14869   1.231   5.691   5.974  0.1478 -0.2527 -1.9349
  137OSM    C1214870   1.194   5.549   6.217  0.2914  0.3871  0.1503
  137OSM   H12A14871   1.278   5.616   6.202  0.9903 -0.3731  0.6385
  137OSM   H12B14872   1.231   5.458   6.260 -2.9281 -0.6235  1.0756
  137OSM    C1114873   1.094   5.611   6.313 -0.7913 -0.2494  0.6210
  137OSM   H11A14874   1.059   5.712   6.282 -0.4925  0.0768  1.3308
  137OSM   H11B14875   1.159   5.632   6.400 -0.1694  1.4843 -0.2000
  137OSM      P14876   0.978   5.403   6.415  0.3254  0.1403  0.4526
  137OSM    O1314877   0.842   5.356   6.447  0.3244 -0.0634  0.7094
  137OSM    O1414878   1.054   5.299   6.346 -0.2235  0.2441 -0.4453
  137OSM    O1114879   1.055   5.443   6.548 -0.5014  0.5081 -0.2941
  137OSM    O1214880   0.975   5.541   6.343  0.6721  0.3276 -0.2144
  137OSM    C1S14881   0.992   5.547   6.631  0.4806  0.0524  0.5874
  137OSM    H1S14882   0.889   5.522   6.665  0.5502  3.7084  4.3070
  137OSM    H1T14883   1.004   5.639   6.570  2.1354 -0.9587 -0.6998
  137OSM     NF14884   0.986   5.671   6.849  0.4488  0.1587  0.5735
  137OSM    HNF14885   0.994   5.767   6.826 -1.4698  0.0368 -0.9039
  137OSM    C2S14886   1.060   5.572   6.769  0.3303 -0.4453  0.0402
  137OSM    H2S14887   1.053   5.475   6.824 -1.6932 -0.6330 -0.4912
  137OSM    C3S14888   1.216   5.605   6.737  0.8194  0.3054 -0.2695
  137OSM    H3S14889   1.215   5.705   6.689  0.1949  0.8614  0.8623
  137OSM     O314890   1.284   5.510   6.658  0.4208 -0.1729  0.3255
  137OSM    HO314891   1.217   5.459   6.610  1.3144 -0.6516 -0.4541
  137OSM    C4S14892   1.288   5.621   6.866 -0.3659 -0.0524  0.1356
  137OSM    H4S14893   1.306   5.728   6.887 -1.1579  0.2362 -0.5854
  137OSM    C5S14894   1.331   5.524   6.950  0.6942 -0.6092 -0.4672
  137OSM    H5S14895   1.312   5.420   6.918 -1.0032 -0.0829 -1.3210
  137OSM    C6S14896   1.401   5.551   7.086 -0.0122  0.3734  1.1132
  137OSM    H6S14897   1.482   5.475   7.096  0.4251  0.4690 -1.0983
  137OSM    H6T14898   1.325   5.530   7.164 -1.1226  2.0338  0.5304
  137OSM    C7S14899   1.459   5.694   7.126  0.7530 -0.5664  0.1963
  137OSM    H7S14900   1.381   5.773   7.120  2.0546  0.7314 -0.4319
  137OSM    H7T14901   1.535   5.710   7.046  0.3797 -2.3814 -0.5603
  137OSM    C8S14902   1.516   5.702   7.272  0.1391  0.5121 -0.1588
  137OSM    H8S14903   1.454   5.650   7.348 -0.4280  0.8225 -0.4019
  137OSM    H8T14904   1.532   5.807   7.307 -0.4022  0.3018  0.7504
  137OSM    C9S14905   1.664   5.651   7.275 -0.1090  0.9174  0.8817
  137OSM    H9S14906   1.722   5.702   7.196  1.5939  0.9618  2.1088
  137OSM    H9T14907   1.670   5.541   7.260  2.2054  1.1783 -0.5118
  137OSM   C10S14908   1.723   5.668   7.417 -0.5310  0.4993 -0.1895
  137OSM   H10S14909   1.665   5.623   7.501  0.8309  1.6754  1.4422
  137OSM   H10T14910   1.712   5.777   7.437  1.1648  0.4016  1.5727
  137OSM   C11S14911   1.868   5.631   7.425 -0.2773  0.5562 -0.0514
  137OSM   H11S14912   1.938   5.690   7.363 -1.4826  1.3868 -0.6508
  137OSM   H11T14913   1.878   5.527   7.387  0.2969  0.3433  0.6432
  137OSM   C12S14914   1.919   5.622   7.568 -0.4871  0.4547  0.2347
  137OSM   H12S14915   1.852   5.562   7.633 -1.6472  2.8576  1.3614
  137OSM   H12T14916   1.924   5.721   7.617  0.0907  0.4931  0.1094
  137OSM   C13S14917   2.063   5.562   7.596 -0.4028 -0.1921  0.1133
  137OSM   H13S14918   2.151   5.626   7.572 -0.7251 -0.1795 -1.1422
  137OSM   H13T14919   2.076   5.467   7.540 -1.5216  0.8316 -2.0150
  137OSM   C14S14920   2.079   5.518   7.745 -0.1209 -0.0984 -0.0548
  137OSM   H14S14921   2.015   5.429   7.760 -1.1909  0.5583 -0.6233
  137OSM   H14T14922   2.024   5.592   7.807 -0.6602  0.6198 -1.3511
  137OSM   C15S14923   2.219   5.489   7.786  0.0120 -0.0331  0.0648
  137OSM   H15S14924   2.269   5.588   7.784 -0.5487  0.2617 -2.1883
  137OSM   H15T14925   2.257   5.417   7.710 -1.3418 -0.4965 -0.1999
  137OSM   C16S14926   2.234   5.432   7.932 -0.3359 -0.0382 -0.7850
  137OSM   H16S14927   2.168   5.343   7.938 -1.7803  0.8762 -2.2378
  137OSM   H16T14928   2.204   5.508   8.007 -0.2143 -0.8035  0.0517
  137OSM   C17S14929   2.383   5.406   7.958 -0.0204  0.0023 -0.3148
  137OSM   H17S14930   2.444   5.495   7.930  0.9939 -0.7595 -0.5803
  137OSM   H17T14931   2.415   5.317   7.900  0.7651 -0.6055  0.9928
  137OSM   C18S14932   2.423   5.364   8.103  0.2368 -0.1507  0.3465
  137OSM   H18S14933   2.334   5.309   8.140  0.0872 -1.7846 -2.1993
  137OSM   H18T14934   2.432   5.457   8.164  0.5097 -0.3525  0.6155
  137OSM   H18U14935   2.506   5.291   8.108 -0.4373 -0.9109  0.5805
  137OSM    C1F14936   0.880   5.644   6.917 -0.2955  0.1505 -0.2121
  137OSM     OF14937   0.840   5.530   6.939 -0.1859 -0.0826 -0.1792
  137OSM    C2F14938   0.819   5.773   6.972 -0.2098  1.0026  0.4226
  137OSM    H2F14939   0.710   5.780   6.949  0.3140  1.7385 -2.0804
  137OSM    H2G14940   0.865   5.856   6.916  3.4585 -1.5365 -0.7083
  137OSM    C3F14941   0.846   5.780   7.131  1.0128  0.2876 -0.1741
  137OSM    H3F14942   0.790   5.696   7.176 -0.6441  2.7501  2.6834
  137OSM    H3G14943   0.799   5.874   7.167 -2.0008 -0.8813 -0.7876
  137OSM    C4F14944   0.995   5.768   7.163  0.0016  0.7935  1.0729
  137OSM    H4F14945   1.050   5.821   7.083 -2.8194  2.6694  0.1957
  137OSM    H4G14946   1.023   5.662   7.149 -1.7507  0.4430 -0.1565
  137OSM    C5F14947   1.032   5.811   7.295  0.7453  0.5648 -0.0664
  137OSM    H5F14948   0.961   5.753   7.359 -0.0539 -0.8065 -2.0741
  137OSM    H5G14949   1.009   5.918   7.313 -3.6875 -0.1719 -0.1863
  137OSM    C6F14950   1.170   5.761   7.346 -0.5304 -0.2648 -0.3403
  137OSM    H6F14951   1.259   5.809   7.300  0.0781 -0.6396  0.4200
  137OSM    H6G14952   1.193   5.652   7.346  0.0813 -0.1447 -1.0744
  137OSM    C7F14953   1.165   5.798   7.499  0.4353  0.3740 -0.9945
  137OSM    H7F14954   1.090   5.735   7.552 -0.2860  2.1265  0.1282
  137OSM    H7G14955   1.147   5.905   7.520 -1.1442  0.2382 -1.5799
  137OSM    C8F14956   1.300   5.784   7.573  0.2253  0.0399  0.0099
  137OSM    H8F14957   1.290   5.849   7.662 -0.8251  1.1991 -0.9304
  137OSM    H8G14958   1.381   5.829   7.512  0.8247 -1.8738 -0.6820
  137OSM    C9F14959   1.338   5.641   7.614  0.9002 -0.1644  0.0782
  137OSM    H9F14960   1.377   5.570   7.540 -0.4143 -1.6502  0.7652
  137OSM   C10F14961   1.326   5.582   7.734  0.3020 -0.4060 -0.6775
  137OSM   H10F14962   1.334   5.473   7.749  1.9292 -0.0731  1.2477
  137OSM   C11F14963   1.271   5.654   7.856 -0.7867  0.0734  0.6659
  137OSM   H11F14964   1.170   5.694   7.831 -0.8203 -0.5559 -0.2707
  137OSM   H11G14965   1.339   5.736   7.886 -0.1108  0.1826 -1.0544
  137OSM   C12F14966   1.252   5.553   7.979 -0.2462  0.4118 -0.7126
  137OSM   H12F14967   1.214   5.457   7.937  1.0179 -0.1097 -0.7149
  137OSM   H12G14968   1.179   5.597   8.051 -0.8856  2.3376 -2.4321
  137OSM   C13F14969   1.387   5.509   8.049  0.3197 -0.6489 -0.1057
  137OSM   H13F14970   1.445   5.453   7.972  2.2382  0.3579  0.5418
  137OSM   H13G14971   1.379   5.440   8.135 -1.0032 -0.7822 -0.3257
  137OSM   C14F14972   1.471   5.636   8.081 -0.4630  0.1356  0.8019
  137OSM   H14F14973   1.407   5.713   8.130  0.0587  0.5689  0.8131
  137OSM   H14G14974   1.514   5.691   7.994 -3.3767  0.0681 -0.8452
  137OSM   C15F14975   1.585   5.613   8.187  0.2756 -0.4057  0.5456
  137OSM   H15F14976   1.652   5.527   8.166 -1.5017 -2.0549  1.3627
  137OSM   H15G14977   1.537   5.593   8.285 -0.4587  0.9067  0.4802
  137OSM   C16F14978   1.664   5.746   8.208  0.3648 -0.5551 -0.3907
  137OSM   H16F14979   1.609   5.837   8.241 -1.0422 -1.4260 -0.2556
  137OSM   H16G14980   1.720   5.760   8.113  1.9599 -0.4333  0.5261
  137OSM   C17F14981   1.772   5.737   8.321  0.0385 -0.5746 -0.2386
  137OSM   H17F14982   1.850   5.665   8.288  0.0109  0.5734 -3.0863
  137OSM   H17G14983   1.733   5.684   8.410 -1.1856  1.8213  0.7314
  137OSM   C18F14984   1.843   5.870   8.355  0.3268 -0.6368 -0.4443
  137OSM   H18F14985   1.762   5.939   8.387 -1.5363 -2.4154 -1.0464
  137OSM   H18G14986   1.891   5.912   8.264 -0.0210 -1.0546 -0.8262
  137OSM   H18H14987   1.916   5.869   8.438 -0.6816  1.4354  0.5331
  138OSM      N14988   6.389   1.199   5.886 -0.8887  0.4856 -0.3677
  138OSM    C1514989   6.474   1.099   5.816  0.6856 -0.3794  0.7814
  138OSM   H15A14990   6.574   1.136   5.798  0.5389 -0.2937  0.1174
  138OSM   H15B14991   6.432   1.077   5.719 -2.0442 -1.3777  2.0610
  138OSM   H15C14992   6.478   1.010   5.879  0.0826  0.0591  1.4643
  138OSM    C1414993   6.401   1.326   5.809  0.2081 -0.0736  0.2321
  138OSM   H14A14994   6.393   1.316   5.702 -2.0432  2.9397 -0.0337
  138OSM   H14B14995   6.502   1.361   5.817  0.1405 -0.2159  2.0393
  138OSM   H14C14996   6.324   1.396   5.839 -0.6191 -0.9438  0.1738
  138OSM    C1314997   6.244   1.146   5.891  0.3924  0.3183 -0.2083
  138OSM   H13A14998   6.174   1.226   5.907 -1.3969 -0.9687 -1.1891
  138OSM   H13B14999   6.230   1.072   5.968  0.2562  0.4917 -0.0645
  138OSM   H13C15000   6.208   1.101   5.799  0.9047 -2.1639  0.7208
  138OSM    C1215001   6.450   1.224   6.022 -0.7607 -0.1213  0.0298
  138OSM   H12A15002   6.423   1.323   6.056 -1.4909 -0.4511  0.4456
  138OSM   H12B15003   6.557   1.221   6.008 -0.4647  0.4567  1.8724
  138OSM    C1115004   6.411   1.123   6.137 -0.7483  0.0048 -0.3601
  138OSM   H11A15005   6.302   1.129   6.158 -0.5523  1.4364  0.3625
  138OSM   H11B15006   6.459   1.163   6.229 -2.1358  3.0651 -0.8325
  138OSM      P15007   6.593   0.933   6.118 -0.3758 -0.4657 -0.1033
  138OSM    O1315008   6.590   0.786   6.104 -0.3321  0.4167  0.0408
  138OSM    O1415009   6.682   1.010   6.026  0.0289  0.0714  0.0345
  138OSM    O1115010   6.629   0.966   6.273 -0.2419 -0.4037 -0.1952
  138OSM    O1215011   6.449   0.992   6.097  0.4642 -0.3316  0.6346
  138OSM    C1S15012   6.541   0.915   6.373 -0.3076 -0.4184  0.3388
  138OSM    H1S15013   6.528   0.806   6.356 -0.6458 -0.4898  1.0275
  138OSM    H1T15014   6.442   0.963   6.355 -1.8032 -3.8754 -1.8699
  138OSM     NF15015   6.528   0.858   6.615  0.1096  0.4168 -0.7139
  138OSM    HNF15016   6.464   0.902   6.677 -0.3464 -1.5375  0.2538
  138OSM    C2S15017   6.588   0.947   6.518  0.0748  0.0543 -0.0185
  138OSM    H2S15018   6.697   0.926   6.523 -0.2607 -1.8047 -0.0407
  138OSM    C3S15019   6.564   1.097   6.551  0.0820  0.6655  0.4326
  138OSM    H3S15020   6.454   1.107   6.559 -0.0539 -0.8463  0.5966
  138OSM     O315021   6.595   1.193   6.445  0.2462 -0.1321  0.0563
  138OSM    HO315022   6.627   1.138   6.373  0.2932  0.3798 -0.3157
  138OSM    C4S15023   6.647   1.132   6.670  0.5795 -0.8831 -0.6935
  138OSM    H4S15024   6.586   1.145   6.761  0.3271  2.0236 -1.1812
  138OSM    C5S15025   6.779   1.150   6.683  0.1778  0.5704 -0.4788
  138OSM    H5S15026   6.848   1.132   6.600 -0.2384 -2.5200 -0.2843
  138OSM    C6S15027   6.841   1.182   6.816  0.1190  0.0867  0.3402
  138OSM    H6S15028   6.877   1.287   6.822  1.2137 -0.2936  0.5876
  138OSM    H6T15029   6.933   1.119   6.815  0.7220  0.8269 -2.8319
  138OSM    C7S15030   6.762   1.150   6.946 -0.3236  0.0062  0.4722
  138OSM    H7S15031   6.733   1.043   6.934  1.7231 -0.6657  1.0964
  138OSM    H7T15032   6.663   1.200   6.939 -0.1119  0.2533 -1.1950
  138OSM    C8S15033   6.839   1.168   7.074  0.2865 -0.4640  0.1915
  138OSM    H8S15034   6.872   1.273   7.093  2.0857 -1.0885  0.7061
  138OSM    H8T15035   6.921   1.094   7.080  0.0847 -0.6749  0.3728
  138OSM    C9S15036   6.751   1.123   7.192 -0.3538  0.0144  0.0498
  138OSM    H9S15037   6.722   1.016   7.183 -0.2463 -0.0486  0.4300
  138OSM    H9T15038   6.658   1.184   7.196 -0.6854 -0.5388  0.9194
  138OSM   C10S15039   6.833   1.143   7.318  0.2848 -0.4823  0.0402
  138OSM   H10S15040   6.868   1.248   7.330  2.3877 -0.9315 -1.6139
  138OSM   H10T15041   6.921   1.076   7.317  1.7531  1.3532  0.5761
  138OSM   C11S15042   6.756   1.109   7.451  0.4974  0.2348  0.6439
  138OSM   H11S15043   6.725   1.003   7.459 -0.5441  0.5070  0.3477
  138OSM   H11T15044   6.662   1.168   7.453 -1.7771 -3.0502 -1.0390
  138OSM   C12S15045   6.838   1.144   7.574  0.2885 -0.1263 -0.2763
  138OSM   H12S15046   6.885   1.244   7.561 -1.0781  0.7062  0.9294
  138OSM   H12T15047   6.918   1.067   7.578 -1.1781 -1.6678  0.5293
  138OSM   C13S15048   6.752   1.117   7.701  0.0076 -0.4200 -0.3538
  138OSM   H13S15049   6.704   1.018   7.689  0.2776 -0.1844 -6.6079
  138OSM   H13T15050   6.670   1.192   7.703  0.6674  0.3281 -0.6023
  138OSM   C14S15051   6.824   1.125   7.840 -0.8554 -0.5297  0.1349
  138OSM   H14S15052   6.848   1.228   7.874  1.4189 -0.8239 -0.4057
  138OSM   H14T15053   6.917   1.064   7.835  0.0792  0.6484  1.9073
  138OSM   C15S15054   6.751   1.059   7.956  0.6138  0.2181 -0.3171
  138OSM   H15S15055   6.748   0.949   7.940  3.4430  0.0840 -0.3103
  138OSM   H15T15056   6.654   1.110   7.973 -0.0049 -1.2767  0.9164
  138OSM   C16S15057   6.827   1.078   8.087 -1.0811  0.2866  0.3470
  138OSM   H16S15058   6.823   1.185   8.118 -0.9949  0.7655 -1.1951
  138OSM   H16T15059   6.935   1.070   8.065 -1.1978 -2.1559  0.4342
  138OSM   C17S15060   6.788   0.967   8.188  0.1227  0.2880 -0.7173
  138OSM   H17S15061   6.796   0.866   8.143  0.9032  1.1499 -2.6262
  138OSM   H17T15062   6.681   0.987   8.210 -0.3735 -0.1188 -2.5637
  138OSM   C18S15063   6.869   0.980   8.315 -0.3059  0.6277  0.1498
  138OSM   H18S15064   6.844   1.064   8.383  3.6885 -0.2672  3.0871
  138OSM   H18T15065   6.976   0.999   8.293 -0.4213  0.2911 -0.7615
  138OSM   H18U15066   6.870   0.884   8.371  1.0688 -0.2150 -1.2226
  138OSM    C1F15067   6.550   0.723   6.615 -0.6201  0.1078  0.0926
  138OSM     OF15068   6.623   0.679   6.534 -0.2499  0.0317  0.1396
  138OSM    C2F15069   6.466   0.641   6.707  0.3942  0.1813  0.4862
  138OSM    H2F15070   6.427   0.554   6.649  0.0099  2.5640 -3.1574
  138OSM    H2G15071   6.379   0.694   6.749  1.0905  2.1113 -0.3945
  138OSM    C3F15072   6.550   0.601   6.829 -0.5866  0.3182 -0.5624
  138OSM    H3F15073   6.586   0.697   6.872  0.2645  0.7631 -2.2012
  138OSM    H3G15074   6.638   0.543   6.794 -0.7375 -0.6791  0.6228
  138OSM    C4F15075   6.474   0.522   6.932  0.3973 -0.4838 -0.1540
  138OSM    H4F15076   6.439   0.427   6.888  2.2674 -1.1997 -0.1728
  138OSM    H4G15077   6.384   0.583   6.959 -0.1990 -1.5079  0.2522
  138OSM    C5F15078   6.571   0.493   7.053  0.0692  0.5157 -0.8553
  138OSM    H5F15079   6.607   0.592   7.088  0.9994 -0.0368 -0.1914
  138OSM    H5G15080   6.665   0.448   7.015 -0.0793 -0.4737 -0.0811
  138OSM    C6F15081   6.526   0.402   7.173  0.4346  0.4883  0.0637
  138OSM    H6F15082   6.615   0.378   7.236 -0.7400 -0.0595  1.5731
  138OSM    H6G15083   6.486   0.301   7.149  1.8317 -0.1686  0.3921
  138OSM    C7F15084   6.418   0.466   7.269  0.0521 -0.0029 -0.0918
  138OSM    H7F15085   6.318   0.473   7.219  0.0176 -0.1864 -0.0482
  138OSM    H7G15086   6.453   0.570   7.287  0.6654  0.4885 -3.4398
  138OSM    C8F15087   6.413   0.383   7.398 -0.7469  0.0016  0.3600
  138OSM    H8F15088   6.518   0.374   7.434 -0.4283 -0.7004 -0.6777
  138OSM    H8G15089   6.384   0.279   7.371 -1.4872  0.5777 -1.1848
  138OSM    C9F15090   6.323   0.447   7.496  0.4784 -0.3818  1.1025
  138OSM    H9F15091   6.240   0.496   7.444  0.0286 -0.3700  1.8273
  138OSM   C10F15092   6.331   0.447   7.632 -0.4642  0.6627  0.1300
  138OSM   H10F15093   6.252   0.490   7.695 -0.4142 -0.6485  1.1334
  138OSM   C11F15094   6.434   0.370   7.712  0.1226  0.4891 -0.7033
  138OSM   H11F15095   6.521   0.439   7.706 -0.6466  2.0798  3.1172
  138OSM   H11G15096   6.456   0.272   7.666 -3.1783  0.2252 -1.9946
  138OSM   C12F15097   6.392   0.356   7.855 -0.2412 -0.0728 -0.2736
  138OSM   H12F15098   6.354   0.452   7.895  1.8649  1.2789 -1.2994
  138OSM   H12G15099   6.477   0.316   7.915  0.4427 -0.0006 -1.1646
  138OSM   C13F15100   6.283   0.249   7.876  0.5182  0.9056 -0.1054
  138OSM   H13F15101   6.312   0.151   7.832 -4.9186 -1.9949  1.8415
  138OSM   H13G15102   6.187   0.277   7.826  0.0631  1.7119  1.1763
  138OSM   C14F15103   6.250   0.227   8.017  0.1599 -0.7705 -0.3716
  138OSM   H14F15104   6.345   0.220   8.074 -0.2144  1.1625  0.5635
  138OSM   H14G15105   6.199   0.130   8.034 -0.0010 -0.5845  0.2294
  138OSM   C15F15106   6.161   0.334   8.079 -0.4719  0.1465  0.1743
  138OSM   H15F15107   6.058   0.297   8.057  0.8050 -2.1317 -2.8194
  138OSM   H15G15108   6.170   0.429   8.023  0.9115  0.7556  1.3797
  138OSM   C16F15109   6.171   0.344   8.228  0.2529 -0.7371 -0.7099
  138OSM   H16F15110   6.140   0.246   8.267  2.1622 -0.7040  1.0909
  138OSM   H16G15111   6.096   0.417   8.265  2.6636  0.5471  2.0743
  138OSM   C17F15112   6.304   0.399   8.273 -0.5899 -0.3589  0.2177
  138OSM   H17F15113   6.339   0.489   8.218 -0.0112 -1.7217 -1.7454
  138OSM   H17G15114   6.381   0.323   8.247 -0.0922 -0.3063  1.4494
  138OSM   C18F15115   6.318   0.415   8.422  0.6234 -0.0223 -0.7934
  138OSM   H18F15116   6.252   0.342   8.475 -1.2302  0.8415 -1.8169
  138OSM   H18G15117   6.295   0.516   8.464  0.0038 -0.5576  0.2134
  138OSM   H18H15118   6.421   0.399   8.460  0.5429  0.4284 -0.3694
  139OSM      N15119   5.582   1.127   5.873 -0.3313 -0.2108  0.2906
  139OSM    C1515120   5.496   1.255   5.865 -0.6772 -0.0866  0.4780
  139OSM   H15A15121   5.477   1.275   5.760 -1.7713 -2.0575  0.2430
  139OSM   H15B15122   5.557   1.340   5.892  0.8325 -0.7216 -0.7302
  139OSM   H15C15123   5.412   1.256   5.932 -1.8828  2.8680 -0.8882
  139OSM    C1415124   5.493   1.021   5.821  0.4172 -0.1185  0.0011
  139OSM   H14A15125   5.470   1.049   5.719 -0.8474 -0.5030  0.1736
  139OSM   H14B15126   5.399   1.020   5.874  0.0514  0.4666 -0.6246
  139OSM   H14C15127   5.537   0.924   5.838  0.0441 -0.2505  0.2176
  139OSM    C1315128   5.705   1.141   5.786  0.6150  0.6014  0.6562
  139OSM   H13A15129   5.750   1.045   5.766 -0.1315 -0.1270  2.2691
  139OSM   H13B15130   5.768   1.206   5.844  1.8303  0.2865 -0.2959
  139OSM   H13C15131   5.673   1.186   5.694 -1.7008 -1.0535  0.5596
  139OSM    C1215132   5.619   1.105   6.029 -0.2394 -0.2795 -0.4838
  139OSM   H12A15133   5.686   1.020   6.022  0.3174 -0.0566  1.5526
  139OSM   H12B15134   5.536   1.053   6.073  0.0043 -1.0748 -0.9345
  139OSM    C1115135   5.662   1.217   6.116 -0.4846 -0.4153  0.3778
  139OSM   H11A15136   5.692   1.183   6.217  1.7249 -0.9701 -0.4099
  139OSM   H11B15137   5.578   1.289   6.130  0.0062 -0.0760  1.7495
  139OSM      P15138   5.924   1.247   6.079 -0.7049 -0.1567  0.1561
  139OSM    O1315139   5.942   1.102   6.066 -0.7473 -0.3414 -0.0792
  139OSM    O1415140   6.023   1.326   6.001 -0.5442  0.3032 -0.2274
  139OSM    O1115141   5.934   1.283   6.232  0.3840  0.3216 -0.2849
  139OSM    O1215142   5.770   1.288   6.050 -0.5912  0.0034 -0.2668
  139OSM    C1S15143   6.062   1.290   6.292  0.2283  1.0085 -0.0355
  139OSM    H1S15144   6.132   1.366   6.249  1.4507  0.7611  1.4334
  139OSM    H1T15145   6.111   1.191   6.287 -1.0875  0.2767  0.9251
  139OSM     NF15146   6.161   1.343   6.525  0.4877 -0.4330 -0.4024
  139OSM    HNF15147   6.181   1.267   6.585  1.5270 -1.2489 -1.7351
  139OSM    C2S15148   6.035   1.326   6.447  0.3462 -0.3790  0.5143
  139OSM    H2S15149   5.980   1.422   6.447 -1.8737 -1.5757 -0.6574
  139OSM    C3S15150   5.935   1.228   6.511 -0.2194  0.5980  0.1816
  139OSM    H3S15151   5.979   1.126   6.508 -0.5289  0.3522  2.3380
  139OSM     O315152   5.808   1.206   6.445  0.0893  0.5554  0.1780
  139OSM    HO315153   5.815   1.232   6.353  0.2955 -1.7038 -0.4951
  139OSM    C4S15154   5.923   1.266   6.659  0.5613  1.2319  0.9209
  139OSM    H4S15155   6.010   1.219   6.708  0.2907  0.6644  0.8637
  139OSM    C5S15156   5.836   1.336   6.736  0.5190 -0.5692 -0.4124
  139OSM    H5S15157   5.749   1.392   6.698  0.3382 -1.0732 -0.7555
  139OSM    C6S15158   5.848   1.338   6.885 -0.6396  0.2140 -0.2746
  139OSM    H6S15159   5.747   1.340   6.932 -1.5938 -1.7286 -2.0905
  139OSM    H6T15160   5.893   1.437   6.908 -0.7789 -0.1086  1.5707
  139OSM    C7S15161   5.934   1.224   6.948  0.1095 -0.5204  0.4732
  139OSM    H7S15162   6.037   1.259   6.927 -0.7839  1.4701 -0.8905
  139OSM    H7T15163   5.924   1.133   6.885  0.6075 -2.0177  2.4854
  139OSM    C8S15164   5.921   1.199   7.098 -0.9271 -0.3007  0.3333
  139OSM    H8S15165   5.964   1.098   7.112  0.6311 -0.1343 -2.4640
  139OSM    H8T15166   5.815   1.199   7.130 -0.8822  2.7288  0.8600
  139OSM    C9S15167   5.997   1.301   7.182  0.5587 -0.3807 -0.1367
  139OSM    H9S15168   5.996   1.399   7.129  1.0771  0.1964  0.9026
  139OSM    H9T15169   6.104   1.274   7.184  0.8051  0.2386 -2.4040
  139OSM   C10S15170   5.939   1.324   7.325 -0.0294  0.1183  0.3804
  139OSM   H10S15171   5.917   1.221   7.359 -0.7355  0.8225  2.1563
  139OSM   H10T15172   5.844   1.382   7.318 -0.2727 -0.4022 -1.2611
  139OSM   C11S15173   6.034   1.413   7.399 -0.1957  0.3384  0.1179
  139OSM   H11S15174   6.050   1.510   7.348  1.7343 -1.2660 -2.6282
  139OSM   H11T15175   6.131   1.360   7.391 -0.3283  0.1013  0.0769
  139OSM   C12S15176   5.992   1.425   7.555 -0.2352  0.4034  0.0804
  139OSM   H12S15177   5.894   1.478   7.554 -0.0112  0.8211 -0.2280
  139OSM   H12T15178   6.070   1.484   7.608 -0.3368 -0.2815  0.9996
  139OSM   C13S15179   5.979   1.285   7.617  0.5773 -0.0783  0.0896
  139OSM   H13S15180   6.072   1.225   7.617  0.1589 -0.7346  0.4873
  139OSM   H13T15181   5.907   1.232   7.551  1.3686  0.8759 -1.5995
  139OSM   C14S15182   5.919   1.290   7.754  1.3562 -0.5530  0.1024
  139OSM   H14S15183   5.880   1.189   7.778 -2.1554  0.6379 -0.1569
  139OSM   H14T15184   5.832   1.358   7.747 -1.2568 -3.7106 -0.5097
  139OSM   C15S15185   6.017   1.345   7.856 -0.2003  0.0550 -0.7959
  139OSM   H15S15186   6.057   1.441   7.818 -1.3980  1.4797  1.3230
  139OSM   H15T15187   6.105   1.277   7.856  0.5686  0.9697  1.5200
  139OSM   C16S15188   5.963   1.357   7.998  0.2435 -0.3388  1.0354
  139OSM   H16S15189   5.891   1.442   7.993  1.0127  0.2770 -2.1939
  139OSM   H16T15190   6.039   1.391   8.071  0.1768  0.8736  0.5585
  139OSM   C17S15191   5.898   1.230   8.037  0.1572  0.3512 -0.6670
  139OSM   H17S15192   5.806   1.229   7.973 -0.4213  0.8924  0.1344
  139OSM   H17T15193   5.875   1.250   8.144  0.8175 -3.8594  0.4099
  139OSM   C18S15194   5.973   1.103   8.028  0.3054  0.6532 -0.2085
  139OSM   H18S15195   6.007   1.088   7.924  0.4001  1.3925 -0.2918
  139OSM   H18T15196   5.901   1.022   8.053  0.1669  1.6132  3.0931
  139OSM   H18U15197   6.060   1.090   8.097 -0.9951  0.5486  1.4810
  139OSM    C1F15198   6.242   1.443   6.505  0.0948 -0.7443 -0.5580
  139OSM     OF15199   6.221   1.532   6.420 -0.5363 -0.1357 -0.2351
  139OSM    C2F15200   6.366   1.431   6.578 -0.0817  0.6967 -0.3208
  139OSM    H2F15201   6.443   1.450   6.500 -0.0359  0.4528 -0.3366
  139OSM    H2G15202   6.371   1.329   6.624 -0.1134  1.5808  1.7729
  139OSM    C3F15203   6.388   1.533   6.694  1.0306  0.7853  1.0681
  139OSM    H3F15204   6.401   1.630   6.642  0.8688 -0.4076 -1.3136
  139OSM    H3G15205   6.486   1.514   6.742  1.6716 -1.2158 -0.8747
  139OSM    C4F15206   6.285   1.526   6.803 -0.0871  0.6919 -0.2986
  139OSM    H4F15207   6.186   1.538   6.753  1.3575 -0.6980 -3.8456
  139OSM    H4G15208   6.289   1.615   6.869 -1.0656  0.6144 -0.1240
  139OSM    C5F15209   6.268   1.391   6.876 -0.3611  0.0172  0.0432
  139OSM    H5F15210   6.218   1.319   6.808 -0.5508 -0.8573  1.0690
  139OSM    H5G15211   6.201   1.414   6.962  1.0314  3.6809  0.3220
  139OSM    C6F15212   6.403   1.348   6.937 -0.9916 -0.0515 -0.7232
  139OSM    H6F15213   6.482   1.339   6.859  1.7672  0.4588  1.8316
  139OSM    H6G15214   6.396   1.250   6.988  3.0284  0.1173  0.5390
  139OSM    C7F15215   6.451   1.450   7.039 -0.0462  0.3181  0.4338
  139OSM    H7F15216   6.457   1.550   6.993  0.4937  0.3417  0.5587
  139OSM    H7G15217   6.552   1.418   7.072 -1.2352 -1.7639  2.4157
  139OSM    C8F15218   6.366   1.481   7.173 -0.9929  0.1680 -0.2481
  139OSM    H8F15219   6.349   1.379   7.214 -1.8359 -0.8256 -2.8558
  139OSM    H8G15220   6.269   1.530   7.148 -1.9211 -1.1943  0.5534
  139OSM    C9F15221   6.441   1.570   7.266  0.3518  0.3443  0.5521
  139OSM    H9F15222   6.477   1.665   7.224  0.0068 -0.3133 -1.3023
  139OSM   C10F15223   6.471   1.559   7.394 -0.0687 -0.7483  0.1703
  139OSM   H10F15224   6.517   1.648   7.439  1.1775 -1.8197  1.1084
  139OSM   C11F15225   6.428   1.450   7.489 -0.6979  1.0516 -0.3477
  139OSM   H11F15226   6.508   1.374   7.502 -2.8547 -1.2785 -0.0399
  139OSM   H11G15227   6.340   1.387   7.464 -0.4474  0.6728 -0.2659
  139OSM   C12F15228   6.405   1.516   7.626  0.3505  0.0542  0.4253
  139OSM   H12F15229   6.318   1.584   7.616 -0.2824 -1.0750 -3.4945
  139OSM   H12G15230   6.494   1.573   7.658 -0.4007  0.5186  1.7875
  139OSM   C13F15231   6.380   1.410   7.735 -0.2578 -0.3532 -0.4986
  139OSM   H13F15232   6.469   1.344   7.729  0.7354  0.6621  1.9637
  139OSM   H13G15233   6.298   1.338   7.712  1.0723 -1.7498 -0.9812
  139OSM   C14F15234   6.352   1.480   7.869 -0.1213 -0.2531  0.7555
  139OSM   H14F15235   6.322   1.409   7.950  1.4469  0.2128  1.7868
  139OSM   H14G15236   6.281   1.563   7.849  0.7735  1.2119  3.2316
  139OSM   C15F15237   6.478   1.544   7.922  0.4382  0.3935  0.6719
  139OSM   H15F15238   6.453   1.606   8.011  3.3470  1.5260  0.8127
  139OSM   H15G15239   6.519   1.615   7.847  1.6619 -0.4735  0.4928
  139OSM   C16F15240   6.571   1.447   7.987 -0.4634 -0.0065 -0.6323
  139OSM   H16F15241   6.579   1.358   7.920 -0.0257 -0.5656  0.1400
  139OSM   H16G15242   6.525   1.411   8.081  1.3546  1.2915  0.8312
  139OSM   C17F15243   6.711   1.515   8.010 -0.1365  0.3130  0.0700
  139OSM   H17F15244   6.770   1.448   8.075 -2.9451  0.0434  2.5602
  139OSM   H17G15245   6.691   1.599   8.080 -1.9707 -0.1165  0.1135
  139OSM   C18F15246   6.796   1.544   7.887  0.1546 -0.9104 -0.7075
  139OSM   H18F15247   6.742   1.625   7.833  0.9882  0.0837 -0.0820
  139OSM   H18G15248   6.811   1.460   7.815 -0.8993 -1.3743 -0.4043
  139OSM   H18H15249   6.885   1.600   7.922  0.7872 -0.8415 -2.3166
  140OSM      N15250   0.152   2.448   6.373  0.2956  0.3980  0.5522
  140OSM    C1515251   0.083   2.398   6.247 -0.6026  0.6536  0.1547
  140OSM   H15A15252   0.157   2.353   6.184  1.0225  1.3094  1.5243
  140OSM   H15B15253   0.025   2.473   6.194 -2.7919 -1.2619 -0.3240
  140OSM   H15C15254   0.004   2.332   6.279  0.5086 -1.1243 -0.5987
  140OSM    C1415255   0.187   2.338   6.469 -0.1406  0.4549 -0.5067
  140OSM   H14A15256   0.104   2.273   6.495  1.7490 -2.2037 -0.6508
  140OSM   H14B15257   0.220   2.380   6.563 -0.7047 -0.5842  0.1792
  140OSM   H14C15258   0.257   2.272   6.419  0.1442  0.2622  0.1320
  140OSM    C1315259   0.285   2.512   6.331 -0.5203  0.8813 -0.4086
  140OSM   H13A15260   0.348   2.545   6.412  1.4338  0.8069 -1.8406
  140OSM   H13B15261   0.275   2.586   6.254  0.1881  2.2348  0.7606
  140OSM   H13C15262   0.356   2.440   6.294  2.9827  3.0356  1.6241
  140OSM    C1215263   0.064   2.554   6.436  0.4466  0.4421  0.6653
  140OSM   H12A15264   0.044   2.639   6.372 -1.4873  0.3295  1.0709
  140OSM   H12B15265   0.108   2.587   6.529  1.0956 -0.5992  0.7426
  140OSM    C1115266  -0.082   2.513   6.474  0.5567 -0.0328  0.3304
  140OSM   H11A15267  -0.129   2.598   6.528  0.4004 -0.1729  0.4141
  140OSM   H11B15268  -0.074   2.432   6.549  1.4536  0.9935  1.3897
  140OSM      P15269  -0.266   2.359   6.364 -0.0907  0.0906 -0.0950
  140OSM    O1315270  -0.357   2.382   6.251 -0.5234  0.5869  0.3254
  140OSM    O1415271  -0.189   2.236   6.365  0.0415  0.0866 -0.4272
  140OSM    O1115272  -0.350   2.378   6.497  0.4060  0.0028 -0.6398
  140OSM    O1215273  -0.170   2.477   6.365 -0.1347 -0.3396  0.2527
  140OSM    C1S15274  -0.401   2.503   6.540 -0.2398 -0.4647 -0.0931
  140OSM    H1S15275  -0.503   2.508   6.497 -0.2289  0.0030 -0.0714
  140OSM    H1T15276  -0.334   2.584   6.504  2.0286 -1.8373  0.7497
  140OSM     NF15277  -0.471   2.648   6.723  0.5383 -0.6078 -0.5191
  140OSM    HNF15278  -0.413   2.727   6.737 -0.1600  0.1085 -1.5573
  140OSM    C2S15279  -0.406   2.522   6.698 -0.2380 -0.1757 -1.2211
  140OSM    H2S15280  -0.461   2.443   6.754  2.0739  0.1802  1.8256
  140OSM    C3S15281  -0.265   2.512   6.763  0.5479 -0.1139  0.2791
  140OSM    H3S15282  -0.214   2.595   6.709  0.6996 -1.9116 -2.4859
  140OSM     O315283  -0.209   2.383   6.752 -0.1808 -0.0821 -0.3167
  140OSM    HO315284  -0.261   2.338   6.684 -0.2935  0.2795 -0.4701
  140OSM    C4S15285  -0.275   2.549   6.908  0.0815 -0.0993 -0.3569
  140OSM    H4S15286  -0.270   2.654   6.939 -0.3014 -0.3788  0.6737
  140OSM    C5S15287  -0.291   2.457   7.009 -0.1910  0.6953  0.0946
  140OSM    H5S15288  -0.311   2.351   6.985 -1.7203  0.7909  0.7965
  140OSM    C6S15289  -0.288   2.493   7.151  0.5522  0.2745 -0.0844
  140OSM    H6S15290  -0.360   2.434   7.212  0.0820  0.0755 -0.8095
  140OSM    H6T15291  -0.309   2.601   7.163  0.9141  0.4476 -0.9358
  140OSM    C7S15292  -0.144   2.465   7.207  0.0784 -0.0844 -0.9449
  140OSM    H7S15293  -0.074   2.534   7.156  0.4167  1.4949  1.4524
  140OSM    H7T15294  -0.110   2.362   7.185  2.0041 -0.0792  1.5444
  140OSM    C8S15295  -0.133   2.461   7.361  0.1965 -0.5567  0.1219
  140OSM    H8S15296  -0.217   2.400   7.401 -0.1598 -1.3695 -1.7274
  140OSM    H8T15297  -0.127   2.563   7.404  1.0316 -0.3356 -0.5006
  140OSM    C9S15298   0.006   2.400   7.401 -0.2682  0.1876 -0.4788
  140OSM    H9S15299   0.081   2.453   7.339  0.9365 -0.3142  0.5037
  140OSM    H9T15300   0.008   2.291   7.379 -0.0322 -0.6202  2.9628
  140OSM   C10S15301   0.055   2.409   7.544 -0.7107 -0.4421  0.5473
  140OSM   H10S15302   0.051   2.513   7.583 -1.3706 -0.3205  0.1781
  140OSM   H10T15303   0.163   2.385   7.535 -0.4436 -0.2377  2.6962
  140OSM   C11S15304  -0.015   2.314   7.645  0.0585 -0.6001 -0.2320
  140OSM   H11S15305   0.066   2.284   7.716 -1.4537 -2.7574  0.7156
  140OSM   H11T15306  -0.054   2.219   7.603 -0.9752  0.0899 -0.8540
  140OSM   C12S15307  -0.132   2.378   7.721 -0.7324  0.3262 -0.3288
  140OSM   H12S15308  -0.173   2.302   7.791  0.3173 -1.2601 -1.3533
  140OSM   H12T15309  -0.216   2.393   7.649 -1.8596  0.3020  0.9325
  140OSM   C13S15310  -0.117   2.509   7.799 -0.4255  0.8766  0.4022
  140OSM   H13S15311  -0.219   2.546   7.825 -1.2018  0.4944 -1.8886
  140OSM   H13T15312  -0.079   2.594   7.738  0.5278 -0.3083 -0.6845
  140OSM   C14S15313  -0.023   2.492   7.924  0.3246  0.0608  0.4671
  140OSM   H14S15314   0.062   2.429   7.891  0.0572  0.6562 -1.5403
  140OSM   H14T15315  -0.073   2.429   8.001 -1.2798  1.0429  0.2859
  140OSM   C15S15316   0.021   2.620   7.976 -0.4440  0.2122 -0.5717
  140OSM   H15S15317  -0.066   2.684   8.000 -0.5288  0.9227 -2.5444
  140OSM   H15T15318   0.086   2.671   7.901 -1.1491  2.2232  0.1233
  140OSM   C16S15319   0.104   2.602   8.102 -0.1811 -0.4101 -0.8544
  140OSM   H16S15320   0.201   2.554   8.076 -0.0543 -1.4802  1.3190
  140OSM   H16T15321   0.059   2.526   8.170 -0.0666  0.4059  0.1620
  140OSM   C17S15322   0.111   2.732   8.186  0.0802  0.2389 -0.2671
  140OSM   H17S15323   0.005   2.736   8.220 -0.1389  0.6576 -0.9702
  140OSM   H17T15324   0.107   2.823   8.121 -4.1412  0.7213  0.4138
  140OSM   C18S15325   0.221   2.738   8.295 -0.6383 -0.1260 -0.1538
  140OSM   H18S15326   0.215   2.833   8.353 -1.3286  0.8143 -1.6915
  140OSM   H18T15327   0.327   2.733   8.260 -0.4578  0.3519  0.3173
  140OSM   H18U15328   0.207   2.655   8.367  0.2029  1.2117  1.6336
  140OSM    C1F15329  -0.601   2.675   6.702  0.0594  0.0329 -0.1937
  140OSM     OF15330  -0.676   2.589   6.656 -0.0362 -0.3354  0.7833
  140OSM    C2F15331  -0.643   2.816   6.713  0.0764  0.0016 -0.7200
  140OSM    H2F15332  -0.722   2.843   6.639 -0.7790  2.6274  1.0204
  140OSM    H2G15333  -0.555   2.883   6.704 -0.3438  0.8002  0.8689
  140OSM    C3F15334  -0.713   2.837   6.851  0.4510  0.2492  0.5355
  140OSM    H3F15335  -0.793   2.763   6.870  1.5195 -0.7714  1.1977
  140OSM    H3G15336  -0.758   2.938   6.853  1.6602  0.8178  0.1734
  140OSM    C4F15337  -0.639   2.844   6.982  0.4151 -0.1312 -0.3007
  140OSM    H4F15338  -0.593   2.943   7.000 -0.0745 -0.4622  3.5051
  140OSM    H4G15339  -0.562   2.763   6.978 -0.1318 -0.6956  0.3207
  140OSM    C5F15340  -0.723   2.816   7.104  0.3722  0.1701 -0.4017
  140OSM    H5F15341  -0.731   2.706   7.118 -2.3755  0.5351  1.8410
  140OSM    H5G15342  -0.824   2.861   7.100 -1.4411 -3.2374  1.5220
  140OSM    C6F15343  -0.677   2.867   7.241 -0.5702 -0.2428  0.1889
  140OSM    H6F15344  -0.752   2.854   7.322  0.2134  0.8635  1.1312
  140OSM    H6G15345  -0.645   2.973   7.245 -0.1666 -0.2806 -1.4231
  140OSM    C7F15346  -0.549   2.790   7.284 -0.2420 -0.1616  0.3207
  140OSM    H7F15347  -0.466   2.816   7.216  0.3252 -1.4239  0.4945
  140OSM    H7G15348  -0.575   2.682   7.278  1.0431 -0.4225 -1.1073
  140OSM    C8F15349  -0.518   2.827   7.434  0.7549 -0.2508  0.0223
  140OSM    H8F15350  -0.601   2.772   7.484 -0.6571  1.9378  0.2228
  140OSM    H8G15351  -0.526   2.938   7.442  0.1578 -0.1202 -1.7904
  140OSM    C9F15352  -0.383   2.767   7.466  1.1147 -0.1419 -0.0254
  140OSM    H9F15353  -0.337   2.725   7.375 -0.5549 -2.7860  0.2281
  140OSM   C10F15354  -0.328   2.756   7.579  0.2683 -0.1261 -0.5290
  140OSM   H10F15355  -0.223   2.724   7.583  0.0096 -0.9275  1.3639
  140OSM   C11F15356  -0.387   2.792   7.711 -0.5308 -0.2859  0.1354
  140OSM   H11F15357  -0.445   2.704   7.744  0.2717 -0.6815  0.5313
  140OSM   H11G15358  -0.461   2.873   7.693  0.8525  0.9730 -0.0966
  140OSM   C12F15359  -0.288   2.851   7.816  0.1698 -0.7861 -0.0281
  140OSM   H12F15360  -0.281   2.955   7.779 -3.1718 -1.1047 -1.9620
  140OSM   H12G15361  -0.184   2.816   7.832  0.2680 -0.4291  0.1169
  140OSM   C13F15362  -0.348   2.841   7.957  0.2393 -0.0142 -0.0096
  140OSM   H13F15363  -0.329   2.733   7.971 -1.6370 -0.1238  2.3671
  140OSM   H13G15364  -0.458   2.854   7.960  0.2227 -0.2431  2.0753
  140OSM   C14F15365  -0.279   2.941   8.057  0.2133 -0.3571  0.5727
  140OSM   H14F15366  -0.287   3.044   8.015 -1.7637 -0.3989  0.7403
  140OSM   H14G15367  -0.172   2.914   8.062  0.7816  1.3768 -0.9560
  140OSM   C15F15368  -0.332   2.953   8.198  0.0218 -0.0752 -0.2662
  140OSM   H15F15369  -0.254   3.001   8.261  0.2824 -1.1913  0.2849
  140OSM   H15G15370  -0.324   2.849   8.237  2.1926 -1.1483 -3.1920
  140OSM   C16F15371  -0.480   3.020   8.219  0.5561  0.1917 -0.2711
  140OSM   H16F15372  -0.507   2.976   8.317  0.2488 -2.0121 -1.2872
  140OSM   H16G15373  -0.548   2.988   8.136  2.9042 -2.7703 -1.2395
  140OSM   C17F15374  -0.484   3.172   8.245 -0.1863 -0.2066 -0.1461
  140OSM   H17F15375  -0.453   3.215   8.148 -0.3216  0.8637  0.2731
  140OSM   H17G15376  -0.407   3.202   8.319 -0.5492 -1.3045  0.7046
  140OSM   C18F15377  -0.625   3.223   8.279 -0.2386  0.4103 -0.7478
  140OSM   H18F15378  -0.713   3.177   8.228 -0.3135  1.2208 -1.3789
  140OSM   H18G15379  -0.639   3.329   8.247  0.6547  1.2680  1.5474
  140OSM   H18H15380  -0.643   3.213   8.388 -0.7705 -2.4673 -1.0061
  141OSM      N15381   0.430   5.659   6.327 -0.0316 -0.8890  0.4493
  141OSM    C1515382   0.527   5.545   6.327 -0.4014  0.1460  0.4893
  141OSM   H15A15383   0.513   5.472   6.405  2.8223  0.5890  1.6345
  141OSM   H15B15384   0.625   5.590   6.338  0.0625 -0.9973  1.1971
  141OSM   H15C15385   0.529   5.485   6.237  1.5066  0.1127  0.5082
  141OSM    C1415386   0.464   5.748   6.210  0.0863  0.0600  0.1628
  141OSM   H14A15387   0.464   5.704   6.111 -1.1508 -2.8261  1.3340
  141OSM   H14B15388   0.570   5.769   6.220  0.8093 -1.5288 -2.8523
  141OSM   H14C15389   0.419   5.846   6.219  0.9218  0.6794 -1.7914
  141OSM    C1315390   0.292   5.615   6.330  0.6125 -0.3887 -0.7719
  141OSM   H13A15391   0.223   5.698   6.337 -0.4784 -1.3758  0.7589
  141OSM   H13B15392   0.265   5.553   6.414 -0.4791 -1.2745 -1.7543
  141OSM   H13C15393   0.257   5.568   6.239 -1.3052  0.4891 -0.5384
  141OSM    C1215394   0.444   5.736   6.463 -0.4304 -0.3376 -0.4732
  141OSM   H12A15395   0.415   5.678   6.549  1.7368 -1.4888 -0.4439
  141OSM   H12B15396   0.375   5.819   6.460  0.2249  0.2218 -0.3250
  141OSM    C1115397   0.590   5.779   6.500 -0.7254  0.2440  0.3920
  141OSM   H11A15398   0.657   5.692   6.512 -0.3857  0.2905 -1.0080
  141OSM   H11B15399   0.591   5.814   6.605  0.7883  0.3500  0.3646
  141OSM      P15400   0.690   6.017   6.424 -0.3407  0.3486 -0.0206
  141OSM    O1315401   0.839   6.033   6.430  0.0386 -0.1726 -0.7379
  141OSM    O1415402   0.620   6.112   6.333  0.4120  0.3985  0.0154
  141OSM    O1115403   0.643   6.047   6.561 -0.1988 -0.1886  0.7456
  141OSM    O1215404   0.655   5.869   6.407 -0.6789  0.1713  0.4844
  141OSM    C1S15405   0.525   6.129   6.586  0.2722 -0.1781 -0.2063
  141OSM    H1S15406   0.438   6.092   6.527  0.1253  1.2259 -0.9089
  141OSM    H1T15407   0.543   6.235   6.558  1.1884  0.5729  2.8767
  141OSM     NF15408   0.356   6.206   6.758  0.2407  0.4660  0.5630
  141OSM    HNF15409   0.368   6.300   6.789  1.2375  0.3704  0.5314
  141OSM    C2S15410   0.484   6.139   6.734 -0.3873 -0.1347  0.2069
  141OSM    H2S15411   0.489   6.032   6.765 -3.2160 -0.5553 -0.5138
  141OSM    C3S15412   0.604   6.201   6.822 -0.6069  0.1675  0.7667
  141OSM    H3S15413   0.634   6.298   6.776 -1.5960  0.6777  1.1785
  141OSM     O315414   0.725   6.122   6.803  0.0954 -0.4796  0.0938
  141OSM    HO315415   0.698   6.059   6.736  1.5220 -1.2966  0.2532
  141OSM    C4S15416   0.573   6.201   6.967 -0.3631 -0.0998 -0.1761
  141OSM    H4S15417   0.500   6.280   6.990 -0.3624  0.3209 -1.5106
  141OSM    C5S15418   0.613   6.124   7.077 -0.0153  0.0820  0.3269
  141OSM    H5S15419   0.681   6.038   7.067 -1.1418 -0.8100  0.0021
  141OSM    C6S15420   0.557   6.160   7.215 -0.4959  0.0641  0.2848
  141OSM    H6S15421   0.514   6.068   7.259  0.2876 -1.3671 -1.8185
  141OSM    H6T15422   0.477   6.237   7.212  1.1451  1.8230 -2.2299
  141OSM    C7S15423   0.676   6.213   7.296  0.4299 -1.0933 -0.3173
  141OSM    H7S15424   0.707   6.307   7.246  0.4405 -0.8088  0.2180
  141OSM    H7T15425   0.767   6.152   7.278 -0.0728 -1.5424 -1.4568
  141OSM    C8S15426   0.633   6.209   7.440  0.0648  0.4126  0.0298
  141OSM    H8S15427   0.583   6.117   7.476 -0.6500  1.6219  2.3650
  141OSM    H8T15428   0.563   6.290   7.471  0.2654  0.1777  1.1325
  141OSM    C9S15429   0.761   6.226   7.533  0.3930 -0.5012  0.1565
  141OSM    H9S15430   0.811   6.316   7.492  0.0437 -0.5740 -0.4387
  141OSM    H9T15431   0.813   6.131   7.510 -2.6828 -2.0478 -0.9643
  141OSM   C10S15432   0.719   6.247   7.676 -0.2994  0.1134  0.3495
  141OSM   H10S15433   0.663   6.156   7.705 -0.7493 -0.0661 -0.9757
  141OSM   H10T15434   0.652   6.336   7.678 -0.5331 -0.0712  1.2213
  141OSM   C11S15435   0.845   6.274   7.766  0.1896 -0.5782  0.4537
  141OSM   H11S15436   0.901   6.359   7.719  0.0668 -0.1622  1.0532
  141OSM   H11T15437   0.912   6.186   7.760 -1.3837 -1.7184 -1.8659
  141OSM   C12S15438   0.825   6.304   7.917 -0.0707 -0.2821 -0.1085
  141OSM   H12S15439   0.812   6.205   7.965 -0.9142  0.8598  2.1296
  141OSM   H12T15440   0.723   6.343   7.938 -0.7970 -1.7351 -0.8129
  141OSM   C13S15441   0.943   6.378   7.983 -0.2908 -0.4717  0.2750
  141OSM   H13S15442   0.944   6.483   7.949  0.0571 -0.2198  1.0478
  141OSM   H13T15443   1.030   6.325   7.938  0.2862  0.8430 -0.2001
  141OSM   C14S15444   0.946   6.373   8.140  0.1823  0.0922  0.9749
  141OSM   H14S15445   0.948   6.264   8.162 -0.8130 -0.3751 -0.9966
  141OSM   H14T15446   0.854   6.419   8.181  0.1178  0.9491 -0.0913
  141OSM   C15S15447   1.052   6.464   8.204  1.1669  0.3665 -0.0877
  141OSM   H15S15448   1.018   6.565   8.172 -1.6226 -0.8053 -1.1803
  141OSM   H15T15449   1.149   6.440   8.155  0.2655 -1.5441 -1.0355
  141OSM   C16S15450   1.069   6.451   8.356 -0.1592 -0.1669 -0.1276
  141OSM   H16S15451   1.086   6.343   8.377 -0.3824 -0.5159 -1.6384
  141OSM   H16T15452   0.979   6.499   8.400 -0.3816 -0.1601 -0.5897
  141OSM   C17S15453   1.190   6.538   8.400 -0.0898  0.7866 -0.3379
  141OSM   H17S15454   1.190   6.536   8.511  0.8276 -0.9631 -0.3309
  141OSM   H17T15455   1.192   6.641   8.358  0.5802  1.0080  0.2102
  141OSM   C18S15456   1.328   6.475   8.361  0.3138 -0.4254 -0.5847
  141OSM   H18S15457   1.328   6.462   8.250 -2.7871 -0.2823 -0.6801
  141OSM   H18T15458   1.343   6.378   8.413  1.0087 -0.3159 -0.5720
  141OSM   H18U15459   1.409   6.545   8.387 -0.4110 -0.1282  0.9621
  141OSM    C1F15460   0.246   6.131   6.745 -0.1852  0.3738 -0.1873
  141OSM     OF15461   0.255   6.007   6.720  0.2797 -0.5243  0.6869
  141OSM    C2F15462   0.110   6.188   6.766 -0.7242  0.2358  0.6970
  141OSM    H2F15463   0.057   6.162   6.671  0.7861 -3.1861  0.6437
  141OSM    H2G15464   0.124   6.292   6.801  2.1874 -0.3884  1.6540
  141OSM    C3F15465   0.035   6.117   6.878  0.1100  0.0317 -0.3373
  141OSM    H3F15466   0.011   6.013   6.847 -1.7157  0.8882 -2.0812
  141OSM    H3G15467  -0.060   6.174   6.881  0.1861  0.1119  1.5739
  141OSM    C4F15468   0.095   6.125   7.022  0.5640 -0.1744  0.0786
  141OSM    H4F15469   0.128   6.230   7.038 -0.7707  0.1901  0.5685
  141OSM    H4G15470   0.188   6.064   7.021 -1.0512 -2.7679  0.4072
  141OSM    C5F15471   0.016   6.078   7.148  0.8919  0.8336  0.5880
  141OSM    H5F15472  -0.034   5.982   7.123  1.3931  0.6732  0.1876
  141OSM    H5G15473  -0.067   6.151   7.163 -1.1455 -1.3577  0.5172
  141OSM    C6F15474   0.110   6.072   7.274 -0.4010 -0.0274  0.5425
  141OSM    H6F15475   0.142   6.176   7.296  1.1794 -0.0529 -1.3440
  141OSM    H6G15476   0.198   6.004   7.262 -1.0918 -0.5947 -2.0225
  141OSM    C7F15477   0.034   6.012   7.390  0.1218  0.7142  0.2646
  141OSM    H7F15478  -0.065   6.061   7.407 -0.7887 -1.3931  1.4027
  141OSM    H7G15479   0.087   6.035   7.485  2.0936  1.9497 -1.0716
  141OSM    C8F15480   0.034   5.853   7.392 -0.5379  0.2816 -0.1993
  141OSM    H8F15481   0.141   5.823   7.397 -0.9581 -1.1159  1.1621
  141OSM    H8G15482   0.001   5.817   7.292 -0.7548  0.3501 -0.1520
  141OSM    C9F15483  -0.034   5.802   7.516 -0.3104  0.6360 -0.1166
  141OSM    H9F15484  -0.139   5.776   7.496  0.1405  0.7472 -2.9375
  141OSM   C10F15485   0.017   5.794   7.639  0.0339  0.0817  1.5494
  141OSM   H10F15486  -0.043   5.762   7.725  0.3392  0.0065  1.7385
  141OSM   C11F15487   0.153   5.829   7.686 -0.1903  0.6209  0.1968
  141OSM   H11F15488   0.184   5.924   7.638  0.9499 -0.8011 -2.0893
  141OSM   H11G15489   0.230   5.759   7.646  2.1100  2.9562  0.2125
  141OSM   C12F15490   0.168   5.836   7.842 -0.2792 -0.7734  0.0784
  141OSM   H12F15491   0.157   5.735   7.887 -0.8456  0.5906  3.2223
  141OSM   H12G15492   0.098   5.917   7.870 -0.2508 -1.0075  0.8391
  141OSM   C13F15493   0.298   5.890   7.885 -0.2845  0.2968 -0.1917
  141OSM   H13F15494   0.395   5.849   7.848 -0.1206  0.7669 -0.2878
  141OSM   H13G15495   0.294   5.867   7.993 -1.9655  3.4526  0.5406
  141OSM   C14F15496   0.305   6.043   7.864 -0.3771  0.0092 -0.2420
  141OSM   H14F15497   0.219   6.089   7.916 -0.2866  1.9477 -1.7249
  141OSM   H14G15498   0.309   6.072   7.757  0.0646 -1.7379 -0.7333
  141OSM   C15F15499   0.422   6.111   7.940  0.0304 -0.1289 -0.8403
  141OSM   H15F15500   0.413   6.221   7.926 -0.9997  0.0660  0.9861
  141OSM   H15G15501   0.520   6.069   7.907  0.8331  1.6875 -0.8970
  141OSM   C16F15502   0.419   6.089   8.095  0.3903 -0.4827 -0.2657
  141OSM   H16F15503   0.454   5.987   8.125  0.1727  0.4560  3.7546
  141OSM   H16G15504   0.314   6.097   8.129  0.7565 -0.5709  0.9392
  141OSM   C17F15505   0.518   6.180   8.170  0.2986 -0.0187  0.1619
  141OSM   H17F15506   0.484   6.283   8.147  1.3138  0.1710 -0.5290
  141OSM   H17G15507   0.619   6.175   8.124 -0.1511 -0.9135 -0.7603
  141OSM   C18F15508   0.531   6.150   8.320 -0.2292  0.1173  0.2148
  141OSM   H18F15509   0.427   6.129   8.354 -0.5395 -1.6118 -1.5786
  141OSM   H18G15510   0.579   6.229   8.381 -1.8522  1.9965 -0.8159
  141OSM   H18H15511   0.585   6.053   8.328 -0.7016 -0.3524 -1.6460
  142OSM      N15512   6.033   0.502   6.101 -0.2299 -0.0772 -0.0209
  142OSM    C1515513   6.098   0.370   6.079  0.0294 -0.0165  0.1986
  142OSM   H15A15514   6.028   0.309   6.023 -1.0149  1.0764  0.2603
  142OSM   H15B15515   6.114   0.318   6.172 -3.0604 -1.5652 -0.0055
  142OSM   H15C15516   6.191   0.385   6.027 -0.6748  0.2949 -1.0290
  142OSM    C1415517   6.118   0.594   6.174 -0.8871  0.6855 -0.3059
  142OSM   H14A15518   6.208   0.631   6.125  0.5565  0.0425  1.7218
  142OSM   H14B15519   6.155   0.544   6.262 -1.3828  0.0806 -0.4372
  142OSM   H14C15520   6.080   0.691   6.202  0.9282  0.6372  2.7540
  142OSM    C1315521   5.995   0.564   5.972 -0.0642 -0.2016  0.8584
  142OSM   H13A15522   5.956   0.664   5.982 -0.9277  0.0072 -3.0059
  142OSM   H13B15523   5.918   0.501   5.930 -0.7701  1.1428  0.0904
  142OSM   H13C15524   6.075   0.573   5.900 -1.8632 -0.0097 -1.2010
  142OSM    C1215525   5.904   0.478   6.185 -0.3431 -0.2622 -0.1031
  142OSM   H12A15526   5.827   0.443   6.117 -1.0286  1.2845 -0.1735
  142OSM   H12B15527   5.870   0.575   6.220  0.2490 -0.1798  0.2601
  142OSM    C1115528   5.910   0.385   6.314 -0.0623  0.4267 -0.4034
  142OSM   H11A15529   5.830   0.416   6.385  1.6195  0.0345  1.7774
  142OSM   H11B15530   6.008   0.402   6.363  0.4998 -0.3121 -1.2257
  142OSM      P15531   5.769   0.192   6.228  0.1868  0.2086  0.2001
  142OSM    O1315532   5.703   0.288   6.136 -0.2853  0.9013  0.2255
  142OSM    O1415533   5.787   0.053   6.175  0.0237  0.1794 -0.2683
  142OSM    O1115534   5.699   0.195   6.358  0.6493 -0.6706 -0.4650
  142OSM    O1215535   5.911   0.247   6.269 -0.1471 -0.0028  0.3660
  142OSM    C1S15536   5.737   0.131   6.476 -0.7766  0.2544 -0.2858
  142OSM    H1S15537   5.840   0.091   6.473 -1.2745 -1.0242 -2.8457
  142OSM    H1T15538   5.669   0.047   6.501 -0.4617  0.6658  2.2715
  142OSM     NF15539   5.793   0.187   6.713 -0.0265 -0.2703 -0.4448
  142OSM    HNF15540   5.747   0.140   6.788 -1.0418  0.6644 -0.4533
  142OSM    C2S15541   5.716   0.225   6.594  0.7700  0.4906  0.1864
  142OSM    H2S15542   5.754   0.322   6.553 -0.9774  0.1376 -2.5374
  142OSM    C3S15543   5.562   0.242   6.613 -0.0019 -0.1497  0.0049
  142OSM    H3S15544   5.517   0.146   6.645 -1.9835 -0.2365 -2.7788
  142OSM     O315545   5.491   0.284   6.495 -0.1617 -0.1940 -0.0339
  142OSM    HO315546   5.552   0.258   6.426  0.8827 -0.8276  1.1110
  142OSM    C4S15547   5.547   0.342   6.724  0.1328 -0.2659 -0.2200
  142OSM    H4S15548   5.543   0.286   6.818  0.0308  1.5321  0.9108
  142OSM    C5S15549   5.530   0.474   6.731 -1.0324 -0.7999  0.2465
  142OSM    H5S15550   5.541   0.534   6.640 -0.2991  1.6740  1.8753
  142OSM    C6S15551   5.516   0.551   6.858  0.1139  0.3389 -0.0691
  142OSM    H6S15552   5.459   0.644   6.835  0.3879  0.5632  0.1587
  142OSM    H6T15553   5.615   0.584   6.896  0.1996 -0.8616  0.7794
  142OSM    C7S15554   5.452   0.470   6.971 -0.0723  0.0476  0.2548
  142OSM    H7S15555   5.503   0.374   6.992  1.4562  0.5515 -0.9775
  142OSM    H7T15556   5.345   0.449   6.947 -0.1160  1.8779 -1.3881
  142OSM    C8S15557   5.448   0.544   7.108 -0.0079  0.8636 -0.3445
  142OSM    H8S15558   5.415   0.648   7.084  1.4031  1.5329  0.5186
  142OSM    H8T15559   5.550   0.541   7.150 -0.1399  0.7631 -0.0311
  142OSM    C9S15560   5.365   0.476   7.221 -0.0814 -0.7735 -0.1571
  142OSM    H9S15561   5.397   0.373   7.244  0.3594 -0.4762  0.6087
  142OSM    H9T15562   5.256   0.466   7.202 -0.6166  1.3428  1.3090
  142OSM   C10S15563   5.387   0.560   7.355  0.0362  0.4077  0.8906
  142OSM   H10S15564   5.356   0.667   7.357 -1.2820  0.0343  1.2942
  142OSM   H10T15565   5.497   0.556   7.371  0.3347  1.0603 -0.7798
  142OSM   C11S15566   5.326   0.490   7.473  0.5128 -0.6520  0.4704
  142OSM   H11S15567   5.370   0.389   7.488  1.0836 -0.7245 -1.3707
  142OSM   H11T15568   5.216   0.480   7.462  0.5399 -0.2644 -0.2250
  142OSM   C12S15569   5.345   0.568   7.604  0.1230 -0.4180 -0.3906
  142OSM   H12S15570   5.299   0.669   7.594  1.0980  0.0928  0.1105
  142OSM   H12T15571   5.451   0.600   7.618 -0.3775  0.6171  1.3637
  142OSM   C13S15572   5.289   0.502   7.729  0.6963  0.2808  0.3985
  142OSM   H13S15573   5.356   0.416   7.752  1.2523  0.0899 -1.6769
  142OSM   H13T15574   5.191   0.458   7.700 -0.2826  2.2699  0.5914
  142OSM   C14S15575   5.282   0.590   7.849 -0.4815 -0.3021 -0.6682
  142OSM   H14S15576   5.218   0.679   7.832 -0.4949 -0.4169 -1.2193
  142OSM   H14T15577   5.386   0.617   7.878 -1.0129 -0.7042  1.8801
  142OSM   C15S15578   5.231   0.511   7.973 -0.2274 -0.2780 -0.3418
  142OSM   H15S15579   5.277   0.409   7.970  0.6538  0.0745  0.6400
  142OSM   H15T15580   5.125   0.489   7.948 -0.0935  0.1718 -1.3391
  142OSM   C16S15581   5.242   0.585   8.108  0.0224  0.0522 -0.2415
  142OSM   H16S15582   5.181   0.678   8.111 -2.9987 -1.7042 -2.0254
  142OSM   H16T15583   5.350   0.607   8.123  0.0209 -0.1797  0.1081
  142OSM   C17S15584   5.208   0.489   8.223 -0.4127  0.0668 -0.1975
  142OSM   H17S15585   5.263   0.525   8.312 -1.2092 -0.5371  0.5586
  142OSM   H17T15586   5.242   0.385   8.204 -0.8806 -0.3718  1.2327
  142OSM   C18S15587   5.061   0.496   8.260 -0.0936 -0.1301 -0.0296
  142OSM   H18S15588   5.027   0.433   8.345  0.9600 -3.2605 -1.7774
  142OSM   H18T15589   5.001   0.463   8.173 -0.7866  1.9257 -0.3967
  142OSM   H18U15590   5.028   0.601   8.278  1.1700  0.4837 -1.0672
  142OSM    C1F15591   5.927   0.198   6.724  0.5325  0.0992 -0.2076
  142OSM     OF15592   5.991   0.234   6.626  0.1298 -0.2179  0.4416
  142OSM    C2F15593   5.991   0.160   6.848  0.3597  0.0564 -0.1747
  142OSM    H2F15594   5.997   0.050   6.861 -0.0666 -0.1260 -1.4307
  142OSM    H2G15595   5.930   0.206   6.928 -1.3094 -1.4386 -0.5435
  142OSM    C3F15596   6.137   0.215   6.844 -0.0851  0.3728 -0.1718
  142OSM    H3F15597   6.140   0.324   6.821  0.3745  0.1858 -1.0164
  142OSM    H3G15598   6.184   0.162   6.759  0.1921  1.5998 -0.8024
  142OSM    C4F15599   6.223   0.190   6.968  0.3585  0.0757 -0.7570
  142OSM    H4F15600   6.159   0.218   7.055  0.5120  0.6472 -0.8298
  142OSM    H4G15601   6.314   0.253   6.972 -1.1974  2.3923  0.9065
  142OSM    C5F15602   6.255   0.039   6.972  0.5058 -0.5572  0.4266
  142OSM    H5F15603   6.276  -0.001   6.871  0.7102 -0.2644  0.3514
  142OSM    H5G15604   6.164  -0.014   7.008  0.9458 -1.6532 -0.0339
  142OSM    C6F15605   6.372   0.000   7.063  0.1303 -0.7643  0.2104
  142OSM    H6F15606   6.467   0.050   7.036  0.8485 -1.4993  1.2841
  142OSM    H6G15607   6.398  -0.105   7.038 -0.5014 -0.1140 -3.9349
  142OSM    C7F15608   6.348   0.010   7.218  0.0739  0.0986 -0.2171
  142OSM    H7F15609   6.307   0.113   7.232  1.2920  0.5170  0.4073
  142OSM    H7G15610   6.444   0.014   7.273 -0.2495  0.4642  0.3316
  142OSM    C8F15611   6.256  -0.084   7.302 -0.7279  0.1137  0.5654
  142OSM    H8F15612   6.171  -0.112   7.235  0.5982 -1.0839 -0.7122
  142OSM    H8G15613   6.217  -0.036   7.394 -0.3851 -1.1557  1.3935
  142OSM    C9F15614   6.333  -0.210   7.331 -0.0283  0.1318 -0.1000
  142OSM    H9F15615   6.329  -0.282   7.248 -0.0987 -0.5541  0.4942
  142OSM   C10F15616   6.393  -0.241   7.447  0.6451 -0.1410  0.2197
  142OSM   H10F15617   6.448  -0.336   7.457 -2.0309 -1.7973  0.0786
  142OSM   C11F15618   6.398  -0.154   7.575  0.3491 -0.2973 -0.5024
  142OSM   H11F15619   6.338  -0.060   7.573 -1.1732 -1.2126  0.5322
  142OSM   H11G15620   6.504  -0.126   7.593  0.4315 -1.0022  0.1092
  142OSM   C12F15621   6.363  -0.250   7.689 -0.1305 -0.1292  0.5025
  142OSM   H12F15622   6.442  -0.328   7.698 -0.5335 -0.3975  2.0945
  142OSM   H12G15623   6.265  -0.293   7.660 -0.6904  1.6647 -0.4105
  142OSM   C13F15624   6.351  -0.184   7.825 -0.3355 -0.7723 -0.5286
  142OSM   H13F15625   6.246  -0.152   7.839 -0.2571 -0.9768  0.5539
  142OSM   H13G15626   6.414  -0.093   7.830  2.0871 -2.3936  0.3988
  142OSM   C14F15627   6.377  -0.284   7.943  0.1861 -0.7149  0.3473
  142OSM   H14F15628   6.475  -0.334   7.939  0.2383 -0.5573 -0.9866
  142OSM   H14G15629   6.290  -0.354   7.946 -2.7466  2.5521 -0.5897
  142OSM   C15F15630   6.365  -0.207   8.071 -0.6843 -0.6021 -0.5057
  142OSM   H15F15631   6.282  -0.135   8.084 -0.0776 -0.1926  1.5162
  142OSM   H15G15632   6.453  -0.140   8.083  0.2105 -1.4354 -2.1663
  142OSM   C16F15633   6.364  -0.297   8.196 -0.0099 -0.0579  0.1805
  142OSM   H16F15634   6.459  -0.352   8.213  0.7255  1.6180  1.8897
  142OSM   H16G15635   6.286  -0.373   8.176 -0.6126  0.4399  0.6031
  142OSM   C17F15636   6.338  -0.219   8.323 -0.2016 -0.2308  0.9265
  142OSM   H17F15637   6.235  -0.179   8.320  0.5499  1.7766  0.2382
  142OSM   H17G15638   6.407  -0.132   8.323 -0.9313  0.3518  1.0790
  142OSM   C18F15639   6.353  -0.305   8.449  0.4938 -0.2533  0.1544
  142OSM   H18F15640   6.313  -0.242   8.532 -1.0820  0.9563 -1.4436
  142OSM   H18G15641   6.458  -0.326   8.480  0.6626 -0.0486 -0.2763
  142OSM   H18H15642   6.282  -0.390   8.439  0.9640 -0.6799  0.3881
  143OSM      N15643   6.622   3.033   5.960 -0.1668 -0.1372  0.6004
  143OSM    C1515644   6.676   2.895   5.961  0.2097  0.0024  0.0092
  143OSM   H15A15645   6.666   2.861   6.063 -0.0910 -1.8926 -0.6116
  143OSM   H15B15646   6.782   2.897   5.940  0.0850 -0.6018 -0.7151
  143OSM   H15C15647   6.637   2.835   5.880 -0.4594 -1.4513  1.3482
  143OSM    C1415648   6.675   3.094   5.830 -0.2065  0.5769 -1.4353
  143OSM   H14A15649   6.627   3.190   5.814 -1.6800  0.8041  2.9386
  143OSM   H14B15650   6.649   3.031   5.746 -0.2651 -1.1314 -0.1825
  143OSM   H14C15651   6.781   3.111   5.837 -0.6388  3.1059  0.7135
  143OSM    C1315652   6.477   3.022   5.935  0.7837  0.4971  0.3667
  143OSM   H13A15653   6.433   3.119   5.951  1.8428  0.8211  1.5127
  143OSM   H13B15654   6.441   2.949   6.007  2.2071 -0.7533 -0.1203
  143OSM   H13C15655   6.452   2.984   5.837  1.1454 -4.0122  1.7653
  143OSM    C1215656   6.675   3.101   6.085  0.6902  0.1851 -0.7200
  143OSM   H12A15657   6.633   3.199   6.071 -0.7654 -0.3000  0.0814
  143OSM   H12B15658   6.781   3.122   6.085  0.8148 -0.4270 -1.0769
  143OSM    C1115659   6.620   3.036   6.219 -0.2479  0.1229 -0.1043
  143OSM   H11A15660   6.512   3.014   6.208 -0.2356  1.0864 -3.4690
  143OSM   H11B15661   6.622   3.112   6.300  1.1316 -1.2965  1.2650
  143OSM      P15662   6.836   2.932   6.319  0.0091 -0.0955  0.1319
  143OSM    O1315663   6.927   2.830   6.262  0.3611 -0.4726 -0.6746
  143OSM    O1415664   6.883   3.071   6.307 -0.9253  0.4183 -0.3324
  143OSM    O1115665   6.806   2.896   6.469  0.3603 -0.3404 -0.8767
  143OSM    O1215666   6.693   2.926   6.254  0.0057  1.0248  0.1187
  143OSM    C1S15667   6.704   2.966   6.550 -0.5219  0.1954 -0.2740
  143OSM    H1S15668   6.603   2.921   6.543 -0.4853 -0.3318  1.8903
  143OSM    H1T15669   6.703   3.075   6.529  2.6238  1.2900  3.8947
  143OSM     NF15670   6.667   3.027   6.796 -0.0893  1.0818 -0.1345
  143OSM    HNF15671   6.693   3.122   6.811  2.0880  0.3354  1.2995
  143OSM    C2S15672   6.755   2.963   6.695  0.2924 -0.1847 -0.4621
  143OSM    H2S15673   6.768   2.860   6.733  0.1606  0.3075  0.9736
  143OSM    C3S15674   6.901   3.025   6.687 -0.2771  0.2071 -0.1549
  143OSM    H3S15675   6.894   3.119   6.627 -1.3551  1.1896  1.4402
  143OSM     O315676   6.998   2.946   6.621 -0.0738  0.2110 -0.0755
  143OSM    HO315677   6.943   2.904   6.554 -1.2057 -0.1593  1.0409
  143OSM    C4S15678   6.965   3.058   6.828  0.2300 -0.0178  0.1364
  143OSM    H4S15679   7.006   2.972   6.883  1.1095  1.5796  2.0891
  143OSM    C5S15680   6.982   3.182   6.875 -0.2717 -0.2041 -0.2175
  143OSM    H5S15681   6.955   3.269   6.812  0.7344  0.1364 -0.1994
  143OSM    C6S15682   7.048   3.220   7.016 -0.4068 -0.4649  0.6459
  143OSM    H6S15683   7.110   3.311   7.004 -0.1666 -0.6160  0.7351
  143OSM    H6T15684   7.103   3.131   7.055 -2.3765 -1.9046  0.3125
  143OSM    C7S15685   6.935   3.254   7.122 -0.0924  0.8280  0.2209
  143OSM    H7S15686   6.875   3.168   7.157  2.1456 -0.7344  0.4034
  143OSM    H7T15687   6.862   3.325   7.077 -0.4787  1.3112  1.5704
  143OSM    C8S15688   6.994   3.318   7.244  0.4374  0.4279 -0.5575
  143OSM    H8S15689   7.064   3.403   7.227  0.6645  0.6166  1.1393
  143OSM    H8T15690   7.050   3.242   7.302 -0.8563 -0.6677 -0.7102
  143OSM    C9S15691   6.882   3.366   7.345 -0.3443 -0.4431  0.2148
  143OSM    H9S15692   6.825   3.276   7.378 -0.4305 -1.0551 -1.5100
  143OSM    H9T15693   6.818   3.442   7.296 -0.2580  0.8984  2.0953
  143OSM   C10S15694   6.941   3.437   7.467 -0.4820 -0.3959 -0.2685
  143OSM   H10S15695   6.850   3.459   7.527  0.0466 -0.0347  0.4142
  143OSM   H10T15696   6.986   3.534   7.437  2.6505 -1.9615 -1.0658
  143OSM   C11S15697   7.036   3.361   7.553  0.2318  0.2002 -0.2733
  143OSM   H11S15698   7.129   3.341   7.496 -0.6557 -1.8478 -1.1278
  143OSM   H11T15699   6.988   3.263   7.574 -1.5064  0.9902 -0.3284
  143OSM   C12S15700   7.090   3.435   7.679  0.0320  0.0163 -0.5803
  143OSM   H12S15701   7.144   3.527   7.650 -0.3857  1.0083  1.5574
  143OSM   H12T15702   7.170   3.383   7.735  0.3880  1.0727 -0.0852
  143OSM   C13S15703   6.991   3.473   7.787  0.3365  0.4873 -0.1049
  143OSM   H13S15704   6.976   3.379   7.843 -1.2723  0.1104 -1.1147
  143OSM   H13T15705   6.890   3.485   7.742  0.3317  0.6105 -0.0616
  143OSM   C14S15706   7.017   3.589   7.888 -0.3654  0.8794 -0.4901
  143OSM   H14S15707   7.051   3.682   7.838  3.9598 -0.0730  0.2706
  143OSM   H14T15708   7.110   3.574   7.947 -1.2645  1.9780  1.3095
  143OSM   C15S15709   6.900   3.624   7.982  0.2469  0.4452 -0.0941
  143OSM   H15S15710   6.884   3.543   8.056  2.1347 -1.2106 -1.3949
  143OSM   H15T15711   6.815   3.633   7.912 -0.9112 -0.4405  1.1548
  143OSM   C16S15712   6.911   3.755   8.061  0.1342 -0.0867 -0.2123
  143OSM   H16S15713   6.930   3.841   7.994  0.3577 -1.1094 -1.5073
  143OSM   H16T15714   6.995   3.739   8.132  0.3496 -0.8490 -0.6203
  143OSM   C17S15715   6.789   3.793   8.148  0.5761  0.1306 -0.3927
  143OSM   H17S15716   6.698   3.802   8.085 -0.9799  0.5059  1.7549
  143OSM   H17T15717   6.815   3.891   8.194 -1.3060  0.3684  0.2615
  143OSM   C18S15718   6.751   3.691   8.256  0.1201 -0.4150 -0.1335
  143OSM   H18S15719   6.837   3.678   8.324 -0.3124  1.8306  0.9335
  143OSM   H18T15720   6.729   3.589   8.219  1.2224 -1.2533  1.4328
  143OSM   H18U15721   6.672   3.739   8.317  0.5798  1.1945 -0.7276
  143OSM    C1F15722   6.547   2.981   6.819  0.1498  0.2127 -0.0896
  143OSM     OF15723   6.502   2.877   6.773 -0.4143  0.2784 -0.0031
  143OSM    C2F15724   6.458   3.068   6.901 -0.8121 -0.2649 -0.3382
  143OSM    H2F15725   6.403   3.002   6.972 -1.4238 -1.4301 -1.8275
  143OSM    H2G15726   6.387   3.121   6.834 -1.0000  1.7973  1.3750
  143OSM    C3F15727   6.527   3.180   6.985 -0.5447 -0.3038 -0.2011
  143OSM    H3F15728   6.585   3.245   6.916  0.3655 -0.2168  0.6141
  143OSM    H3G15729   6.594   3.129   7.057  0.1388 -0.8951 -1.2231
  143OSM    C4F15730   6.415   3.269   7.055  0.0084  0.5024  0.3710
  143OSM    H4F15731   6.365   3.205   7.131  1.1499 -1.4382 -0.4389
  143OSM    H4G15732   6.345   3.310   6.979 -0.2888 -0.6863 -0.0312
  143OSM    C5F15733   6.469   3.390   7.134 -0.0644  1.1256 -1.2911
  143OSM    H5F15734   6.552   3.362   7.202  0.5677  0.0097 -2.4897
  143OSM    H5G15735   6.392   3.425   7.206  0.2611  1.6279 -1.1810
  143OSM    C6F15736   6.509   3.511   7.047 -0.1463 -0.1537  0.3008
  143OSM    H6F15737   6.407   3.542   7.014 -0.9631 -3.1162 -0.2715
  143OSM    H6G15738   6.557   3.462   6.959  1.8412  0.2756  1.0966
  143OSM    C7F15739   6.600   3.622   7.101 -0.7531 -0.4840  0.3616
  143OSM    H7F15740   6.618   3.697   7.021  1.9584 -1.8682 -0.4374
  143OSM    H7G15741   6.698   3.580   7.131 -0.8914 -0.1991  1.2387
  143OSM    C8F15742   6.549   3.697   7.222 -0.1879 -0.6660 -0.2059
  143OSM    H8F15743   6.443   3.717   7.197  1.0489  2.7935 -3.7226
  143OSM    H8G15744   6.599   3.796   7.226 -1.9551  0.2521  0.2476
  143OSM    C9F15745   6.579   3.624   7.356 -0.0379 -0.2303 -0.6008
  143OSM    H9F15746   6.573   3.514   7.361 -0.9076 -0.1563  0.3636
  143OSM   C10F15747   6.641   3.679   7.465  0.3833 -0.6986  0.3477
  143OSM   H10F15748   6.661   3.608   7.547  0.2357  1.0115  1.9071
  143OSM   C11F15749   6.679   3.824   7.499 -0.2433  0.5502  0.2970
  143OSM   H11F15750   6.624   3.892   7.431  0.7164  0.9645 -0.0841
  143OSM   H11G15751   6.783   3.837   7.461  0.2868  1.3002  1.9323
  143OSM   C12F15752   6.662   3.869   7.647  0.4570  0.1336  0.3358
  143OSM   H12F15753   6.694   3.784   7.712 -0.2614 -0.6672 -0.3316
  143OSM   H12G15754   6.556   3.885   7.676  0.5741  2.4481 -0.3822
  143OSM   C13F15755   6.731   4.008   7.675  0.1075  0.5408 -0.0047
  143OSM   H13F15756   6.670   4.084   7.622 -0.5184  1.6501  2.2202
  143OSM   H13G15757   6.832   4.002   7.630 -0.6182 -0.7932 -1.5950
  143OSM   C14F15758   6.747   4.066   7.814  0.8420  0.4858 -0.2772
  143OSM   H14F15759   6.799   4.164   7.819  1.5419  0.1792 -1.2792
  143OSM   H14G15760   6.819   4.000   7.867 -0.3937  1.4552  2.8038
  143OSM   C15F15761   6.622   4.074   7.901  0.2215 -0.1063 -0.0004
  143OSM   H15F15762   6.589   3.968   7.903  1.7309 -0.6001 -0.5071
  143OSM   H15G15763   6.548   4.134   7.844  2.2974  2.2942 -0.3434
  143OSM   C16F15764   6.644   4.121   8.047  0.5051  0.2953 -0.8373
  143OSM   H16F15765   6.693   4.221   8.048  0.8650  0.1221 -0.7445
  143OSM   H16G15766   6.716   4.057   8.103  0.6240  2.5835  1.8505
  143OSM   C17F15767   6.521   4.114   8.132  0.3996  0.3815  0.1851
  143OSM   H17F15768   6.491   4.010   8.157  1.8482 -0.6215 -1.8641
  143OSM   H17G15769   6.432   4.146   8.074 -0.6712  0.4904  1.8527
  143OSM   C18F15770   6.531   4.197   8.263  0.5375 -0.7418 -0.2738
  143OSM   H18F15771   6.505   4.298   8.226 -2.8472 -1.5728 -0.5324
  143OSM   H18G15772   6.633   4.187   8.306  0.3090 -0.0259  0.4421
  143OSM   H18H15773   6.459   4.171   8.344  3.6881 -1.2749  2.5823
  144OSM      N15774   6.014   2.474   6.194  0.8587  0.1094 -1.0051
  144OSM    C1515775   6.146   2.543   6.233  0.5529  0.2910  0.1532
  144OSM   H15A15776   6.157   2.542   6.340  1.9660  2.5085  0.0877
  144OSM   H15B15777   6.145   2.645   6.197  1.0847  0.9889  1.9973
  144OSM   H15C15778   6.232   2.488   6.198  0.4084 -1.1665  1.9217
  144OSM    C1415779   5.912   2.583   6.172  0.1956 -0.2932  0.6444
  144OSM   H14A15780   5.821   2.542   6.130  0.2719 -0.9033  1.0640
  144OSM   H14B15781   5.948   2.656   6.101  0.0581  1.6538  2.4573
  144OSM   H14C15782   5.898   2.637   6.265 -0.8317  0.3558  0.1430
  144OSM    C1315783   6.029   2.407   6.061  0.4034  0.1079  0.0787
  144OSM   H13A15784   6.089   2.319   6.079  0.6190  0.2172 -0.0958
  144OSM   H13B15785   6.086   2.472   5.996  0.5556  2.0234  2.0299
  144OSM   H13C15786   5.935   2.378   6.015 -0.5991  0.5781  1.7361
  144OSM    C1215787   5.960   2.375   6.297  0.0059  0.3831  0.6930
  144OSM   H12A15788   5.885   2.311   6.253 -1.2986  1.9766  0.5554
  144OSM   H12B15789   5.917   2.427   6.381  0.5165  0.7461  0.7368
  144OSM    C1115790   6.074   2.289   6.357  0.0228 -0.4800 -0.8312
  144OSM   H11A15791   6.027   2.245   6.448  0.4653  2.9371  1.2157
  144OSM   H11B15792   6.159   2.347   6.398  0.3973 -0.7904 -1.1696
  144OSM      P15793   6.045   2.064   6.240  0.3259 -0.1531  0.3678
  144OSM    O1315794   5.914   2.071   6.309  0.1730 -0.2267 -0.4107
  144OSM    O1415795   6.030   2.038   6.094 -0.3890  0.0568  0.0229
  144OSM    O1115796   6.134   1.954   6.309 -0.0930 -0.2356 -0.1050
  144OSM    O1215797   6.129   2.191   6.273  0.4558 -0.5050 -0.0317
  144OSM    C1S15798   6.218   1.994   6.422  0.6604  0.2055 -0.1399
  144OSM    H1S15799   6.159   2.020   6.512  0.6781  1.1941 -0.4071
  144OSM    H1T15800   6.287   2.077   6.395  0.2927  0.0765 -1.6040
  144OSM     NF15801   6.381   1.918   6.588  0.7044  0.0008  0.0481
  144OSM    HNF15802   6.470   1.959   6.572 -0.2192  1.6960 -1.0297
  144OSM    C2S15803   6.309   1.875   6.464 -0.1757  0.3091  0.1910
  144OSM    H2S15804   6.256   1.782   6.495  0.7945 -0.2446  0.2222
  144OSM    C3S15805   6.397   1.839   6.347 -0.1561  0.6392 -0.7045
  144OSM    H3S15806   6.453   1.923   6.301 -0.8953  1.0551 -0.8624
  144OSM     O315807   6.328   1.789   6.235  0.1366 -0.6034 -0.0241
  144OSM    HO315808   6.235   1.811   6.237 -0.0247 -1.1742 -0.6516
  144OSM    C4S15809   6.505   1.741   6.388 -0.8685 -0.3706 -0.6702
  144OSM    H4S15810   6.477   1.638   6.413 -0.2922 -0.1949  0.7691
  144OSM    C5S15811   6.628   1.760   6.375  0.2073 -0.6431  0.1077
  144OSM    H5S15812   6.663   1.858   6.340 -2.1157  0.8760  1.6721
  144OSM    C6S15813   6.725   1.660   6.432  0.3047 -0.1147  0.5640
  144OSM    H6S15814   6.808   1.668   6.359 -1.0554 -1.1777 -1.1999
  144OSM    H6T15815   6.684   1.558   6.420 -3.0751  1.3138 -1.5310
  144OSM    C7S15816   6.766   1.692   6.575  0.0469 -0.0211 -0.5712
  144OSM    H7S15817   6.678   1.688   6.644  0.6369  0.3092  0.2144
  144OSM    H7T15818   6.788   1.801   6.584 -0.8823  0.1822 -0.5794
  144OSM    C8S15819   6.883   1.611   6.636  0.5052  0.0435 -0.3463
  144OSM    H8S15820   6.983   1.645   6.601  2.6990 -3.2269  2.1103
  144OSM    H8T15821   6.867   1.509   6.595  1.0379 -0.5341  0.8337
  144OSM    C9S15822   6.877   1.596   6.784 -0.2492 -0.0681  0.0011
  144OSM    H9S15823   6.955   1.520   6.805  1.3086  1.8268  1.4355
  144OSM    H9T15824   6.780   1.546   6.806 -0.2416 -0.0902 -0.0171
  144OSM   C10S15825   6.894   1.724   6.871  0.0494 -0.0187 -0.7036
  144OSM   H10S15826   6.800   1.782   6.877  0.0657 -0.0723  0.1916
  144OSM   H10T15827   6.981   1.785   6.837 -1.0883  1.8900 -0.3381
  144OSM   C11S15828   6.927   1.683   7.012  0.0684 -0.2037  0.2460
  144OSM   H11S15829   6.946   1.779   7.065  0.1796  0.6622 -1.2953
  144OSM   H11T15830   7.029   1.637   7.010  0.3197  0.0657  2.9836
  144OSM   C12S15831   6.845   1.582   7.093  0.3644  0.3022  0.4090
  144OSM   H12S15832   6.847   1.483   7.041  0.7091  0.8483 -0.6508
  144OSM   H12T15833   6.740   1.612   7.112 -0.1223 -2.1206  2.0104
  144OSM   C13S15834   6.916   1.568   7.234  0.5282 -0.0675 -0.1068
  144OSM   H13S15835   7.024   1.575   7.211  0.9851 -0.2237  1.8199
  144OSM   H13T15836   6.903   1.472   7.288 -0.8933  0.5103  0.6246
  144OSM   C14S15837   6.878   1.680   7.327 -0.1358  0.4816 -0.0182
  144OSM   H14S15838   6.772   1.659   7.355  0.0463 -1.8701 -0.8800
  144OSM   H14T15839   6.894   1.778   7.277 -3.0046  0.6033 -0.8601
  144OSM   C15S15840   6.961   1.678   7.453  0.6951  0.1214 -0.4455
  144OSM   H15S15841   7.066   1.687   7.418  0.7703 -1.5095 -0.7382
  144OSM   H15T15842   6.933   1.587   7.510 -1.7776  2.1714  1.8771
  144OSM   C16S15843   6.931   1.789   7.538 -0.2797 -0.1095  0.0047
  144OSM   H16S15844   6.827   1.790   7.576  0.6710  2.4839  2.9743
  144OSM   H16T15845   6.945   1.883   7.480  0.3835  0.3577  0.8985
  144OSM   C17S15846   7.016   1.800   7.666 -0.5764 -0.0475 -0.2323
  144OSM   H17S15847   7.123   1.790   7.635 -1.4596 -2.8292 -2.9656
  144OSM   H17T15848   7.000   1.714   7.735 -0.1982 -0.3408 -0.5034
  144OSM   C18S15849   6.995   1.928   7.739  0.8576 -0.6932  0.4006
  144OSM   H18S15850   7.048   2.012   7.690 -1.1464  1.4152  1.6457
  144OSM   H18T15851   7.043   1.916   7.839  0.2491  2.0279  1.1069
  144OSM   H18U15852   6.889   1.959   7.725  0.8791 -0.6076  0.4291
  144OSM    C1F15853   6.316   1.915   6.703 -0.6398 -0.3625 -0.7162
  144OSM     OF15854   6.211   1.855   6.714 -0.3820  0.0116 -0.6758
  144OSM    C2F15855   6.389   1.974   6.826 -0.0320 -0.3073 -0.3192
  144OSM    H2F15856   6.408   2.082   6.805  1.7338 -0.1884  1.6012
  144OSM    H2G15857   6.494   1.938   6.832  0.4997  1.0263 -1.1168
  144OSM    C3F15858   6.303   1.944   6.951  0.3788  0.2723  0.6516
  144OSM    H3F15859   6.297   1.836   6.975  1.1919 -0.1273 -0.7990
  144OSM    H3G15860   6.201   1.982   6.929  0.9069  0.9305 -0.7916
  144OSM    C4F15861   6.346   2.011   7.078  0.5525 -1.0019 -0.3677
  144OSM    H4F15862   6.268   1.983   7.152 -0.1689  0.1449 -0.6787
  144OSM    H4G15863   6.350   2.121   7.063 -1.5479 -0.8690 -0.3011
  144OSM    C5F15864   6.481   1.959   7.130  0.3562 -0.2812 -0.0861
  144OSM    H5F15865   6.565   1.982   7.060 -0.6280 -2.6195 -2.2091
  144OSM    H5G15866   6.460   1.851   7.113  0.2117 -0.2858  0.1270
  144OSM    C6F15867   6.523   1.993   7.272  0.4570  0.8681  0.2335
  144OSM    H6F15868   6.534   2.104   7.263  1.5040  0.6918 -0.9581
  144OSM    H6G15869   6.624   1.955   7.299  0.0695  0.2784  0.9008
  144OSM    C7F15870   6.423   1.946   7.381 -0.9082  0.0419  0.1629
  144OSM    H7F15871   6.361   1.858   7.353  0.0425 -0.6947  0.3461
  144OSM    H7G15872   6.348   2.028   7.388  0.2253  0.9529  2.9674
  144OSM    C8F15873   6.490   1.928   7.521 -0.3317 -0.1928  0.6997
  144OSM    H8F15874   6.517   2.031   7.553  1.0840 -0.3213 -0.0234
  144OSM    H8G15875   6.580   1.866   7.499 -2.0344 -2.7116  0.4126
  144OSM    C9F15876   6.400   1.871   7.629  0.1412  0.2200  0.2922
  144OSM    H9F15877   6.335   1.794   7.585 -2.2215  0.6464  2.7598
  144OSM   C10F15878   6.386   1.917   7.758  0.3482 -0.3840  0.2959
  144OSM   H10F15879   6.312   1.870   7.824 -0.3970 -3.1327 -2.2657
  144OSM   C11F15880   6.471   2.026   7.821  0.7462 -0.3449  0.4395
  144OSM   H11F15881   6.407   2.114   7.843  0.0057 -1.1599  1.6867
  144OSM   H11G15882   6.552   2.050   7.750 -0.7807  0.6137 -1.0561
  144OSM   C12F15883   6.523   1.982   7.959  0.5599  0.4125  0.8510
  144OSM   H12F15884   6.575   1.884   7.954 -2.4975 -1.2974  0.0264
  144OSM   H12G15885   6.434   1.960   8.022  0.6631 -2.1529  0.2083
  144OSM   C13F15886   6.616   2.093   8.022 -0.2981 -0.6090  0.0581
  144OSM   H13F15887   6.578   2.196   8.001  1.1455 -0.2550 -0.9357
  144OSM   H13G15888   6.718   2.103   7.979 -1.0065  2.5079 -1.1665
  144OSM   C14F15889   6.652   2.062   8.175 -0.6172  1.2331 -0.2610
  144OSM   H14F15890   6.563   2.017   8.225  0.7770 -2.4376 -0.7391
  144OSM   H14G15891   6.683   2.153   8.231  0.8809 -0.3306  1.5840
  144OSM   C15F15892   6.749   1.944   8.199 -0.7123  0.3034  0.2610
  144OSM   H15F15893   6.856   1.964   8.180 -1.0647  3.2077  0.9522
  144OSM   H15G15894   6.714   1.870   8.124 -0.5643 -0.8262  1.2763
  144OSM   C16F15895   6.728   1.894   8.342  0.4766  0.5265  0.2423
  144OSM   H16F15896   6.803   1.815   8.364 -2.1529 -1.5746  2.4583
  144OSM   H16G15897   6.625   1.857   8.364  1.1076 -1.5870 -0.1131
  144OSM   C17F15898   6.767   1.999   8.450  0.8384 -0.4237 -0.1214
  144OSM   H17F15899   6.709   2.094   8.446  2.1837  0.3952 -1.2472
  144OSM   H17G15900   6.873   2.026   8.433  0.7333 -0.2503 -0.5182
  144OSM   C18F15901   6.751   1.943   8.599  0.1100 -0.0565  0.2992
  144OSM   H18F15902   6.769   2.026   8.671 -1.1261 -0.0227  0.5754
  144OSM   H18G15903   6.823   1.858   8.597 -0.2510 -0.3475 -0.4990
  144OSM   H18H15904   6.646   1.908   8.603 -0.5558  1.7482 -0.3148
  145SAPE     N15905   6.321   2.140  10.771  0.2761 -0.3209 -0.5311
  145SAPE   HN115906   6.237   2.085  10.744  0.2972 -0.1312 -0.9773
  145SAPE   HN215907   6.343   2.123  10.872  1.6820 -0.6420 -0.8722
  145SAPE   HN315908   6.293   2.240  10.775 -1.5105 -0.7948  2.8510
  145SAPE   C1215909   6.433   2.119  10.670  0.5416 -0.2054  0.7132
  145SAPE  H12A15910   6.485   2.027  10.704  0.2266  0.1260  2.1739
  145SAPE  H12B15911   6.510   2.197  10.687 -0.4781  0.8593  0.5595
  145SAPE   C1115912   6.383   2.119  10.522 -0.0982  0.2681 -0.2536
  145SAPE  H11A15913   6.469   2.095  10.455  2.0151  2.9418  1.2883
  145SAPE  H11B15914   6.347   2.220  10.492  0.1037  1.5838  3.3996
  145SAPE     P15915   6.131   2.045  10.503  0.4918 -0.0625 -0.3259
  145SAPE   O1315916   6.069   1.918  10.457  0.3967 -0.2726 -0.5744
  145SAPE   O1415917   6.092   2.098  10.638 -0.6851  0.1088  0.4184
  145SAPE   O1215918   6.289   2.021  10.511 -0.3118 -0.2870  0.3167
  145SAPE   O1115919   6.116   2.155  10.398 -0.4776  0.0385  0.0207
  145SAPE    C115920   6.117   2.117  10.258 -0.2553  0.2145 -0.5841
  145SAPE    HA15921   6.067   2.022  10.233  3.7796 -1.8260 -1.6967
  145SAPE    HB15922   6.066   2.199  10.202  2.7491  2.3328 -0.4789
  145SAPE    C215923   6.258   2.097  10.186 -0.1711 -0.4138  0.1939
  145SAPE    HS15924   6.290   1.997  10.225 -3.9827 -2.0715 -0.4674
  145SAPE   O2115925   6.345   2.198  10.222 -0.6848 -0.7213 -0.3054
  145SAPE   C2115926   6.469   2.182  10.187  1.1613  0.0710  0.0872
  145SAPE   O2215927   6.513   2.079  10.139 -0.0196  0.5169 -0.3427
  145SAPE   C2215928   6.543   2.304  10.230 -0.6248  0.4188  0.0319
  145SAPE   H2R15929   6.482   2.396  10.239 -0.6046  0.4726 -0.3619
  145SAPE   H2S15930   6.575   2.282  10.335 -0.2458 -0.8950 -0.3350
  145SAPE    C315931   6.235   2.101  10.025 -0.8634 -0.5514 -0.2290
  145SAPE    HX15932   6.334   2.096   9.975 -0.1327 -1.2135  1.2097
  145SAPE    HY15933   6.208   2.206  10.003  4.0631  0.4722 -2.7361
  145SAPE   O3115934   6.128   2.020   9.981  0.7746 -0.3421 -0.1533
  145SAPE   C3115935   6.166   1.895   9.952  0.1906 -0.5153 -0.1025
  145SAPE   O3215936   6.276   1.847   9.967 -0.0403  0.0679  0.1277
  145SAPE   C3215937   6.052   1.804   9.898  0.1922 -0.4502  0.0958
  145SAPE   H2X15938   5.960   1.832   9.954 -0.7151  0.9647 -1.9511
  145SAPE   H2Y15939   6.085   1.699   9.914  2.0385 -0.3233 -2.2403
  145SAPE   C2315940   6.678   2.338  10.161  0.6017 -0.0434  0.3887
  145SAPE   H3R15941   6.737   2.244  10.145 -0.9894 -1.4651  2.3874
  145SAPE   H3S15942   6.733   2.410  10.225  0.5201  2.9176 -2.5748
  145SAPE   C2415943   6.667   2.415  10.025  0.2087 -0.2709 -0.8055
  145SAPE   H4R15944   6.767   2.438   9.983  0.3471  0.6523 -0.0055
  145SAPE   H4S15945   6.610   2.508  10.046 -1.2670 -0.7755 -2.4184
  145SAPE   C2515946   6.609   2.329   9.919  0.2078  0.0999  0.1099
  145SAPE   H5R15947   6.649   2.227   9.908 -0.9292 -0.2004 -1.8714
  145SAPE   C2615948   6.505   2.364   9.845 -0.2790  0.1881  0.5581
  145SAPE   H6R15949   6.467   2.285   9.779 -1.3352 -0.3716  1.7859
  145SAPE   C2715950   6.422   2.492   9.851 -0.9604 -0.0160  0.6389
  145SAPE   H7R15951   6.444   2.558   9.764 -1.7375  0.8919  1.1176
  145SAPE   H7S15952   6.446   2.561   9.934  2.1808 -0.5730  0.3381
  145SAPE   C2815953   6.274   2.473   9.849  0.8318 -0.2506  0.6254
  145SAPE   H8R15954   6.226   2.524   9.933  2.8296  0.3335  1.4560
  145SAPE   C2915955   6.199   2.399   9.760 -0.4372 -0.0078  0.5944
  145SAPE   H9R15956   6.091   2.392   9.778 -0.9588  3.6977 -0.2718
  145SAPE  C21015957   6.246   2.324   9.632  1.3207 -0.1979 -0.3061
  145SAPE  H10R15958   6.355   2.304   9.637  1.1606 -0.8209  1.3268
  145SAPE  H10S15959   6.222   2.383   9.541  0.2769 -1.0810 -0.6259
  145SAPE  C21115960   6.178   2.186   9.628 -0.1940 -0.7582  0.6816
  145SAPE  H11R15961   6.191   2.126   9.720  2.1373 -2.2041 -0.4760
  145SAPE  C21215962   6.107   2.140   9.523  0.0109  0.3041 -0.3181
  145SAPE  H12R15963   6.057   2.043   9.538 -0.8817  1.1398  2.9832
  145SAPE  C21315964   6.054   2.209   9.402  0.0656  0.2245  0.9173
  145SAPE  H13R15965   6.124   2.288   9.367  1.4501 -1.1317  0.5637
  145SAPE  H13S15966   5.958   2.261   9.424 -0.4081  0.3654 -1.2553
  145SAPE  C21415967   6.024   2.117   9.284  0.6377  0.3841 -0.3569
  145SAPE  H14R15968   5.924   2.071   9.281  1.0662 -0.5836 -0.1525
  145SAPE  C21515969   6.112   2.065   9.196 -0.7835 -0.5837  0.0200
  145SAPE  H15R15970   6.083   1.992   9.120  2.0018  0.6840 -2.5109
  145SAPE  C21615971   6.261   2.100   9.191  0.5961  0.4884 -0.4522
  145SAPE  H16R15972   6.329   2.029   9.243 -1.2387 -0.8691  0.1849
  145SAPE  H16S15973   6.269   2.197   9.245 -1.5886  0.6488 -0.3241
  145SAPE  C21715974   6.299   2.124   9.045  0.4062  0.0283  0.5979
  145SAPE  H17R15975   6.399   2.173   9.044 -0.2352  1.3947 -0.3392
  145SAPE  H17S15976   6.229   2.188   8.986 -1.9666 -1.7297  1.3653
  145SAPE  C21815977   6.320   1.983   8.968  0.0860 -0.9704 -0.4395
  145SAPE  H18R15978   6.221   1.961   8.922 -0.2036 -0.4707 -0.0601
  145SAPE  H18S15979   6.355   1.896   9.027  1.3429 -1.7470 -2.2338
  145SAPE  C21915980   6.414   1.995   8.851 -0.3478  0.0345  0.1286
  145SAPE  H19R15981   6.443   1.901   8.800  0.4159 -0.0560  0.7053
  145SAPE  H19S15982   6.513   2.030   8.887  0.0586 -1.1769  0.2380
  145SAPE  C22015983   6.359   2.098   8.750  0.3258 -0.7169 -0.7018
  145SAPE  H20R15984   6.425   2.115   8.662  0.3505  2.3897 -0.1808
  145SAPE  H20S15985   6.340   2.199   8.791 -0.0334 -0.2676 -1.9300
  145SAPE  H20T15986   6.258   2.064   8.720 -1.0787  1.6514  1.0188
  145SAPE   C3315987   6.026   1.820   9.745  0.3298 -0.1660 -0.5089
  145SAPE   H3X15988   6.023   1.926   9.712 -0.7421  0.0827  0.3212
  145SAPE   H3Y15989   5.931   1.774   9.712  2.2545 -3.2779 -2.2079
  145SAPE   C3415990   6.139   1.753   9.672 -0.1984 -0.1055  0.0182
  145SAPE   H4X15991   6.152   1.649   9.710 -0.1516  0.7780  2.6076
  145SAPE   H4Y15992   6.231   1.807   9.702 -1.0709  0.9698  0.8224
  145SAPE   C3515993   6.131   1.737   9.524 -0.2720 -0.5736 -0.1821
  145SAPE   H5X15994   6.104   1.835   9.480 -0.1109 -0.0361  0.8977
  145SAPE   H5Y15995   6.055   1.658   9.503  0.7939 -1.5552 -0.4631
  145SAPE   C3615996   6.262   1.677   9.461 -0.2951 -0.5212  0.5488
  145SAPE   H6X15997   6.251   1.567   9.454  2.7182 -0.9510  1.4855
  145SAPE   H6Y15998   6.349   1.684   9.529  1.6529 -0.4898 -1.8214
  145SAPE   C3715999   6.288   1.735   9.322  0.1558  1.1287  0.3368
  145SAPE   H7X16000   6.384   1.691   9.287 -0.2409 -0.1026  0.7692
  145SAPE   H7Y16001   6.294   1.846   9.330 -0.1230  1.1904 -0.3255
  145SAPE   C3816002   6.190   1.698   9.211 -0.3149  0.0120  0.8094
  145SAPE   H8X16003   6.149   1.795   9.176  1.2982 -0.0657 -1.5468
  145SAPE   H8Y16004   6.109   1.640   9.261  1.2058 -0.6561  2.5987
  145SAPE   C3916005   6.255   1.623   9.095  0.2320  0.3321 -0.4048
  145SAPE   H9X16006   6.293   1.527   9.136 -1.0435 -0.8446 -1.8484
  145SAPE   H9Y16007   6.337   1.688   9.059 -1.9484  3.9240  0.5899
  145SAPE  C31016008   6.155   1.601   8.981  0.5295 -0.3228 -0.0757
  145SAPE  H10X16009   6.102   1.696   8.957  0.6449 -0.8936 -2.8883
  145SAPE  H10Y16010   6.088   1.522   9.020 -0.5879  0.1338 -1.0108
  145SAPE  C31116011   6.222   1.558   8.848 -0.7079  0.1658 -1.2031
  145SAPE  H11X16012   6.262   1.454   8.853 -1.5596 -0.1716 -1.1642
  145SAPE  H11Y16013   6.311   1.617   8.818  0.5406 -0.9603  0.0924
  145SAPE  C31216014   6.147   1.572   8.720 -0.4810  0.0990 -0.0513
  145SAPE  H12X16015   6.113   1.678   8.712  0.4279  0.3330 -1.1816
  145SAPE  H12Y16016   6.048   1.523   8.732 -0.2892 -0.5732 -1.1261
  145SAPE  C31316017   6.230   1.552   8.594 -0.1583  0.2601 -0.1915
  145SAPE  H13X16018   6.277   1.453   8.611 -1.4110 -0.1014  1.3472
  145SAPE  H13Y16019   6.312   1.628   8.589 -1.3622  1.6136  0.0426
  145SAPE  C31416020   6.164   1.567   8.455 -0.5987  0.4365 -0.1087
  145SAPE  H14X16021   6.077   1.497   8.458  0.7741 -1.5032 -2.3479
  145SAPE  H14Y16022   6.245   1.530   8.389  1.0930  1.1353  1.5043
  145SAPE  C31516023   6.113   1.710   8.405 -0.6372  0.5357  0.5791
  145SAPE  H15X16024   6.193   1.778   8.443  0.7390 -1.0028  0.5818
  145SAPE  H15Y16025   6.012   1.717   8.449 -0.4152 -2.4277  1.8109
  145SAPE  C31616026   6.091   1.716   8.250 -0.1990 -0.6975 -0.0674
  145SAPE  H16X16027   6.038   1.812   8.229 -0.6920 -1.3934 -2.2633
  145SAPE  H16Y16028   6.019   1.636   8.225 -0.6060  0.6449 -3.9433
  145SAPE  C31716029   6.218   1.701   8.161  0.3170  0.1746  0.4488
  145SAPE  H17X16030   6.207   1.732   8.055 -0.4087  2.0065  1.0317
  145SAPE  H17Y16031   6.226   1.590   8.171  0.2840  0.3216  2.5391
  145SAPE  C31816032   6.344   1.773   8.223  0.3557  1.3902  0.6564
  145SAPE  H18X16033   6.420   1.773   8.142 -0.7103 -0.6738 -0.4342
  145SAPE  H18Y16034   6.395   1.711   8.300  0.4708  0.6548  0.0040
  145SAPE  H18Z16035   6.329   1.879   8.251  1.1952  2.0178 -1.1290
  146SAPE     N16036   5.514   3.544  10.874  1.2682 -0.1985  0.5755
  146SAPE   HN116037   5.584   3.488  10.927  1.3880 -0.2388  0.3767
  146SAPE   HN216038   5.429   3.489  10.849 -0.2560  2.0069  0.6099
  146SAPE   HN316039   5.534   3.586  10.781  1.4238  0.8947  1.0805
  146SAPE   C1216040   5.470   3.648  10.975 -0.1435  0.0428 -0.6551
  146SAPE  H12A16041   5.555   3.708  11.013 -0.8313  0.0171  0.9902
  146SAPE  H12B16042   5.434   3.587  11.060  2.5778 -2.5068 -1.1803
  146SAPE   C1116043   5.356   3.742  10.907 -0.1925  0.2187 -0.9073
  146SAPE  H11A16044   5.344   3.827  10.979  1.2755 -1.2230  1.1622
  146SAPE  H11B16045   5.262   3.686  10.889 -0.8931  0.3072  1.9832
  146SAPE     P16046   5.304   3.893  10.706  0.4848  0.1410 -0.6093
  146SAPE   O1316047   5.257   3.995  10.804 -0.2646  0.1071  0.2416
  146SAPE   O1416048   5.351   3.946  10.575  0.0621  0.4093  0.3707
  146SAPE   O1216049   5.411   3.798  10.782 -0.3207  0.7767 -0.0017
  146SAPE   O1116050   5.179   3.803  10.686 -0.2079 -0.2725  0.6001
  146SAPE    C116051   5.174   3.678  10.612 -0.3612  0.4888  0.1252
  146SAPE    HA16052   5.243   3.607  10.663  0.8438  0.8413 -0.9488
  146SAPE    HB16053   5.077   3.626  10.622 -0.6158  1.3117  2.9430
  146SAPE    C216054   5.211   3.673  10.461 -0.6938 -0.4904 -0.2587
  146SAPE    HS16055   5.315   3.709  10.451  0.0040 -2.9443 -4.0086
  146SAPE   O2116056   5.111   3.734  10.382 -0.5248 -0.6542  0.3167
  146SAPE   C2116057   5.158   3.766  10.258 -0.0626  0.1407 -0.1937
  146SAPE   O2216058   5.274   3.771  10.224  0.3058  0.3966  0.4140
  146SAPE   C2216059   5.033   3.784  10.171  0.0096  0.0088  0.5309
  146SAPE   H2R16060   5.019   3.684  10.124 -1.3327  0.5158 -0.1898
  146SAPE   H2S16061   4.942   3.797  10.233 -1.3895 -1.9093 -0.9830
  146SAPE    C316062   5.226   3.528  10.421  0.2384  0.0542  0.6989
  146SAPE    HX16063   5.125   3.485  10.435 -0.3760  0.8091 -1.0968
  146SAPE    HY16064   5.290   3.463  10.485 -0.0822 -0.6701  0.2877
  146SAPE   O3116065   5.253   3.511  10.283 -0.3554  0.3259 -0.4758
  146SAPE   C3116066   5.382   3.507  10.242  0.4111  0.0808  0.3521
  146SAPE   O3216067   5.484   3.523  10.308  0.2126 -0.5407  0.2854
  146SAPE   C3216068   5.373   3.451  10.097 -0.1823 -0.2095 -0.4734
  146SAPE   H2X16069   5.287   3.504  10.050 -0.7014 -0.1472  0.5241
  146SAPE   H2Y16070   5.344   3.344  10.107 -4.6173  0.8018 -0.0721
  146SAPE   C2316071   5.042   3.897  10.060  0.2535  0.2195 -0.2876
  146SAPE   H3R16072   5.137   3.883  10.003 -0.4965 -0.2966 -1.4528
  146SAPE   H3S16073   5.046   4.000  10.101  0.4917  1.0525 -2.2818
  146SAPE   C2416074   4.916   3.888   9.968 -0.1671 -0.1345  0.1946
  146SAPE   H4R16075   4.826   3.924  10.023 -1.6335 -1.1528 -1.4540
  146SAPE   H4S16076   4.891   3.783   9.945 -1.3244  0.0745  0.4389
  146SAPE   C2516077   4.941   3.956   9.836 -0.8433 -0.0762  0.1690
  146SAPE   H5R16078   4.934   4.064   9.856 -1.4460  0.4472 -2.5281
  146SAPE   C2616079   4.989   3.898   9.726  0.1618  0.6063  0.0388
  146SAPE   H6R16080   4.976   3.954   9.633 -0.1747  0.8956  0.2574
  146SAPE   C2716081   5.027   3.753   9.712  0.5080  0.5922 -0.2276
  146SAPE   H7R16082   5.079   3.719   9.804  0.7392  1.8732  0.1388
  146SAPE   H7S16083   5.112   3.742   9.641  0.0442 -1.4202 -0.5383
  146SAPE   C2816084   4.912   3.661   9.697  0.0793  0.4165 -0.1691
  146SAPE   H8R16085   4.828   3.673   9.767  0.7116  1.9114  0.3564
  146SAPE   C2916086   4.884   3.578   9.591  0.4142 -0.9712 -0.0758
  146SAPE   H9R16087   4.791   3.521   9.582 -1.3178  1.3910  1.7051
  146SAPE  C21016088   4.981   3.561   9.473  0.7984  0.1937  0.9791
  146SAPE  H10R16089   4.963   3.462   9.425 -1.6255  0.1230  1.8677
  146SAPE  H10S16090   5.088   3.555   9.502  0.6085 -2.8385  1.3979
  146SAPE  C21116091   4.952   3.658   9.363 -0.7850 -0.2888 -0.2440
  146SAPE  H11R16092   4.867   3.724   9.386 -1.3461 -1.1832  0.3073
  146SAPE  C21216093   5.015   3.666   9.245 -0.1467  0.5248  0.6952
  146SAPE  H12R16094   4.970   3.732   9.170  0.7166  1.7282  1.2078
  146SAPE  C21316095   5.116   3.564   9.194  0.3892 -0.1773 -0.3853
  146SAPE  H13R16096   5.067   3.467   9.167  2.3430 -1.2725 -0.1271
  146SAPE  H13S16097   5.188   3.542   9.275  1.4685  1.9539 -0.7066
  146SAPE  C21416098   5.178   3.639   9.079 -0.5447 -0.5545  0.5733
  146SAPE  H14R16099   5.247   3.721   9.106 -1.2157 -0.5830  2.5469
  146SAPE  C21516100   5.145   3.618   8.947  0.2716  0.1054 -0.4680
  146SAPE  H15R16101   5.208   3.662   8.868  2.2149 -1.4761  0.1223
  146SAPE  C21616102   5.047   3.511   8.900 -0.4747  0.0616 -0.0843
  146SAPE  H16R16103   5.036   3.422   8.967 -1.1685 -1.2938 -1.9147
  146SAPE  H16S16104   5.091   3.469   8.808 -0.0220 -3.0670  1.4038
  146SAPE  C21716105   4.904   3.543   8.869 -0.6053  0.1533 -0.9288
  146SAPE  H17R16106   4.895   3.645   8.826 -0.0494 -0.2693 -2.0824
  146SAPE  H17S16107   4.844   3.550   8.963 -1.5430  2.2257 -1.6145
  146SAPE  C21816108   4.828   3.436   8.780 -0.5500  0.4284 -0.8190
  146SAPE  H18R16109   4.841   3.328   8.805  0.6442  1.0084  1.2427
  146SAPE  H18S16110   4.878   3.444   8.681  1.0643 -0.9072 -0.1420
  146SAPE  C21916111   4.681   3.467   8.769 -0.5714 -0.1248  0.0226
  146SAPE  H19R16112   4.662   3.568   8.726 -1.5950 -0.6473 -0.7966
  146SAPE  H19S16113   4.642   3.477   8.873  0.6932  2.7578  0.3237
  146SAPE  C22016114   4.596   3.368   8.690 -0.6540 -0.5201  0.6429
  146SAPE  H20R16115   4.490   3.399   8.706 -0.2902  0.3855  1.4091
  146SAPE  H20S16116   4.620   3.269   8.734  1.6492  0.3232  1.4352
  146SAPE  H20T16117   4.613   3.376   8.580  0.8925  1.5428  0.9726
  146SAPE   C3316118   5.488   3.471  10.011 -0.0183  0.2202  0.7472
  146SAPE   H3X16119   5.572   3.412  10.052  0.0735  0.6820  1.2379
  146SAPE   H3Y16120   5.539   3.569  10.019  0.9925 -0.1719 -0.6111
  146SAPE   C3416121   5.464   3.430   9.867 -0.0225 -0.1289  0.1236
  146SAPE   H4X16122   5.411   3.332   9.876  0.8743 -0.6005  0.4218
  146SAPE   H4Y16123   5.550   3.404   9.802 -0.0510 -0.6326  0.2805
  146SAPE   C3516124   5.375   3.527   9.784  0.2342  0.0592 -0.1494
  146SAPE   H5X16125   5.397   3.634   9.804 -0.4131  0.1737 -0.0421
  146SAPE   H5Y16126   5.269   3.515   9.813  0.3230 -0.4265 -0.0200
  146SAPE   C3616127   5.393   3.506   9.637 -0.2024 -0.1644  0.7511
  146SAPE   H6X16128   5.304   3.534   9.578  0.3699 -0.2408 -0.1689
  146SAPE   H6Y16129   5.411   3.399   9.611  1.7054  0.2187  0.3456
  146SAPE   C3716130   5.511   3.586   9.586 -0.0203 -0.2107  0.2746
  146SAPE   H7X16131   5.604   3.555   9.639 -0.1287 -1.8733 -0.4429
  146SAPE   H7Y16132   5.491   3.691   9.615 -0.6284 -0.4485  0.7228
  146SAPE   C3816133   5.546   3.571   9.437 -0.1349  0.6973  0.2286
  146SAPE   H8X16134   5.638   3.632   9.423  0.5806 -0.7354 -1.6631
  146SAPE   H8Y16135   5.461   3.592   9.369 -1.4950 -2.5096  0.7692
  146SAPE   C3916136   5.593   3.423   9.401 -0.5792  0.6492 -0.3905
  146SAPE   H9X16137   5.508   3.354   9.422  0.0204  0.2450  0.8397
  146SAPE   H9Y16138   5.680   3.397   9.466  0.2800 -0.3089 -1.8635
  146SAPE  C31016139   5.650   3.396   9.256  0.4765  0.5017  0.1306
  146SAPE  H10X16140   5.693   3.294   9.250  0.4755  0.4578  0.7749
  146SAPE  H10Y16141   5.735   3.465   9.238  0.4037  0.5928  0.1339
  146SAPE  C31116142   5.544   3.418   9.143  0.6157  0.1666  0.3276
  146SAPE  H11X16143   5.490   3.514   9.157 -0.3181 -0.4578  1.0910
  146SAPE  H11Y16144   5.465   3.341   9.156 -0.0143  1.0727  2.1110
  146SAPE  C31216145   5.577   3.408   8.995  0.8121  0.4981  0.4677
  146SAPE  H12X16146   5.610   3.305   8.972  3.4690  1.0569  1.3923
  146SAPE  H12Y16147   5.653   3.486   8.974  1.0897  0.7571  2.2671
  146SAPE  C31316148   5.457   3.453   8.904  0.2342 -0.2466  0.1103
  146SAPE  H13X16149   5.395   3.531   8.954 -0.7530 -0.8536 -0.1417
  146SAPE  H13Y16150   5.386   3.368   8.899 -3.5703  2.6332  0.4601
  146SAPE  C31416151   5.490   3.509   8.771  0.6868 -0.4699  0.1069
  146SAPE  H14X16152   5.561   3.591   8.794  0.2243  0.2184 -0.8480
  146SAPE  H14Y16153   5.392   3.543   8.730  0.8411  1.3939  1.1682
  146SAPE  C31516154   5.555   3.411   8.671  1.1116 -0.1177  1.0389
  146SAPE  H15X16155   5.658   3.387   8.708  1.8898  0.9346 -0.3531
  146SAPE  H15Y16156   5.570   3.462   8.574 -0.3594  0.8183  1.2899
  146SAPE  C31616157   5.478   3.283   8.634 -0.0137 -0.2153 -0.5149
  146SAPE  H16X16158   5.370   3.294   8.608 -0.7487  0.4856  2.4707
  146SAPE  H16Y16159   5.479   3.221   8.726  0.4147  0.9506  0.2933
  146SAPE  C31716160   5.540   3.207   8.510  0.0346  0.3279 -0.5717
  146SAPE  H17X16161   5.518   3.253   8.411 -1.6482  0.3492 -0.2124
  146SAPE  H17Y16162   5.482   3.113   8.506  0.9963 -0.3508  0.8954
  146SAPE  C31816163   5.691   3.180   8.526  0.2492  0.1812  0.4748
  146SAPE  H18X16164   5.732   3.096   8.467 -1.5804 -1.0448  0.8890
  146SAPE  H18Y16165   5.721   3.170   8.633 -5.2041  2.3117  2.5894
  146SAPE  H18Z16166   5.733   3.276   8.489 -2.5123  1.7501  1.0894
  147SAPE     N16167   5.067   6.202  11.025  0.5952 -0.3025 -0.0143
  147SAPE   HN116168   4.974   6.244  11.040  1.1945  0.7292  0.9362
  147SAPE   HN216169   5.070   6.098  11.037  1.2044 -0.3317 -0.3420
  147SAPE   HN316170   5.137   6.239  11.092  0.7244 -0.0653 -0.2800
  147SAPE   C1216171   5.116   6.246  10.887  0.0600  0.7229 -0.7822
  147SAPE  H12A16172   5.154   6.348  10.908  3.7899 -1.0749  2.6514
  147SAPE  H12B16173   5.031   6.227  10.818 -1.8732  1.2492  1.3002
  147SAPE   C1116174   5.233   6.158  10.854 -0.7408  0.0781  0.0182
  147SAPE  H11A16175   5.309   6.148  10.934 -0.8990  1.6982  0.4092
  147SAPE  H11B16176   5.278   6.206  10.764  2.7486 -1.9066  0.5080
  147SAPE     P16177   5.244   5.937  10.703  0.0383 -0.1919 -0.0541
  147SAPE   O1316178   5.385   5.922  10.737  0.4255 -0.3048 -0.5095
  147SAPE   O1416179   5.163   5.815  10.704 -0.0553  0.1490 -0.7454
  147SAPE   O1216180   5.174   6.032  10.820 -0.4827  0.2114 -0.3634
  147SAPE   O1116181   5.212   6.020  10.568  0.0062 -0.0549  0.0731
  147SAPE    C116182   5.089   6.084  10.535 -0.6050 -0.4238  0.4846
  147SAPE    HA16183   5.011   6.006  10.539  0.3821 -1.4216  0.6574
  147SAPE    HB16184   5.048   6.161  10.604 -0.2982  1.5693 -1.4400
  147SAPE    C216185   5.092   6.140  10.383  0.6120 -0.1133 -0.4826
  147SAPE    HS16186   4.989   6.154  10.343  0.4118  2.3646  0.6859
  147SAPE   O2116187   5.156   6.050  10.309  0.0961  0.4092  0.7873
  147SAPE   C2116188   5.087   5.943  10.268  0.1312  0.0121 -0.5857
  147SAPE   O2216189   4.969   5.923  10.286  0.4302 -0.2481  0.7434
  147SAPE   C2216190   5.184   5.835  10.223  0.2629 -0.1950 -0.0675
  147SAPE   H2R16191   5.287   5.876  10.212  1.8019 -3.7151 -0.3994
  147SAPE   H2S16192   5.186   5.751  10.296  0.3903  0.8188  1.1270
  147SAPE    C316193   5.171   6.272  10.371 -0.1552 -0.5054 -0.1747
  147SAPE    HX16194   5.273   6.259  10.412  0.2927 -0.3481 -1.2132
  147SAPE    HY16195   5.118   6.349  10.431 -1.2309 -0.8590 -0.6418
  147SAPE   O3116196   5.177   6.324  10.237  0.1912  0.3591  0.4387
  147SAPE   C3116197   5.285   6.287  10.168 -0.2655  0.1443 -1.0861
  147SAPE   O3216198   5.378   6.220  10.212  0.5014  0.0410  0.5998
  147SAPE   C3216199   5.264   6.334  10.023  0.3799  0.5808 -0.3123
  147SAPE   H2X16200   5.176   6.402  10.021 -0.8578 -0.7602  2.4155
  147SAPE   H2Y16201   5.236   6.236   9.979  0.1049  0.5213 -0.0085
  147SAPE   C2316202   5.136   5.787  10.087 -0.0963  0.4130  0.0297
  147SAPE   H3R16203   5.032   5.748  10.083  1.2283 -3.4742 -0.3082
  147SAPE   H3S16204   5.203   5.709  10.045 -1.0980 -0.9382  0.8518
  147SAPE   C2416205   5.126   5.909   9.988 -0.2111 -0.1157  0.2954
  147SAPE   H4R16206   5.045   5.976  10.026 -0.0271 -0.0222  0.5316
  147SAPE   H4S16207   5.091   5.860   9.895 -1.4734  1.1953  0.0304
  147SAPE   C2516208   5.255   5.989   9.973 -0.0037  0.2136 -0.1594
  147SAPE   H5R16209   5.303   6.018  10.068 -0.5636  0.1131  0.1634
  147SAPE   C2616210   5.317   6.029   9.855 -0.0123 -0.4832  0.0424
  147SAPE   H6R16211   5.414   6.079   9.863 -1.6006  2.9293 -0.6130
  147SAPE   C2716212   5.277   6.006   9.715  0.5305 -0.6955 -0.0988
  147SAPE   H7R16213   5.234   5.904   9.703 -1.6179  0.3687 -2.5977
  147SAPE   H7S16214   5.368   6.005   9.652  1.1220 -1.2590  0.7541
  147SAPE   C2816215   5.180   6.113   9.667  0.1272 -0.2679 -0.7930
  147SAPE   H8R16216   5.106   6.153   9.738  1.4035  2.8194 -1.0796
  147SAPE   C2916217   5.176   6.182   9.551 -0.1833  0.4061  0.7603
  147SAPE   H9R16218   5.093   6.254   9.544 -1.4678 -1.1727 -1.3154
  147SAPE  C21016219   5.268   6.165   9.435  0.4038 -0.1188  0.0117
  147SAPE  H10R16220   5.327   6.071   9.434 -1.3159 -1.2298 -0.8672
  147SAPE  H10S16221   5.345   6.245   9.441 -0.3009  0.9604 -3.2923
  147SAPE  C21116222   5.198   6.175   9.309  0.4803  0.3834  0.0239
  147SAPE  H11R16223   5.090   6.193   9.309  0.4352  0.2441 -1.7652
  147SAPE  C21216224   5.253   6.168   9.189  0.0823  0.3491  0.1558
  147SAPE  H12R16225   5.186   6.165   9.102  0.2797 -2.1831  0.0212
  147SAPE  C21316226   5.394   6.125   9.150 -0.4971 -0.6295 -0.1488
  147SAPE  H13R16227   5.454   6.133   9.243 -1.0645 -0.7375  0.2328
  147SAPE  H13S16228   5.431   6.190   9.068 -0.9425  1.8275  1.4926
  147SAPE  C21416229   5.401   5.980   9.106 -0.1999 -0.1889 -0.0551
  147SAPE  H14R16230   5.336   5.914   9.165  0.6937 -0.5043  0.5850
  147SAPE  C21516231   5.463   5.932   8.996  0.1361  0.6258  0.5081
  147SAPE  H15R16232   5.462   5.823   8.976 -3.3808  0.7040 -0.4444
  147SAPE  C21616233   5.541   6.016   8.903 -0.4718  0.2578  0.2881
  147SAPE  H16R16234   5.649   5.991   8.907 -0.5360 -0.7028 -2.2851
  147SAPE  H16S16235   5.531   6.125   8.922 -0.0677  0.3395  0.0506
  147SAPE  C21716236   5.511   5.989   8.759 -0.8817  0.3021  0.3363
  147SAPE  H17R16237   5.403   5.995   8.733 -0.9585 -2.9662 -0.6451
  147SAPE  H17S16238   5.533   5.882   8.736  0.2547  0.6237 -0.1133
  147SAPE  C21816239   5.609   6.059   8.655 -0.1696  0.2044 -0.0681
  147SAPE  H18R16240   5.584   6.167   8.658 -1.3912 -0.0932  1.7653
  147SAPE  H18S16241   5.574   6.007   8.563 -0.0103 -0.5642  0.2950
  147SAPE  C21916242   5.761   6.061   8.667 -0.5992  0.1423  0.4388
  147SAPE  H19R16243   5.796   6.089   8.768  3.8761  2.1069 -1.4092
  147SAPE  H19S16244   5.808   6.137   8.601  2.7798 -3.0020 -1.1227
  147SAPE  C22016245   5.835   5.925   8.657  0.1021  0.1969 -0.2019
  147SAPE  H20R16246   5.940   5.935   8.693 -0.5971 -0.6738  2.3226
  147SAPE  H20S16247   5.848   5.893   8.552  3.8226  0.5688  0.0200
  147SAPE  H20T16248   5.780   5.851   8.720 -1.6603  1.4876 -0.1572
  147SAPE   C3316249   5.396   6.380   9.967 -0.0542 -0.5683 -0.1438
  147SAPE   H3X16250   5.396   6.359   9.857 -0.6584  0.1438 -0.2855
  147SAPE   H3Y16251   5.481   6.322  10.008 -0.6530 -1.4996 -0.1772
  147SAPE   C3416252   5.414   6.530   9.985  0.3695 -0.0031  0.4423
  147SAPE   H4X16253   5.513   6.553   9.941  0.5403  0.2628  0.9487
  147SAPE   H4Y16254   5.416   6.545  10.095  1.3353 -0.3252  0.4758
  147SAPE   C3516255   5.310   6.612   9.913  0.5491 -0.3565 -0.3605
  147SAPE   H5X16256   5.340   6.715   9.944  1.0072 -0.4035 -0.6362
  147SAPE   H5Y16257   5.209   6.611   9.958  1.3397  1.1737  1.5759
  147SAPE   C3616258   5.319   6.605   9.759 -0.3352 -0.3778 -0.6729
  147SAPE   H6X16259   5.426   6.607   9.728  0.0241  1.3698  0.5065
  147SAPE   H6Y16260   5.270   6.700   9.728 -0.3686 -0.2707 -0.3005
  147SAPE   C3716261   5.252   6.491   9.680 -0.4586 -0.0464 -0.3822
  147SAPE   H7X16262   5.155   6.464   9.726 -0.4420 -0.9244 -0.8368
  147SAPE   H7Y16263   5.307   6.394   9.677 -0.7402 -0.1683 -2.3894
  147SAPE   C3816264   5.236   6.546   9.541  0.0991 -0.3967  0.7076
  147SAPE   H8X16265   5.268   6.465   9.471  0.2053 -0.6313  1.0235
  147SAPE   H8Y16266   5.311   6.623   9.515 -1.0268  0.2780 -0.7002
  147SAPE   C3916267   5.095   6.601   9.504  0.2091 -0.1000 -0.2309
  147SAPE   H9X16268   5.067   6.673   9.584 -2.4808 -1.8935  0.5676
  147SAPE   H9Y16269   5.019   6.520   9.502 -1.0036  1.0004 -2.0449
  147SAPE  C31016270   5.094   6.663   9.362  0.5174  0.7803  0.0598
  147SAPE  H10X16271   5.152   6.757   9.349  0.1548  1.1043  0.7228
  147SAPE  H10Y16272   4.989   6.695   9.345  0.1647  0.7573  1.9629
  147SAPE  C31116273   5.119   6.548   9.261 -0.6653 -0.2465  0.9034
  147SAPE  H11X16274   5.047   6.464   9.267  0.8380 -1.7664 -0.9064
  147SAPE  H11Y16275   5.220   6.501   9.266 -0.6456 -0.1819  1.1475
  147SAPE  C31216276   5.107   6.600   9.118  0.0065  0.9387  0.6588
  147SAPE  H12X16277   5.148   6.524   9.048 -1.1511  1.2350 -0.3711
  147SAPE  H12Y16278   5.158   6.696   9.096 -0.3537  1.3656  1.6405
  147SAPE  C31316279   4.965   6.637   9.082 -0.1381  0.1056  0.2867
  147SAPE  H13X16280   4.942   6.722   9.149 -0.1952  0.1033  0.2709
  147SAPE  H13Y16281   4.893   6.558   9.114 -0.9278  0.3221 -0.9073
  147SAPE  C31416282   4.945   6.662   8.930  0.3241  0.4869  0.2734
  147SAPE  H14X16283   4.961   6.571   8.869 -1.2176 -0.0289  0.5863
  147SAPE  H14Y16284   5.024   6.735   8.902  0.4176  1.1772  2.1853
  147SAPE  C31516285   4.805   6.719   8.900  0.0023  0.3431  0.1338
  147SAPE  H15X16286   4.804   6.824   8.936  3.2010  1.1944 -1.9126
  147SAPE  H15Y16287   4.724   6.665   8.956 -0.4822  1.5877  0.6674
  147SAPE  C31616288   4.778   6.718   8.750  0.8902 -0.5438  0.4987
  147SAPE  H16X16289   4.751   6.617   8.713 -2.3622 -1.1402  3.8098
  147SAPE  H16Y16290   4.869   6.745   8.694  1.2584 -1.3943  0.6810
  147SAPE  C31716291   4.652   6.802   8.711  0.0594  0.6574  0.2578
  147SAPE  H17X16292   4.664   6.913   8.713 -0.7003  0.8124 -1.6797
  147SAPE  H17Y16293   4.570   6.777   8.781 -1.3654  0.4519 -1.4315
  147SAPE  C31816294   4.604   6.752   8.570  0.1692 -0.1954 -0.2318
  147SAPE  H18X16295   4.527   6.824   8.535  0.6344  1.1258  1.3299
  147SAPE  H18Y16296   4.547   6.657   8.581 -0.4750  0.3167  0.9882
  147SAPE  H18Z16297   4.691   6.756   8.501  0.8413  0.0830  0.6086
  148SAPE     N16298   0.895   2.083  10.425 -0.2222  0.6041  0.2446
  148SAPE   HN116299   0.830   2.032  10.489 -3.7551  0.3126 -3.2235
  148SAPE   HN216300   0.885   2.186  10.427  2.8093  0.9719  0.8513
  148SAPE   HN316301   0.866   2.064  10.327 -1.3392  0.3821  0.6039
  148SAPE   C1216302   1.038   2.038  10.436 -0.1908 -1.1396  0.1220
  148SAPE  H12A16303   1.050   1.943  10.379  1.8640  1.2857 -4.0000
  148SAPE  H12B16304   1.068   2.030  10.542 -0.2475  2.9724  0.6255
  148SAPE   C1116305   1.130   2.146  10.376 -0.1764  0.0900  0.4399
  148SAPE  H11A16306   1.118   2.159  10.266  2.0685 -0.2760  0.1084
  148SAPE  H11B16307   1.231   2.102  10.387 -0.5166 -1.0794 -0.7993
  148SAPE     P16308   1.221   2.382  10.419  0.0659  0.0355  0.0227
  148SAPE   O1316309   1.155   2.518  10.438 -0.2692  0.0444 -0.3925
  148SAPE   O1416310   1.332   2.350  10.512 -0.8168  0.1771 -0.0916
  148SAPE   O1216311   1.107   2.274  10.431 -0.4071  0.0647  0.3225
  148SAPE   O1116312   1.269   2.378  10.271  0.1108  0.5158  0.1925
  148SAPE    C116313   1.410   2.370  10.236  0.1562  0.3387  0.1876
  148SAPE    HA16314   1.466   2.455  10.280 -0.0703 -0.7047  2.6313
  148SAPE    HB16315   1.459   2.291  10.297  1.6540  0.3296 -0.9608
  148SAPE    C216316   1.428   2.344  10.085  0.7495  0.4432  0.7802
  148SAPE    HS16317   1.528   2.306  10.056 -0.9200 -2.2378 -2.1280
  148SAPE   O2116318   1.392   2.454  10.004  0.6769 -0.3152 -0.0194
  148SAPE   C2116319   1.488   2.550   9.990  0.2791 -0.5244 -0.3733
  148SAPE   O2216320   1.595   2.554  10.048  0.1680 -0.4791 -0.4230
  148SAPE   C2216321   1.434   2.665   9.905  0.1379  0.0539 -0.0591
  148SAPE   H2R16322   1.338   2.692   9.955 -0.4938 -0.4293 -0.9969
  148SAPE   H2S16323   1.500   2.754   9.902  2.4305 -1.5682 -0.6099
  148SAPE    C316324   1.336   2.219  10.051 -0.0580 -0.6530 -0.0979
  148SAPE    HX16325   1.233   2.252  10.077  0.8393  0.0140  3.1459
  148SAPE    HY16326   1.364   2.133  10.116  2.0965 -0.0856 -0.2034
  148SAPE   O3116327   1.359   2.165   9.916 -0.0028 -0.4371 -0.2573
  148SAPE   C3116328   1.279   2.224   9.825 -0.0913 -0.4958 -0.0588
  148SAPE   O3216329   1.187   2.298   9.858  0.3222  0.3122  0.1097
  148SAPE   C3216330   1.344   2.197   9.688  0.0548 -0.0960 -0.0750
  148SAPE   H2X16331   1.357   2.088   9.676 -0.9372 -0.2741  0.3345
  148SAPE   H2Y16332   1.443   2.246   9.698 -0.7045  1.4826  0.0589
  148SAPE   C2316333   1.387   2.626   9.765  0.6149  0.4095  0.8209
  148SAPE   H3R16334   1.311   2.701   9.734  1.3658  1.5296  1.5860
  148SAPE   H3S16335   1.339   2.527   9.771 -2.8531  1.8931 -0.2306
  148SAPE   C2416336   1.507   2.618   9.664  1.2649 -0.6538  0.4921
  148SAPE   H4R16337   1.589   2.564   9.715  3.0488  2.3091  0.9861
  148SAPE   H4S16338   1.537   2.725   9.664  1.1715 -0.6271  0.5112
  148SAPE   C2516339   1.480   2.561   9.524 -0.2416 -0.2110 -0.9786
  148SAPE   H5R16340   1.448   2.455   9.527 -0.7746 -0.0263  1.5803
  148SAPE   C2616341   1.467   2.633   9.409 -0.0017  0.0906  0.7045
  148SAPE   H6R16342   1.441   2.580   9.316  0.4354  4.0235 -1.8819
  148SAPE   C2716343   1.493   2.779   9.388 -1.0108 -0.3240 -0.4528
  148SAPE   H7R16344   1.540   2.825   9.478  3.8376 -1.4806 -2.1030
  148SAPE   H7S16345   1.398   2.831   9.365  0.3449  1.2623 -2.9463
  148SAPE   C2816346   1.581   2.809   9.272  1.1251 -0.0290  0.5058
  148SAPE   H8R16347   1.684   2.840   9.292  0.7919  1.8050 -0.4089
  148SAPE   C2916348   1.552   2.797   9.140  0.1202  0.4246  0.3786
  148SAPE   H9R16349   1.629   2.824   9.066  0.0657  0.5202  0.3592
  148SAPE  C21016350   1.424   2.747   9.083  0.2134 -0.9918 -0.3097
  148SAPE  H10R16351   1.355   2.691   9.149  0.0159 -0.2211  0.1435
  148SAPE  H10S16352   1.451   2.664   9.013  0.0137  0.7258 -2.5259
  148SAPE  C21116353   1.343   2.853   9.006 -0.4396  0.4003 -0.3176
  148SAPE  H11R16354   1.401   2.884   8.918  1.7150 -1.9868  0.1431
  148SAPE  C21216355   1.225   2.903   9.045  0.6835 -0.0565 -0.3584
  148SAPE  H12R16356   1.168   2.969   8.979 -0.0045 -0.4206 -0.1357
  148SAPE  C21316357   1.151   2.858   9.167 -0.4241 -0.1803  0.5310
  148SAPE  H13R16358   1.214   2.823   9.251  2.5921  1.9880 -0.6327
  148SAPE  H13S16359   1.098   2.765   9.137 -1.2741  0.1085  1.0929
  148SAPE  C21416360   1.047   2.958   9.224 -0.3202 -0.1588  0.1686
  148SAPE  H14R16361   0.970   2.993   9.154  1.3978  2.3170 -0.6167
  148SAPE  C21516362   1.034   2.986   9.352  0.0221  0.8523 -0.4924
  148SAPE  H15R16363   0.960   3.060   9.387 -0.6447  0.7432 -1.6008
  148SAPE  C21616364   1.103   2.919   9.472 -0.3109 -0.6897 -0.8064
  148SAPE  H16R16365   1.212   2.940   9.473 -0.0713 -1.7389  1.4631
  148SAPE  H16S16366   1.086   2.810   9.482 -1.7842 -0.2935  1.9756
  148SAPE  C21716367   1.043   2.981   9.606  0.7655  0.3970  0.0659
  148SAPE  H17R16368   0.935   2.954   9.607  0.5616  1.1311 -0.9829
  148SAPE  H17S16369   1.049   3.091   9.597 -1.6207  0.6431  0.8595
  148SAPE  C21816370   1.108   2.926   9.732 -0.1175  0.3817 -0.1800
  148SAPE  H18R16371   1.219   2.917   9.721  0.1521  0.3063  2.1388
  148SAPE  H18S16372   1.067   2.823   9.744 -0.7132  0.5722 -0.5441
  148SAPE  C21916373   1.084   3.017   9.862  0.4205 -0.1071  0.6489
  148SAPE  H19R16374   1.143   3.106   9.833 -2.0830  0.9163 -1.6433
  148SAPE  H19S16375   1.124   2.971   9.955 -2.0053 -0.7434  1.4392
  148SAPE  C22016376   0.936   3.062   9.892 -0.0989 -0.4626 -0.8428
  148SAPE  H20R16377   0.946   3.115   9.989 -0.3356 -2.7580  0.4920
  148SAPE  H20S16378   0.879   2.969   9.913  0.4337 -0.8651 -1.1584
  148SAPE  H20T16379   0.887   3.125   9.814 -0.2398 -1.5467 -1.6564
  148SAPE   C3316380   1.259   2.257   9.573 -0.5291 -0.1327 -0.5228
  148SAPE   H3X16381   1.234   2.365   9.580 -0.8723 -0.3117  2.2495
  148SAPE   H3Y16382   1.158   2.213   9.592  0.4986 -2.0771  0.7929
  148SAPE   C3416383   1.296   2.218   9.430  0.1032  0.4336  0.4606
  148SAPE   H4X16384   1.362   2.295   9.384  1.0405 -1.2381 -1.1481
  148SAPE   H4Y16385   1.204   2.227   9.368 -0.6233 -0.6505  1.3437
  148SAPE   C3516386   1.359   2.082   9.409 -0.2279 -0.0350  0.2516
  148SAPE   H5X16387   1.284   2.006   9.437 -0.3304  0.3118  0.9370
  148SAPE   H5Y16388   1.448   2.072   9.476 -0.5833  0.6818  0.8508
  148SAPE   C3616389   1.427   2.067   9.264 -0.9528  0.0614 -0.4815
  148SAPE   H6X16390   1.414   1.961   9.233 -0.1515  0.5574 -2.7117
  148SAPE   H6Y16391   1.535   2.089   9.271 -1.1144  0.4716  1.1577
  148SAPE   C3716392   1.357   2.152   9.159 -0.3784  1.0378 -0.4512
  148SAPE   H7X16393   1.368   2.260   9.179  2.0127  0.9380 -0.8716
  148SAPE   H7Y16394   1.249   2.128   9.164  0.1737 -1.8078 -0.5501
  148SAPE   C3816395   1.411   2.123   9.012  0.2748  0.5598 -1.0537
  148SAPE   H8X16396   1.516   2.157   8.999  0.5474  0.6960  1.1047
  148SAPE   H8Y16397   1.341   2.173   8.941 -0.0936  0.0539 -1.0515
  148SAPE   C3916398   1.406   1.973   8.985 -0.1446 -0.4555  0.3260
  148SAPE   H9X16399   1.312   1.936   9.030  0.3573 -0.1030  1.7044
  148SAPE   H9Y16400   1.495   1.935   9.040 -2.4513 -2.4389  3.0556
  148SAPE  C31016401   1.417   1.925   8.839  0.3907 -0.6978  0.3464
  148SAPE  H10X16402   1.412   1.814   8.834 -1.1352 -0.5943 -0.8612
  148SAPE  H10Y16403   1.516   1.953   8.797 -0.4993 -0.3208 -1.5846
  148SAPE  C31116404   1.309   1.984   8.738 -0.1940  0.4425 -0.4883
  148SAPE  H11X16405   1.321   2.093   8.754 -0.4734  0.2016  1.7356
  148SAPE  H11Y16406   1.213   1.944   8.777  0.2808 -2.2559 -1.8577
  148SAPE  C31216407   1.323   1.945   8.590  0.4886 -0.1497  0.2866
  148SAPE  H12X16408   1.431   1.930   8.567 -0.1657 -0.6678 -2.7835
  148SAPE  H12Y16409   1.287   2.025   8.522 -3.6708 -0.9845  1.2706
  148SAPE  C31316410   1.226   1.833   8.555  0.0771  0.1913  0.3631
  148SAPE  H13X16411   1.131   1.871   8.599  0.8673  2.7528  0.0412
  148SAPE  H13Y16412   1.255   1.742   8.612  0.9360  1.0318  1.3321
  148SAPE  C31416413   1.208   1.775   8.417 -0.3942  0.5886 -0.0628
  148SAPE  H14X16414   1.308   1.769   8.369 -1.0812  1.2171 -1.6407
  148SAPE  H14Y16415   1.145   1.845   8.358 -0.7907  0.3038  0.0167
  148SAPE  C31516416   1.152   1.632   8.412  0.8008  0.2190  0.4559
  148SAPE  H15X16417   1.211   1.562   8.475  0.8968  0.9811  1.2392
  148SAPE  H15Y16418   1.156   1.598   8.306 -1.5510 -0.0818  0.4121
  148SAPE  C31616419   1.006   1.635   8.454  0.0924 -0.0083  0.3978
  148SAPE  H16X16420   0.957   1.701   8.380  0.1788  0.5727  0.8534
  148SAPE  H16Y16421   0.987   1.672   8.557 -1.9976 -1.9705  0.7926
  148SAPE  C31716422   0.938   1.503   8.445  0.9215 -0.1205  0.0267
  148SAPE  H17X16423   0.976   1.426   8.515  0.4183 -1.1100 -0.7569
  148SAPE  H17Y16424   0.952   1.461   8.343  0.3927 -1.0168  0.3053
  148SAPE  C31816425   0.786   1.520   8.471  0.3172  0.0261 -0.0187
  148SAPE  H18X16426   0.749   1.587   8.390 -0.2934  0.9336  0.9888
  148SAPE  H18Y16427   0.762   1.566   8.569 -0.5782  1.9563 -1.0849
  148SAPE  H18Z16428   0.734   1.421   8.469 -1.4167  0.8695 -2.2016
  149SAPE     N16429   2.421   3.804  11.169 -0.9496  0.4841  0.3312
  149SAPE   HN116430   2.453   3.705  11.162  0.6063  0.7099  2.8954
  149SAPE   HN216431   2.425   3.832  11.269 -1.8269  1.0182  0.2298
  149SAPE   HN316432   2.323   3.814  11.137 -0.2948  2.1138 -1.4117
  149SAPE   C1216433   2.509   3.895  11.095  0.5221 -0.3692  0.3473
  149SAPE  H12A16434   2.528   3.997  11.135  2.9011 -0.8694  0.6130
  149SAPE  H12B16435   2.457   3.904  10.996  0.1365  2.1304  0.7027
  149SAPE   C1116436   2.638   3.828  11.063  0.1447 -0.6123  0.2299
  149SAPE  H11A16437   2.693   3.829  11.159 -1.1025  2.4556  1.0158
  149SAPE  H11B16438   2.680   3.886  10.978 -0.6942  0.8585  0.7710
  149SAPE     P16439   2.764   3.617  10.975  0.2976 -0.4439 -0.1225
  149SAPE   O1316440   2.872   3.647  11.073  0.2217 -0.2574 -0.6705
  149SAPE   O1416441   2.736   3.477  10.948 -0.2717  0.1321  0.7163
  149SAPE   O1216442   2.627   3.695  11.015  0.1881  0.3239 -0.3300
  149SAPE   O1116443   2.804   3.682  10.835 -1.1217  0.5601  0.3554
  149SAPE    C116444   2.719   3.662  10.722 -0.3187 -0.1303  1.1982
  149SAPE    HA16445   2.644   3.580  10.726 -1.7212  0.8219 -1.9926
  149SAPE    HB16446   2.678   3.763  10.699 -0.1967 -0.4932 -0.7650
  149SAPE    C216447   2.811   3.636  10.606  0.1310 -0.0930 -0.2876
  149SAPE    HS16448   2.836   3.528  10.606 -2.1289 -0.6980 -2.1943
  149SAPE   O2116449   2.923   3.730  10.618 -0.7113 -0.5991  0.3194
  149SAPE   C2116450   3.044   3.697  10.568  0.0846 -0.3420 -0.3723
  149SAPE   O2216451   3.075   3.594  10.513  0.3129 -0.4582 -0.1367
  149SAPE   C2216452   3.150   3.812  10.583 -0.3138 -0.7683 -1.0658
  149SAPE   H2R16453   3.099   3.897  10.633  1.0897 -0.7561  0.4140
  149SAPE   H2S16454   3.220   3.759  10.651 -1.2069  0.6893  1.0860
  149SAPE    C316455   2.738   3.644  10.463  0.1937  0.4599 -0.2913
  149SAPE    HX16456   2.696   3.745  10.445 -0.4632  0.0014 -1.4230
  149SAPE    HY16457   2.656   3.571  10.478  0.2509  0.9273  3.1638
  149SAPE   O3116458   2.822   3.614  10.350 -0.5191  0.2123 -0.3966
  149SAPE   C3116459   2.848   3.490  10.322  0.1371  0.0331 -0.0087
  149SAPE   O3216460   2.802   3.392  10.384  0.0148  0.1195  0.7925
  149SAPE   C3216461   2.936   3.487  10.199 -0.0702 -0.5840  0.2086
  149SAPE   H2X16462   2.980   3.385  10.200 -3.3002 -2.1184  1.2466
  149SAPE   H2Y16463   3.010   3.570  10.206 -1.5291  1.0541 -2.2823
  149SAPE   C2316464   3.226   3.840  10.453 -0.3427 -0.3963 -0.8365
  149SAPE   H3R16465   3.148   3.878  10.384 -0.9476  1.4603  0.7642
  149SAPE   H3S16466   3.280   3.751  10.414  0.3554  0.4283 -1.7911
  149SAPE   C2416467   3.331   3.943  10.464 -0.1853 -0.8427  0.4491
  149SAPE   H4R16468   3.367   3.979  10.365  1.8716  0.5643  1.6274
  149SAPE   H4S16469   3.420   3.891  10.507  0.3974 -0.9247 -0.7957
  149SAPE   C2516470   3.301   4.067  10.552  0.1385  0.2215 -0.1959
  149SAPE   H5R16471   3.270   4.049  10.656 -1.2744  4.2922  0.2405
  149SAPE   C2616472   3.299   4.199  10.518  0.0153 -0.2947 -0.7713
  149SAPE   H6R16473   3.280   4.280  10.590  2.5597 -0.7518  0.5506
  149SAPE   C2716474   3.311   4.249  10.374 -0.2825  0.6602  0.2929
  149SAPE   H7R16475   3.247   4.339  10.361  0.8367  1.6675  1.5424
  149SAPE   H7S16476   3.298   4.169  10.298 -1.2809  1.1925 -0.1220
  149SAPE   C2816477   3.443   4.318  10.361 -0.3027  0.3573 -0.3395
  149SAPE   H8R16478   3.487   4.367  10.449  0.2065 -0.6898  0.0147
  149SAPE   C2916479   3.505   4.330  10.249  0.1835 -0.2541 -0.1550
  149SAPE   H9R16480   3.605   4.376  10.257 -0.9314  2.0250  1.8139
  149SAPE  C21016481   3.459   4.279  10.108 -0.1259 -0.2576  0.1507
  149SAPE  H10R16482   3.487   4.344  10.022 -2.2174 -0.6800 -0.9026
  149SAPE  H10S16483   3.349   4.287  10.111 -0.3354 -2.7891  1.7972
  149SAPE  C21116484   3.497   4.140  10.075 -0.7809 -0.3964  0.6869
  149SAPE  H11R16485   3.523   4.069  10.155  2.2677 -1.0219 -0.7289
  149SAPE  C21216486   3.520   4.092   9.953 -0.1133 -0.5978 -0.2210
  149SAPE  H12R16487   3.530   3.983   9.938  0.6702 -0.9799  2.5039
  149SAPE  C21316488   3.520   4.160   9.821 -0.7440 -0.3613  0.0744
  149SAPE  H13R16489   3.606   4.124   9.761  0.1391 -1.0158  1.6792
  149SAPE  H13S16490   3.552   4.265   9.840 -0.2350 -0.6476  0.8387
  149SAPE  C21416491   3.397   4.161   9.740  0.8833 -0.7152  0.0683
  149SAPE  H14R16492   3.303   4.122   9.783 -0.0542  0.5461 -0.7490
  149SAPE  C21516493   3.387   4.221   9.618 -0.2034 -0.2076 -0.4586
  149SAPE  H15R16494   3.294   4.233   9.561  0.2479 -2.4205 -1.7698
  149SAPE  C21616495   3.511   4.280   9.557  0.6512 -0.0715 -0.1806
  149SAPE  H16R16496   3.601   4.293   9.620 -1.4548  1.5343  2.7475
  149SAPE  H16S16497   3.478   4.380   9.521 -2.6241 -0.6118  0.9705
  149SAPE  C21716498   3.580   4.200   9.441 -0.1850  1.1575  0.5046
  149SAPE  H17R16499   3.598   4.096   9.476 -1.4421  0.6262 -0.3709
  149SAPE  H17S16500   3.679   4.246   9.424  0.7288 -1.0741 -0.6408
  149SAPE  C21816501   3.496   4.195   9.309 -0.3502  0.7959 -0.9042
  149SAPE  H18R16502   3.412   4.126   9.330 -0.3345  0.7962 -0.8394
  149SAPE  H18S16503   3.563   4.148   9.233 -0.3150 -1.3439  0.3682
  149SAPE  C21916504   3.431   4.331   9.272  0.5518  0.1961 -0.0427
  149SAPE  H19R16505   3.516   4.402   9.267  0.5742  0.1705 -0.0149
  149SAPE  H19S16506   3.363   4.378   9.346 -0.8786 -0.2009 -1.0623
  149SAPE  C22016507   3.358   4.326   9.137 -0.0711  0.4361  0.4681
  149SAPE  H20R16508   3.432   4.321   9.054  1.5708  4.3809  1.4771
  149SAPE  H20S16509   3.298   4.419   9.126 -1.5666 -0.4051  1.1757
  149SAPE  H20T16510   3.285   4.242   9.134 -0.1908  0.5461  0.2520
  149SAPE   C3316511   2.842   3.494  10.076 -0.6729  0.1612 -0.1363
  149SAPE   H3X16512   2.776   3.583  10.085 -1.4499 -0.4629  0.6320
  149SAPE   H3Y16513   2.777   3.404  10.079  2.1613 -2.0910  3.8257
  149SAPE   C3416514   2.932   3.490   9.949 -0.3300  0.0185 -0.5390
  149SAPE   H4X16515   2.989   3.395   9.959 -3.2949 -1.6873  1.3917
  149SAPE   H4Y16516   2.996   3.581   9.956 -0.6744  0.1160  2.5187
  149SAPE   C3516517   2.850   3.485   9.823 -0.5324  0.0883  0.2169
  149SAPE   H5X16518   2.796   3.581   9.811  0.4847  0.5629 -0.7420
  149SAPE   H5Y16519   2.789   3.393   9.812 -0.0048 -0.4742  1.7219
  149SAPE   C3616520   2.940   3.491   9.696 -0.4290  0.0742  0.0442
  149SAPE   H6X16521   2.998   3.397   9.682 -0.1088  0.4493 -1.3357
  149SAPE   H6Y16522   3.017   3.571   9.707  0.6467 -1.1072  1.5001
  149SAPE   C3716523   2.858   3.510   9.572  0.5100  0.2673 -0.0892
  149SAPE   H7X16524   2.795   3.601   9.583 -0.5832 -0.3330 -1.0990
  149SAPE   H7Y16525   2.787   3.424   9.563  1.2725 -0.1994 -2.6558
  149SAPE   C3816526   2.947   3.500   9.448 -0.5594 -0.2366 -0.1406
  149SAPE   H8X16527   3.012   3.411   9.464 -1.3311 -0.5467  1.4296
  149SAPE   H8Y16528   3.010   3.591   9.452 -0.6669 -0.1998  1.3256
  149SAPE   C3916529   2.871   3.495   9.309  0.5919  0.0234 -0.2053
  149SAPE   H9X16530   2.793   3.574   9.303 -0.6342 -0.9931  1.4344
  149SAPE   H9Y16531   2.820   3.397   9.305  1.8852 -0.7077  0.4388
  149SAPE  C31016532   2.961   3.484   9.181  0.5783  0.2249  0.3169
  149SAPE  H10X16533   3.026   3.397   9.200 -0.7554 -1.3195 -1.7376
  149SAPE  H10Y16534   3.018   3.579   9.178 -1.2790  1.5222  2.3704
  149SAPE  C31116535   2.872   3.452   9.053 -0.2161 -0.1871  0.0495
  149SAPE  H11X16536   2.806   3.538   9.031 -0.9142 -0.5253  0.7708
  149SAPE  H11Y16537   2.807   3.363   9.070  2.0380 -2.7097 -3.1309
  149SAPE  C31216538   2.960   3.401   8.931  0.2611  0.3763  0.1727
  149SAPE  H12X16539   3.053   3.352   8.969  1.0691 -0.3056 -2.4628
  149SAPE  H12Y16540   3.002   3.477   8.861 -0.7277 -0.8089 -1.8032
  149SAPE  C31316541   2.878   3.290   8.840  0.1901  0.2044 -0.2616
  149SAPE  H13X16542   2.876   3.200   8.905  1.3774  1.4449  1.5817
  149SAPE  H13Y16543   2.951   3.277   8.757  0.3660  1.4331 -0.3190
  149SAPE  C31416544   2.740   3.330   8.808  0.4866  0.1071 -0.1604
  149SAPE  H14X16545   2.741   3.428   8.756  1.1522  1.1186  1.6469
  149SAPE  H14Y16546   2.686   3.339   8.905 -1.4701  2.1471 -1.3455
  149SAPE  C31516547   2.655   3.231   8.720 -0.5781  0.0374 -0.8590
  149SAPE  H15X16548   2.557   3.274   8.691 -0.6099  0.3032 -0.3613
  149SAPE  H15Y16549   2.652   3.130   8.766 -2.1072 -0.2313 -1.4786
  149SAPE  C31616550   2.721   3.214   8.580 -0.3170 -0.1813 -0.4222
  149SAPE  H16X16551   2.804   3.141   8.583  1.8553  2.1750  1.0648
  149SAPE  H16Y16552   2.784   3.303   8.557  0.1006 -0.7720 -1.6388
  149SAPE  C31716553   2.619   3.183   8.471 -0.2201 -0.3429  0.0975
  149SAPE  H17X16554   2.550   3.108   8.515 -0.4801 -1.5973 -2.2983
  149SAPE  H17Y16555   2.676   3.129   8.392  1.9351 -0.5509  1.6883
  149SAPE  C31816556   2.546   3.307   8.418 -0.2891  0.1806 -0.3079
  149SAPE  H18X16557   2.466   3.278   8.346  0.2017  0.1592 -0.8523
  149SAPE  H18Y16558   2.620   3.373   8.370  1.1802 -2.0365 -1.2482
  149SAPE  H18Z16559   2.504   3.364   8.504 -0.0651  0.0126 -0.0856
  150SAPE     N16560   5.875   2.148  10.784  0.0159  1.0405 -0.0031
  150SAPE   HN116561   5.847   2.055  10.821  0.4458  0.8548 -0.1330
  150SAPE   HN216562   5.804   2.176  10.714 -0.1758  0.2144 -0.1469
  150SAPE   HN316563   5.966   2.150  10.734 -1.2773  1.1548 -2.4998
  150SAPE   C1216564   5.877   2.246  10.899  0.2638  0.2551 -0.4318
  150SAPE  H12A16565   5.920   2.188  10.983  0.2208 -1.0512 -1.2701
  150SAPE  H12B16566   5.767   2.258  10.913  0.2224  0.2200 -0.7144
  150SAPE   C1116567   5.939   2.383  10.871 -1.3142 -0.2120 -0.3564
  150SAPE  H11A16568   5.930   2.459  10.951 -0.0887  1.2420 -1.5132
  150SAPE  H11B16569   5.892   2.446  10.792 -0.8144  2.6739  1.5201
  150SAPE     P16570   6.174   2.476  10.803 -0.0845 -0.1629  0.4870
  150SAPE   O1316571   6.179   2.576  10.911 -0.2499  0.5673 -0.1371
  150SAPE   O1416572   6.298   2.407  10.754  0.2565 -0.1915 -0.3071
  150SAPE   O1216573   6.080   2.361  10.841  0.2983 -0.0776  0.4967
  150SAPE   O1116574   6.092   2.540  10.682 -0.6327  1.1039 -0.4467
  150SAPE    C116575   6.072   2.460  10.564  0.8204  0.5356  0.6474
  150SAPE    HA16576   6.158   2.448  10.496 -0.7231  0.3378 -1.3558
  150SAPE    HB16577   6.028   2.360  10.588  0.2035  0.0624 -2.0896
  150SAPE    C216578   5.965   2.524  10.470 -0.0549 -0.1757 -0.2902
  150SAPE    HS16579   6.006   2.627  10.459 -0.3133  0.0035  0.3895
  150SAPE   O2116580   5.831   2.527  10.528  0.2508 -0.5064 -0.3941
  150SAPE   C2116581   5.759   2.630  10.484 -0.2363  0.5414 -0.6797
  150SAPE   O2216582   5.802   2.724  10.425 -0.0877 -0.4821  0.0664
  150SAPE   C2216583   5.618   2.612  10.534 -0.0341 -0.1102 -0.0536
  150SAPE   H2R16584   5.584   2.513  10.497 -0.2024  0.0094 -0.2176
  150SAPE   H2S16585   5.635   2.613  10.644  2.4939  0.9831 -0.3740
  150SAPE    C316586   5.959   2.456  10.337  0.1462 -0.0240 -0.2343
  150SAPE    HX16587   5.910   2.358  10.358  0.1858 -0.2016 -0.9292
  150SAPE    HY16588   6.061   2.425  10.306  1.1092  1.1973  1.5346
  150SAPE   O3116589   5.878   2.527  10.238 -0.0586  0.1369  0.5020
  150SAPE   C3116590   5.948   2.559  10.134  0.0982 -0.1580 -0.3857
  150SAPE   O3216591   6.071   2.553  10.126  0.1177 -0.2311  0.5698
  150SAPE   C3216592   5.862   2.621  10.023  0.1915 -1.0369  0.4136
  150SAPE   H2X16593   5.774   2.675  10.064  1.2362  0.4831  0.7381
  150SAPE   H2Y16594   5.813   2.542   9.963 -0.5732 -1.0836  1.0822
  150SAPE   C2316595   5.511   2.727  10.505  0.4435  0.1945 -0.3297
  150SAPE   H3R16596   5.567   2.822  10.522 -0.0086  0.5499 -0.7991
  150SAPE   H3S16597   5.437   2.713  10.587 -2.0611  0.1014 -2.4900
  150SAPE   C2416598   5.451   2.721  10.367 -0.5650  0.3726  0.1016
  150SAPE   H4R16599   5.538   2.740  10.300 -1.3336 -0.3589 -1.1612
  150SAPE   H4S16600   5.383   2.806  10.346 -2.7732 -1.0208  1.2690
  150SAPE   C2516601   5.385   2.597  10.342 -0.6083  0.3593 -0.2710
  150SAPE   H5R16602   5.316   2.565  10.421  2.0621 -1.8849  1.3712
  150SAPE   C2616603   5.402   2.512  10.239 -0.3613  0.0653 -0.0148
  150SAPE   H6R16604   5.342   2.420  10.243  0.4099 -0.4361  0.2024
  150SAPE   C2716605   5.481   2.533  10.110 -0.2607  0.0237 -0.4057
  150SAPE   H7R16606   5.530   2.439  10.074  1.7518  1.4329 -1.5314
  150SAPE   H7S16607   5.574   2.590  10.132 -1.7384  1.4494  2.7252
  150SAPE   C2816608   5.390   2.586  10.001 -0.2777  0.3204 -0.2285
  150SAPE   H8R16609   5.320   2.662  10.038 -0.1098 -0.5820  2.0655
  150SAPE   C2916610   5.381   2.549   9.871  0.4250 -0.3036  0.0567
  150SAPE   H9R16611   5.304   2.608   9.820  1.1484  0.0419 -0.6505
  150SAPE  C21016612   5.464   2.452   9.795  0.3902 -0.3143  0.1066
  150SAPE  H10R16613   5.397   2.365   9.779 -1.2458  0.8220  0.5776
  150SAPE  H10S16614   5.552   2.416   9.853  1.2741 -0.7680 -1.4411
  150SAPE  C21116615   5.520   2.507   9.667  0.6471  0.4787 -0.3729
  150SAPE  H11R16616   5.598   2.580   9.694  1.8537 -0.1706 -1.9298
  150SAPE  C21216617   5.488   2.479   9.541  0.1443  0.2952 -0.1374
  150SAPE  H12R16618   5.544   2.539   9.467  1.6254 -0.0613  0.6554
  150SAPE  C21316619   5.391   2.375   9.490  1.0010 -0.2550  0.0323
  150SAPE  H13R16620   5.330   2.341   9.577 -0.2515  0.4821 -0.5381
  150SAPE  H13S16621   5.447   2.284   9.459  1.0859 -0.2642  0.2078
  150SAPE  C21416622   5.303   2.423   9.374  0.1071 -0.3621  0.2965
  150SAPE  H14R16623   5.224   2.492   9.407 -1.1011 -2.0715  1.0900
  150SAPE  C21516624   5.335   2.411   9.245  0.0753 -0.5904 -0.2005
  150SAPE  H15R16625   5.265   2.451   9.170  0.1431 -0.0718  0.0066
  150SAPE  C21616626   5.458   2.338   9.178  0.1698  0.3440  0.1746
  150SAPE  H16R16627   5.530   2.299   9.253  2.3246 -0.9266 -2.3759
  150SAPE  H16S16628   5.520   2.406   9.114 -1.1301  1.6949  0.2931
  150SAPE  C21716629   5.414   2.228   9.076  0.0035  0.3041  0.0972
  150SAPE  H17R16630   5.329   2.174   9.122  0.4563  0.6327  1.3691
  150SAPE  H17S16631   5.491   2.148   9.065 -0.2222  0.2135 -0.8398
  150SAPE  C21816632   5.379   2.289   8.936 -0.5734  0.4477 -0.8767
  150SAPE  H18R16633   5.328   2.387   8.947  1.4279  1.2465  3.3063
  150SAPE  H18S16634   5.302   2.221   8.895 -1.9941  2.3242 -1.4856
  150SAPE  C21916635   5.504   2.300   8.846 -0.5384  0.5199 -0.1662
  150SAPE  H19R16636   5.540   2.197   8.823  0.6215  1.2795 -2.0039
  150SAPE  H19S16637   5.591   2.353   8.889 -0.1768  0.7166 -1.1130
  150SAPE  C22016638   5.483   2.367   8.704  0.6952 -0.9634 -0.0276
  150SAPE  H20R16639   5.574   2.395   8.646 -0.4304  1.2119 -0.8688
  150SAPE  H20S16640   5.432   2.462   8.731 -3.8220 -3.6304  1.9988
  150SAPE  H20T16641   5.413   2.313   8.637  1.0807 -1.8099  0.2319
  150SAPE   C3316642   5.943   2.734   9.948  0.3372  0.6749 -0.3444
  150SAPE   H3X16643   6.043   2.690   9.925 -0.6445 -1.2019 -1.2745
  150SAPE   H3Y16644   5.954   2.819  10.019 -3.1806  0.9812  0.0235
  150SAPE   C3416645   5.891   2.770   9.813  0.3989 -0.4564  0.7196
  150SAPE   H4X16646   5.964   2.843   9.771  0.7640 -0.7439  0.8492
  150SAPE   H4Y16647   5.785   2.804   9.817  0.3747 -0.6598  2.1927
  150SAPE   C3516648   5.895   2.653   9.715  0.4485 -0.3083  0.0185
  150SAPE   H5X16649   5.807   2.588   9.734 -0.1839  0.2696 -0.8621
  150SAPE   H5Y16650   5.978   2.585   9.742  2.7693  1.9856 -0.9447
  150SAPE   C3616651   5.895   2.685   9.567 -0.1178 -0.0356 -0.4932
  150SAPE   H6X16652   5.979   2.754   9.546 -2.3351  2.7227 -0.8945
  150SAPE   H6Y16653   5.798   2.734   9.543 -0.0303  0.3882  0.0165
  150SAPE   C3716654   5.909   2.565   9.472 -0.4795  0.4428 -0.2569
  150SAPE   H7X16655   5.821   2.499   9.485 -0.2493  0.2897  0.5200
  150SAPE   H7Y16656   5.995   2.503   9.503 -1.2220  0.8064  2.8777
  150SAPE   C3816657   5.923   2.615   9.325 -0.4212 -0.1881  0.6615
  150SAPE   H8X16658   6.027   2.650   9.307  0.1429 -2.0511  0.0619
  150SAPE   H8Y16659   5.852   2.698   9.307  1.0600  1.1422  0.7972
  150SAPE   C3916660   5.901   2.500   9.232 -0.2981  0.2871 -0.1867
  150SAPE   H9X16661   5.845   2.413   9.271  1.3425 -0.6903  0.0697
  150SAPE   H9Y16662   5.997   2.454   9.202  0.1492  1.8034 -1.1906
  150SAPE  C31016663   5.840   2.542   9.094 -0.9596  0.3292 -0.2976
  150SAPE  H10X16664   5.910   2.614   9.045  0.3166 -1.0855 -0.6109
  150SAPE  H10Y16665   5.744   2.594   9.118 -0.9860 -0.4701  1.5158
  150SAPE  C31116666   5.804   2.443   8.985 -0.6523 -0.2239 -0.7977
  150SAPE  H11X16667   5.748   2.492   8.903 -0.6194  0.6957 -0.2874
  150SAPE  H11Y16668   5.738   2.371   9.039  0.8688 -1.1221 -0.0650
  150SAPE  C31216669   5.927   2.377   8.929 -0.2183  0.0378  0.6953
  150SAPE  H12X16670   5.990   2.331   9.008  1.2528 -0.9624 -0.9818
  150SAPE  H12Y16671   5.985   2.459   8.881  1.5069 -1.4762  0.0917
  150SAPE  C31316672   5.908   2.265   8.827  0.2609 -0.0606 -0.2771
  150SAPE  H13X16673   6.009   2.246   8.783  0.9351 -2.0982  1.9315
  150SAPE  H13Y16674   5.839   2.297   8.747 -1.8318  2.8975  2.4807
  150SAPE  C31416675   5.859   2.137   8.907  0.1375  0.3869 -0.5169
  150SAPE  H14X16676   5.759   2.157   8.952 -0.5299  0.4034 -1.9551
  150SAPE  H14Y16677   5.922   2.110   8.994 -1.0191 -1.4589 -0.1777
  150SAPE  C31516678   5.837   2.010   8.827  0.1595 -0.9294 -0.3116
  150SAPE  H15X16679   5.924   2.005   8.758 -0.3176  0.1921 -1.0233
  150SAPE  H15Y16680   5.745   2.037   8.770 -1.1601 -0.3165  1.9742
  150SAPE  C31616681   5.820   1.872   8.899  0.0191 -0.3936 -0.7594
  150SAPE  H16X16682   5.736   1.862   8.971 -0.3160  0.9212 -0.9407
  150SAPE  H16Y16683   5.914   1.861   8.956  0.5992  0.3521 -1.5543
  150SAPE  C31716684   5.812   1.764   8.794  0.1417  0.0683 -0.6311
  150SAPE  H17X16685   5.907   1.779   8.738  0.7960 -1.2886  0.0458
  150SAPE  H17Y16686   5.729   1.786   8.724  0.7551 -0.9230 -1.7143
  150SAPE  C31816687   5.806   1.627   8.848  0.1094  0.0643 -0.1296
  150SAPE  H18X16688   5.722   1.628   8.920 -2.4104  1.6583 -2.8736
  150SAPE  H18Y16689   5.903   1.604   8.898  0.3118 -2.4123 -1.4734
  150SAPE  H18Z16690   5.794   1.559   8.760  2.3727  0.9076 -1.1804
  151SAPE     N16691   1.828   6.598  10.212  0.6034  0.1140  0.4094
  151SAPE   HN116692   1.881   6.562  10.130 -2.8320 -0.7663 -1.6564
  151SAPE   HN216693   1.759   6.664  10.169  0.2777 -0.7893 -0.4839
  151SAPE   HN316694   1.897   6.644  10.275  0.7460 -0.2219  0.4997
  151SAPE   C1216695   1.756   6.483  10.286 -0.8677  0.4217 -0.3425
  151SAPE  H12A16696   1.745   6.399  10.215  0.8310 -1.2079  1.1825
  151SAPE  H12B16697   1.659   6.515  10.329 -1.0497 -2.2763  1.4880
  151SAPE   C1116698   1.848   6.429  10.403 -0.1564 -0.0429  0.6811
  151SAPE  H11A16699   1.790   6.359  10.467  0.7234 -1.5726 -0.1282
  151SAPE  H11B16700   1.871   6.520  10.463  3.6067  0.7924 -1.6710
  151SAPE     P16701   2.089   6.346  10.439 -0.4890 -0.0198  0.0057
  151SAPE   O1316702   2.109   6.472  10.517  0.2230 -0.1582  0.2500
  151SAPE   O1416703   2.080   6.225  10.514  0.1447  0.0751 -0.4025
  151SAPE   O1216704   1.966   6.368  10.347 -0.9025  0.1142 -0.4550
  151SAPE   O1116705   2.206   6.329  10.337  0.1992  0.0487  0.0257
  151SAPE    C116706   2.224   6.228  10.240 -0.0546 -0.3239  0.2468
  151SAPE    HA16707   2.331   6.223  10.211 -0.2673  0.3963 -0.7183
  151SAPE    HB16708   2.189   6.130  10.279  1.2257 -1.6395 -1.7514
  151SAPE    C216709   2.154   6.271  10.118  0.5083  0.6792 -0.4670
  151SAPE    HS16710   2.046   6.285  10.143  0.2273 -0.3341 -1.0364
  151SAPE   O2116711   2.174   6.166  10.025 -0.3085 -0.2344 -0.3608
  151SAPE   C2116712   2.082   6.147   9.934  0.4385 -0.2245  0.3263
  151SAPE   O2216713   1.978   6.210   9.924 -0.1130 -0.1321  0.2202
  151SAPE   C2216714   2.130   6.040   9.840  0.2024  0.5432 -0.0623
  151SAPE   H2R16715   2.212   6.088   9.783  0.1559  0.3211 -0.3144
  151SAPE   H2S16716   2.170   5.966   9.913 -0.9352 -0.8438 -0.7782
  151SAPE    C316717   2.202   6.409  10.071 -0.5659  0.6951  0.5970
  151SAPE    HX16718   2.312   6.401  10.089 -0.8728 -2.4312  1.8177
  151SAPE    HY16719   2.172   6.495  10.135 -0.6155  0.6369  0.6528
  151SAPE   O3116720   2.168   6.439   9.933  0.4450  0.4867  0.4883
  151SAPE   C3116721   2.041   6.497   9.907 -0.0031  0.0246  0.3415
  151SAPE   O3216722   1.967   6.535   9.996  0.2062 -0.1107 -0.0584
  151SAPE   C3216723   2.021   6.497   9.760 -0.0149 -0.0013 -0.1432
  151SAPE   H2X16724   1.930   6.556   9.736  0.3685  1.1635  1.1325
  151SAPE   H2Y16725   2.024   6.392   9.724 -0.3710  0.3073 -1.1044
  151SAPE   C2316726   2.017   5.989   9.744 -0.3147 -0.5172  0.4280
  151SAPE   H3R16727   1.991   6.071   9.675 -0.3363 -0.3545  0.6293
  151SAPE   H3S16728   1.930   5.969   9.811 -0.3108  0.0471  0.6052
  151SAPE   C2416729   2.046   5.859   9.668  0.4703  0.2295 -0.5763
  151SAPE   H4R16730   1.945   5.816   9.652  0.1721  0.0776  1.4643
  151SAPE   H4S16731   2.092   5.784   9.735 -1.1899  1.9348  2.7965
  151SAPE   C2516732   2.117   5.878   9.543 -0.5529  0.1680  0.7658
  151SAPE   H5R16733   2.224   5.897   9.554 -0.4489  0.0354  0.0310
  151SAPE   C2616734   2.055   5.870   9.416 -0.0707 -0.0132 -0.0348
  151SAPE   H6R16735   2.124   5.883   9.331 -1.1994  0.0709 -0.9708
  151SAPE   C2716736   1.908   5.844   9.383 -0.3499  0.0409 -1.0846
  151SAPE   H7R16737   1.843   5.931   9.404  0.6074  0.8536 -1.4563
  151SAPE   H7S16738   1.878   5.759   9.448 -0.5715 -1.6530 -3.2784
  151SAPE   C2816739   1.878   5.803   9.241  0.4954  0.2260  1.3233
  151SAPE   H8R16740   1.851   5.700   9.213 -0.4869  0.7153  0.3957
  151SAPE   C2916741   1.873   5.889   9.140  0.0971 -0.7213 -0.1102
  151SAPE   H9R16742   1.861   5.862   9.035  3.3814  2.0146 -1.3646
  151SAPE  C21016743   1.892   6.039   9.150  0.3510  1.0625  0.7165
  151SAPE  H10R16744   1.928   6.072   9.251 -0.6485 -3.8610  2.9716
  151SAPE  H10S16745   1.791   6.084   9.144  0.4356  1.1154 -0.5092
  151SAPE  C21116746   1.975   6.089   9.036  0.2674  0.1738  0.1679
  151SAPE  H11R16747   2.082   6.106   9.056 -0.2872  2.0855  1.8884
  151SAPE  C21216748   1.930   6.133   8.916  0.4041 -0.0674  0.1255
  151SAPE  H12R16749   2.002   6.182   8.849 -0.8445 -0.6856 -1.7106
  151SAPE  C21316750   1.791   6.134   8.864 -0.4313  0.2886  0.0340
  151SAPE  H13R16751   1.733   6.052   8.910 -0.3438 -1.9826 -3.5258
  151SAPE  H13S16752   1.792   6.118   8.754  1.8834 -0.9183  0.1727
  151SAPE  C21416753   1.732   6.270   8.877  0.4348  0.1521 -0.1205
  151SAPE  H14R16754   1.800   6.353   8.852 -1.6058  1.5676 -1.1966
  151SAPE  C21516755   1.604   6.309   8.899 -0.2728 -0.8507 -0.3076
  151SAPE  H15R16756   1.585   6.415   8.876  2.9931  0.9648  4.0250
  151SAPE  C21616757   1.487   6.220   8.915 -0.0521 -0.3834  0.9793
  151SAPE  H16R16758   1.501   6.138   8.841 -1.1963 -0.2857  0.6344
  151SAPE  H16S16759   1.395   6.280   8.898  1.4621  1.7157 -0.3081
  151SAPE  C21716760   1.465   6.133   9.043 -0.0614  0.1621  0.0553
  151SAPE  H17R16761   1.563   6.082   9.057 -0.1977  0.5131  2.8046
  151SAPE  H17S16762   1.379   6.070   9.013 -1.2507  2.0432 -0.6975
  151SAPE  C21816763   1.436   6.200   9.178  0.2171 -0.1736 -0.1172
  151SAPE  H18R16764   1.526   6.258   9.210 -0.6821  1.0014  0.3725
  151SAPE  H18S16765   1.423   6.119   9.252  0.9431 -0.5044 -0.3486
  151SAPE  C21916766   1.307   6.280   9.185  0.4425 -0.3007 -0.0376
  151SAPE  H19R16767   1.215   6.217   9.190  0.3604 -0.1658  0.1470
  151SAPE  H19S16768   1.305   6.343   9.093  0.8731  1.7164  1.2701
  151SAPE  C22016769   1.298   6.373   9.305 -1.4316  0.4925 -0.2642
  151SAPE  H20R16770   1.333   6.318   9.395 -0.9936 -1.8915 -1.7879
  151SAPE  H20S16771   1.191   6.398   9.322 -1.5100  2.3000 -2.8252
  151SAPE  H20T16772   1.353   6.468   9.288 -0.4324  0.2744  1.4971
  151SAPE   C3316773   2.134   6.579   9.687 -0.6795 -0.3261 -0.0699
  151SAPE   H3X16774   2.230   6.524   9.700 -1.3179 -1.9870 -1.9280
  151SAPE   H3Y16775   2.148   6.669   9.751  1.2934 -0.5409 -0.1261
  151SAPE   C3416776   2.117   6.603   9.538 -0.1342  0.5405  0.4623
  151SAPE   H4X16777   2.019   6.649   9.517  0.5920  1.2346 -1.6542
  151SAPE   H4Y16778   2.109   6.509   9.478 -1.1193  1.9623 -1.7350
  151SAPE   C3516779   2.217   6.710   9.495 -0.2368 -0.3206 -0.3260
  151SAPE   H5X16780   2.316   6.665   9.474 -0.4763 -2.5872  2.7238
  151SAPE   H5Y16781   2.218   6.781   9.580  0.8328 -2.1375  1.2764
  151SAPE   C3616782   2.175   6.788   9.370 -1.0284 -0.3267 -0.4460
  151SAPE   H6X16783   2.069   6.818   9.368 -1.2140 -0.8881 -3.6687
  151SAPE   H6Y16784   2.204   6.713   9.294 -2.0717 -2.5867  1.2539
  151SAPE   C3716785   2.252   6.919   9.350  0.8053  0.4021  0.4944
  151SAPE   H7X16786   2.360   6.901   9.369  1.1778  1.7370 -0.2350
  151SAPE   H7Y16787   2.220   6.985   9.434 -0.8378  2.2000 -1.4346
  151SAPE   C3816788   2.259   6.970   9.212 -0.3174 -0.4554  0.1609
  151SAPE   H8X16789   2.290   6.895   9.136  0.7238 -0.8337  0.9307
  151SAPE   H8Y16790   2.340   7.046   9.205  0.1261 -0.8252  1.0650
  151SAPE   C3916791   2.141   7.044   9.168 -0.1842 -0.1237  0.1781
  151SAPE   H9X16792   2.111   7.135   9.224  0.6908  0.4537 -0.2587
  151SAPE   H9Y16793   2.071   6.964   9.198 -0.0961 -0.9430 -1.6757
  151SAPE  C31016794   2.132   7.092   9.024  0.7240  0.1197 -0.4140
  151SAPE  H10X16795   2.215   7.155   8.985  0.9290 -0.7653 -1.4785
  151SAPE  H10Y16796   2.045   7.160   9.023  0.5578 -0.0590  0.4717
  151SAPE  C31116797   2.115   6.972   8.928  0.0951  0.5870  0.0339
  151SAPE  H11X16798   2.058   6.891   8.977  1.2483 -1.5886 -1.9809
  151SAPE  H11Y16799   2.215   6.925   8.914  0.8209  1.7659  1.0260
  151SAPE  C31216800   2.032   6.997   8.798  0.2625  0.2639  0.3647
  151SAPE  H12X16801   2.083   7.082   8.747 -2.7353  1.8232 -0.3139
  151SAPE  H12Y16802   1.928   7.035   8.816  0.6026  1.1023  0.6106
  151SAPE  C31316803   2.021   6.874   8.706  0.0822  0.3780  0.0198
  151SAPE  H13X16804   1.983   6.786   8.763  0.4921 -1.9187 -3.0155
  151SAPE  H13Y16805   2.118   6.849   8.659  0.6816 -0.3531  1.5970
  151SAPE  C31416806   1.921   6.910   8.591  0.4366  0.2716  0.0577
  151SAPE  H14X16807   1.950   7.006   8.542  0.4977  0.7768  1.0603
  151SAPE  H14Y16808   1.819   6.927   8.632  0.0123 -0.6980 -0.5702
  151SAPE  C31516809   1.900   6.792   8.496 -0.3064 -0.2716 -0.0651
  151SAPE  H15X16810   1.847   6.721   8.562 -0.4534  0.5050  0.6805
  151SAPE  H15Y16811   2.004   6.762   8.472  0.1785  1.7263 -0.6815
  151SAPE  C31616812   1.806   6.811   8.372 -0.6909 -0.3382 -0.5353
  151SAPE  H16X16813   1.835   6.905   8.322  0.3494 -0.1484  0.3711
  151SAPE  H16Y16814   1.706   6.831   8.415  0.0840  0.6853  0.8765
  151SAPE  C31716815   1.807   6.686   8.281 -0.0607  0.1246 -0.6081
  151SAPE  H17X16816   1.805   6.598   8.348  0.4517  0.8748  0.4292
  151SAPE  H17Y16817   1.903   6.688   8.226  0.4250 -1.1065  0.1527
  151SAPE  C31816818   1.689   6.667   8.188 -0.4867  0.0741  0.7593
  151SAPE  H18X16819   1.592   6.655   8.242 -1.4474 -0.1145 -0.9396
  151SAPE  H18Y16820   1.697   6.580   8.119 -1.9267  1.0750 -0.7552
  151SAPE  H18Z16821   1.692   6.760   8.129  1.1957  0.2095  1.0055
  152SAPE     N16822   3.538   0.546  10.400  0.8738  0.6274  0.2426
  152SAPE   HN116823   3.468   0.545  10.323 -0.7102  0.8528  1.6025
  152SAPE   HN216824   3.493   0.591  10.482 -0.7633  0.8711 -0.7513
  152SAPE   HN316825   3.624   0.604  10.394  1.4300  0.1854  2.5974
  152SAPE   C1216826   3.559   0.401  10.447 -0.1550 -0.0746  0.1840
  152SAPE  H12A16827   3.656   0.399  10.501 -1.0956 -1.4381  1.9560
  152SAPE  H12B16828   3.563   0.338  10.356 -0.0165  1.3139 -0.7987
  152SAPE   C1116829   3.450   0.358  10.549  0.6818  0.1250 -0.0102
  152SAPE  H11A16830   3.439   0.430  10.633  1.3371 -1.2361  1.2991
  152SAPE  H11B16831   3.478   0.268  10.609  2.9310  1.4640  1.0935
  152SAPE     P16832   3.201   0.311  10.565  0.0009  0.3464  0.0422
  152SAPE   O1316833   3.240   0.247  10.691  0.5003  0.3581 -0.3381
  152SAPE   O1416834   3.129   0.440  10.579 -0.4217  0.2194 -0.3115
  152SAPE   O1216835   3.330   0.325  10.477  0.6559  0.4001  0.0436
  152SAPE   O1116836   3.102   0.215  10.499 -0.0018  0.4000  0.1426
  152SAPE    C116837   3.152   0.121  10.399  0.9287 -0.1921 -0.6064
  152SAPE    HA16838   3.252   0.078  10.421  1.5486  1.6293  0.3488
  152SAPE    HB16839   3.079   0.038  10.401  0.0181  0.5495 -1.6815
  152SAPE    C216840   3.142   0.179  10.256  0.1024  0.1708 -0.0968
  152SAPE    HS16841   3.211   0.265  10.265  2.2301 -1.6055  1.6339
  152SAPE   O2116842   3.001   0.213  10.220  0.2654 -0.2699  0.0237
  152SAPE   C2116843   2.993   0.335  10.158  0.2061 -0.0750 -0.7242
  152SAPE   O2216844   3.080   0.414  10.146  0.2589 -0.3588  0.0024
  152SAPE   C2216845   2.858   0.342  10.082 -0.4548  0.0292 -1.0352
  152SAPE   H2R16846   2.778   0.315  10.155  0.6786  0.2339  0.3342
  152SAPE   H2S16847   2.829   0.447  10.061  1.0519  1.0250  1.4317
  152SAPE    C316848   3.204   0.084  10.152  0.2302  0.5498  0.3716
  152SAPE    HX16849   3.131   0.000  10.151  1.8785 -0.9446 -0.7635
  152SAPE    HY16850   3.299   0.039  10.188  0.7604  0.3929 -1.1529
  152SAPE   O3116851   3.231   0.167  10.036  0.2002 -0.1969 -0.1631
  152SAPE   C3116852   3.349   0.229  10.022 -0.2326  0.1650 -0.2414
  152SAPE   O3216853   3.440   0.222  10.105 -0.7327 -0.1542 -0.1953
  152SAPE   C3216854   3.350   0.325   9.903  0.4546 -0.1536  0.3293
  152SAPE   H2X16855   3.266   0.396   9.920 -1.6373 -2.1363 -1.2134
  152SAPE   H2Y16856   3.309   0.266   9.818 -0.9737 -0.8342  1.4451
  152SAPE   C2316857   2.825   0.258   9.957  0.1515  0.3839 -0.1189
  152SAPE   H3R16858   2.721   0.271   9.921 -0.2688  0.5831  1.1103
  152SAPE   H3S16859   2.825   0.153   9.992 -1.8360  1.0276  2.1176
  152SAPE   C2416860   2.936   0.276   9.847  0.4336  0.3696 -1.1773
  152SAPE   H4R16861   2.919   0.194   9.773  4.0201 -2.7587  1.0754
  152SAPE   H4S16862   3.031   0.253   9.899 -0.1825  0.8507  0.2023
  152SAPE   C2516863   2.943   0.421   9.788  0.0208  0.3625  0.5851
  152SAPE   H5R16864   2.949   0.510   9.852 -1.6245  2.4637 -1.9561
  152SAPE   C2616865   2.937   0.451   9.656  0.5523  1.4179  0.0926
  152SAPE   H6R16866   2.945   0.555   9.623 -0.0059  1.0332 -1.3099
  152SAPE   C2716867   2.929   0.354   9.539  0.3191 -0.2950 -0.1975
  152SAPE   H7R16868   2.886   0.412   9.455 -2.3469 -0.0238  1.2394
  152SAPE   H7S16869   2.856   0.273   9.560 -2.3938  1.5987 -1.6283
  152SAPE   C2816870   3.064   0.293   9.512 -0.3796 -0.6754  1.3576
  152SAPE   H8R16871   3.137   0.307   9.593  1.1412 -0.7603  0.0545
  152SAPE   C2916872   3.099   0.232   9.395  0.2934 -0.8148  0.0368
  152SAPE   H9R16873   3.206   0.211   9.381  1.1515  0.2516  3.7318
  152SAPE  C21016874   3.018   0.213   9.263  0.5251 -0.3489 -0.5871
  152SAPE  H10R16875   3.010   0.310   9.209  1.0957  0.4123  0.6661
  152SAPE  H10S16876   2.918   0.175   9.293 -0.3904  2.1040 -0.3457
  152SAPE  C21116877   3.071   0.106   9.175 -0.1921  0.2609  0.0157
  152SAPE  H11R16878   3.127   0.028   9.228  0.4174 -1.1077 -2.5250
  152SAPE  C21216879   3.045   0.092   9.040 -0.0435 -0.2351 -0.1414
  152SAPE  H12R16880   3.096   0.004   8.999  0.5932 -0.1293  0.4053
  152SAPE  C21316881   2.950   0.182   8.961 -0.2896  0.2528  0.2090
  152SAPE  H13R16882   2.893   0.255   9.023  2.3953 -0.4560  3.8672
  152SAPE  H13S16883   2.864   0.119   8.930  0.4435 -1.3492  1.2657
  152SAPE  C21416884   3.016   0.248   8.835 -0.3002 -0.6664  0.0541
  152SAPE  H14R16885   3.108   0.307   8.849 -0.6585  0.5298 -2.1603
  152SAPE  C21516886   2.995   0.222   8.700  0.1327 -0.7618 -0.3476
  152SAPE  H15R16887   3.054   0.264   8.618  1.0373 -0.1413  0.5921
  152SAPE  C21616888   2.899   0.115   8.643 -0.0275 -0.6674 -0.4638
  152SAPE  H16R16889   2.805   0.112   8.701  0.7327  1.6329  1.0217
  152SAPE  H16S16890   2.954   0.019   8.647  2.2081  0.5934  0.7625
  152SAPE  C21716891   2.872   0.156   8.498  0.1714  0.1186  0.0956
  152SAPE  H17R16892   2.971   0.149   8.447  0.6875 -0.0437  1.0861
  152SAPE  H17S16893   2.820   0.252   8.479 -0.9349 -0.4341  0.2238
  152SAPE  C21816894   2.779   0.042   8.447  0.4231  0.0991 -0.7329
  152SAPE  H18R16895   2.691   0.062   8.511  1.6696 -2.0994  1.8954
  152SAPE  H18S16896   2.806  -0.058   8.487 -0.3489  0.5805  1.0644
  152SAPE  C21916897   2.748   0.047   8.297 -0.0476 -0.3737  0.4060
  152SAPE  H19R16898   2.740   0.154   8.269 -1.2540 -1.2692 -3.3083
  152SAPE  H19S16899   2.654  -0.002   8.265 -0.1162 -0.3926  0.6341
  152SAPE  C22016900   2.857  -0.015   8.207 -0.3061 -0.4216 -0.3513
  152SAPE  H20R16901   2.873  -0.124   8.195  0.7083 -0.0683 -2.9746
  152SAPE  H20S16902   2.957   0.025   8.235 -0.0503  0.1542 -1.9665
  152SAPE  H20T16903   2.835   0.027   8.106  1.0049  1.4785  0.0873
  152SAPE   C3316904   3.494   0.370   9.878  0.1312  0.0109 -0.0861
  152SAPE   H3X16905   3.557   0.280   9.869 -1.3726 -1.2609  1.4191
  152SAPE   H3Y16906   3.533   0.439   9.956  0.6678 -0.1054 -0.2484
  152SAPE   C3416907   3.502   0.444   9.745 -0.3337  0.5132  0.4530
  152SAPE   H4X16908   3.598   0.496   9.728  0.4147 -1.4357 -1.7903
  152SAPE   H4Y16909   3.433   0.530   9.735  0.0007  0.7848  0.4829
  152SAPE   C3516910   3.494   0.359   9.614  0.4706 -0.0213  0.1447
  152SAPE   H5X16911   3.397   0.309   9.635  0.8214 -1.8687 -2.2590
  152SAPE   H5Y16912   3.575   0.283   9.609  1.6696  1.0735  1.9076
  152SAPE   C3616913   3.484   0.431   9.475 -0.8400 -0.6708 -0.2623
  152SAPE   H6X16914   3.570   0.500   9.460 -2.6722  1.6472 -0.8231
  152SAPE   H6Y16915   3.396   0.499   9.479  0.7993  1.5904 -0.7373
  152SAPE   C3716916   3.457   0.331   9.355  0.0601  0.0201  0.4534
  152SAPE   H7X16917   3.414   0.393   9.273 -2.3080 -0.7601  1.0236
  152SAPE   H7Y16918   3.386   0.247   9.372 -0.4757  0.1639 -0.9726
  152SAPE   C3816919   3.586   0.268   9.310  0.4830  0.1026  0.6959
  152SAPE   H8X16920   3.635   0.214   9.394  1.3590  0.0139  0.1445
  152SAPE   H8Y16921   3.656   0.351   9.284  0.6908 -0.3189 -0.1324
  152SAPE   C3916922   3.570   0.172   9.193  0.2841 -0.7529 -0.9269
  152SAPE   H9X16923   3.502   0.092   9.229 -0.9411  1.2025  1.3571
  152SAPE   H9Y16924   3.676   0.143   9.174  0.1141 -0.4908 -2.3655
  152SAPE  C31016925   3.504   0.232   9.069  0.3102  0.2245  0.3566
  152SAPE  H10X16926   3.573   0.315   9.045 -0.5045  0.5860 -0.8539
  152SAPE  H10Y16927   3.399   0.265   9.089 -0.1221 -1.4222  1.0013
  152SAPE  C31116928   3.517   0.131   8.952 -0.5047 -0.3633 -0.5016
  152SAPE  H11X16929   3.490   0.028   8.985  5.1140 -2.7691 -2.2417
  152SAPE  H11Y16930   3.622   0.124   8.917 -0.3081 -0.9770  0.1860
  152SAPE  C31216931   3.421   0.170   8.834 -0.8638  0.2947  0.0053
  152SAPE  H12X16932   3.312   0.171   8.853 -1.4589  0.5871 -2.9852
  152SAPE  H12Y16933   3.431   0.088   8.760  0.8086  0.0196  0.4854
  152SAPE  C31316934   3.448   0.307   8.766  0.1861 -0.7587  0.0130
  152SAPE  H13X16935   3.556   0.329   8.753 -0.3200  0.5827 -2.9669
  152SAPE  H13Y16936   3.400   0.386   8.828 -0.5549 -0.5822 -0.7625
  152SAPE  C31416937   3.394   0.304   8.625 -0.1508  0.7707  0.2222
  152SAPE  H14X16938   3.385   0.404   8.577  1.2907  0.9025  0.1784
  152SAPE  H14Y16939   3.288   0.271   8.632 -0.0512  0.4529  0.2556
  152SAPE  C31516940   3.474   0.217   8.528 -0.3636  0.5182  0.1462
  152SAPE  H15X16941   3.508   0.124   8.579  1.3338  1.7801  1.3968
  152SAPE  H15Y16942   3.563   0.282   8.516  0.3553  0.2592  3.2959
  152SAPE  C31616943   3.396   0.198   8.402 -0.9633 -0.5062  0.3529
  152SAPE  H16X16944   3.468   0.142   8.338 -1.5742  0.5276 -1.2987
  152SAPE  H16Y16945   3.381   0.289   8.340  3.5888 -1.5456 -2.7972
  152SAPE  C31716946   3.269   0.114   8.405 -0.1019  0.5807  1.0358
  152SAPE  H17X16947   3.190   0.190   8.384  0.4126  1.3099  1.6915
  152SAPE  H17Y16948   3.261   0.085   8.512 -0.4327  0.1619  0.8996
  152SAPE  C31816949   3.270  -0.008   8.308  0.3546  0.1699  0.8381
  152SAPE  H18X16950   3.162  -0.033   8.294  0.2798  1.2289 -0.7660
  152SAPE  H18Y16951   3.327  -0.095   8.348 -0.0169 -0.2403  0.4923
  152SAPE  H18Z16952   3.319   0.014   8.211  0.6243 -1.5292  0.5541
  153SAPE     N16953   3.940   1.803  10.663 -1.0349  0.0212  0.2671
  153SAPE   HN116954   4.032   1.852  10.657 -2.1471  2.3934  1.3618
  153SAPE   HN216955   3.861   1.869  10.650 -0.9326  0.2127  0.5907
  153SAPE   HN316956   3.939   1.770  10.762  1.3011 -1.1090 -0.0207
  153SAPE   C1216957   3.924   1.689  10.564 -0.1243 -0.1706  0.0557
  153SAPE  H12A16958   3.914   1.725  10.460  0.1043 -1.0139 -0.2656
  153SAPE  H12B16959   3.840   1.627  10.601 -2.1056  0.2854 -3.2954
  153SAPE   C1116960   4.039   1.585  10.562  0.1682  0.8288  0.3136
  153SAPE  H11A16961   4.019   1.514  10.478  1.3310  0.0933  0.6336
  153SAPE  H11B16962   4.047   1.532  10.659  0.4216 -1.7247 -1.0078
  153SAPE     P16963   4.272   1.717  10.594 -0.3012  0.2563 -0.0274
  153SAPE   O1316964   4.209   1.811  10.684  0.3624 -0.5727  0.2897
  153SAPE   O1416965   4.354   1.615  10.657 -0.2910 -0.7290  0.3427
  153SAPE   O1216966   4.159   1.647  10.520 -0.7062  0.2012 -0.0541
  153SAPE   O1116967   4.338   1.785  10.468  0.0181  0.1090  0.3536
  153SAPE    C116968   4.448   1.727  10.394  0.3625  0.1163 -0.5141
  153SAPE    HA16969   4.541   1.773  10.434  0.2254 -2.2121  2.9323
  153SAPE    HB16970   4.457   1.618  10.411 -1.7612  0.0185  0.2156
  153SAPE    C216971   4.430   1.745  10.241  0.6392  0.3165  0.1370
  153SAPE    HS16972   4.420   1.853  10.217 -2.2839 -0.0978 -1.0421
  153SAPE   O2116973   4.323   1.668  10.193 -0.4179  0.0423 -0.2859
  153SAPE   C2116974   4.204   1.722  10.200 -0.1495  0.3519  0.2473
  153SAPE   O2216975   4.188   1.838  10.227  0.3526 -0.0468  0.4270
  153SAPE   C2216976   4.096   1.612  10.202  0.0488  0.2118 -0.1027
  153SAPE   H2R16977   4.112   1.554  10.108  1.2111 -0.0377  0.2228
  153SAPE   H2S16978   4.128   1.546  10.286  0.2794 -1.1708 -1.2240
  153SAPE    C316979   4.553   1.704  10.161  0.6658 -0.2678 -0.1792
  153SAPE    HX16980   4.591   1.602  10.186  0.7829 -0.8459 -2.4927
  153SAPE    HY16981   4.624   1.782  10.197 -0.4710  0.7023  0.0234
  153SAPE   O3116982   4.534   1.717  10.015 -0.0258 -0.5475 -0.2677
  153SAPE   C3116983   4.648   1.737   9.942 -0.8837 -0.1286  0.5767
  153SAPE   O3216984   4.761   1.750   9.983 -0.3589  0.3722 -0.2135
  153SAPE   C3216985   4.613   1.751   9.797 -0.5250  0.2080  0.7812
  153SAPE   H2X16986   4.623   1.859   9.775 -0.1937  0.1850  0.8104
  153SAPE   H2Y16987   4.510   1.717   9.772 -0.1628 -0.4029  0.1037
  153SAPE   C2316988   3.949   1.665  10.190  0.6999 -0.1655  0.4967
  153SAPE   H3R16989   3.931   1.751  10.258 -2.2203 -0.4846  0.2243
  153SAPE   H3S16990   3.873   1.589  10.219 -1.6381  1.2100 -1.6233
  153SAPE   C2416991   3.908   1.695  10.041 -0.1092  0.1050 -0.8807
  153SAPE   H4R16992   3.984   1.769  10.006  0.7928 -0.2581  0.2559
  153SAPE   H4S16993   3.807   1.741  10.045 -0.2886 -0.3448 -0.2103
  153SAPE   C2516994   3.900   1.574   9.944  0.3105 -0.0626 -1.0901
  153SAPE   H5R16995   3.808   1.517   9.963 -0.2450  2.0137  3.7469
  153SAPE   C2616996   3.991   1.535   9.854  0.3466 -0.3700 -0.0073
  153SAPE   H6R16997   3.983   1.434   9.812  0.7743 -0.4446  0.0865
  153SAPE   C2716998   4.118   1.611   9.836  0.2805  0.1888  0.4051
  153SAPE   H7R16999   4.185   1.531   9.799  0.5730  0.9931 -0.8858
  153SAPE   H7S17000   4.167   1.650   9.929 -1.4577  0.9935  1.0296
  153SAPE   C2817001   4.112   1.726   9.741  0.1042  0.2174 -0.3766
  153SAPE   H8R17002   4.055   1.809   9.787 -0.6628 -1.0777  1.1344
  153SAPE   C2917003   4.173   1.732   9.621  0.1537  0.0263 -0.5749
  153SAPE   H9R17004   4.153   1.818   9.556 -1.5982  0.5433  0.5674
  153SAPE  C21017005   4.260   1.629   9.555 -0.0374  0.1751  0.3550
  153SAPE  H10R17006   4.223   1.527   9.578 -0.4519  0.3276  0.3685
  153SAPE  H10S17007   4.365   1.631   9.590 -0.3081  0.7829  1.1516
  153SAPE  C21117008   4.269   1.654   9.404 -0.7242 -0.4488 -0.3035
  153SAPE  H11R17009   4.330   1.743   9.381  0.8347 -2.1473 -3.3736
  153SAPE  C21217010   4.226   1.577   9.304 -0.8835 -0.4470 -0.1796
  153SAPE  H12R17011   4.246   1.621   9.205 -0.6438  2.9443  1.2408
  153SAPE  C21317012   4.157   1.443   9.311  0.2335  0.4691 -0.5216
  153SAPE  H13R17013   4.209   1.378   9.385  1.3649  2.8538  0.8956
  153SAPE  H13S17014   4.168   1.401   9.208 -2.9943  1.4195 -1.3636
  153SAPE  C21417015   4.010   1.446   9.354  0.5863  0.0025 -0.0300
  153SAPE  H14R17016   3.987   1.517   9.435 -1.4227 -0.6972  0.0836
  153SAPE  C21517017   3.907   1.383   9.290 -0.7556  0.9832 -0.7264
  153SAPE  H15R17018   3.806   1.397   9.332 -0.9591  1.0247 -1.2250
  153SAPE  C21617019   3.924   1.292   9.177  0.3787 -0.1414 -0.1477
  153SAPE  H16R17020   3.871   1.200   9.209  0.9009 -0.7580 -1.0053
  153SAPE  H16S17021   4.025   1.250   9.159  0.3948 -0.7780  1.3465
  153SAPE  C21717022   3.885   1.375   9.053 -0.1045  0.3891  0.0326
  153SAPE  H17R17023   3.951   1.463   9.036  1.0514 -0.5870 -0.7140
  153SAPE  H17S17024   3.779   1.408   9.060 -0.5909 -0.1891 -3.2281
  153SAPE  C21817025   3.887   1.299   8.917  0.8470 -0.1287 -0.8882
  153SAPE  H18R17026   3.832   1.205   8.938  0.0950  0.8439  1.9476
  153SAPE  H18S17027   3.991   1.268   8.894  2.2027  1.8549  2.0215
  153SAPE  C21917028   3.820   1.378   8.808  0.4199 -0.1917 -0.1842
  153SAPE  H19R17029   3.831   1.487   8.819 -1.0389 -0.1244  0.9660
  153SAPE  H19S17030   3.711   1.357   8.812 -0.4156  3.5453 -0.3068
  153SAPE  C22017031   3.868   1.325   8.675  0.1843 -0.8350  0.5449
  153SAPE  H20R17032   3.827   1.223   8.657 -1.1813 -0.2337  0.0797
  153SAPE  H20S17033   3.978   1.335   8.663 -0.1808  0.5317 -2.8532
  153SAPE  H20T17034   3.823   1.382   8.590 -2.6956 -0.6926  2.0418
  153SAPE   C3317035   4.709   1.682   9.694 -0.0278 -0.0554  0.1767
  153SAPE   H3X17036   4.716   1.572   9.708 -1.3852  0.0402  1.8868
  153SAPE   H3Y17037   4.809   1.726   9.717  0.5525 -2.2842  2.3781
  153SAPE   C3417038   4.676   1.724   9.554  0.1955 -0.5023  0.0955
  153SAPE   H4X17039   4.628   1.822   9.536  0.6012 -0.8102 -3.2128
  153SAPE   H4Y17040   4.594   1.662   9.513  0.6459 -0.3506 -1.0737
  153SAPE   C3517041   4.790   1.720   9.451 -0.2407 -0.3239  0.2028
  153SAPE   H5X17042   4.875   1.763   9.510 -0.7325 -2.6049  2.7805
  153SAPE   H5Y17043   4.757   1.785   9.368 -0.7364 -1.0032 -0.1438
  153SAPE   C3617044   4.822   1.585   9.397 -0.1678  0.5834  0.0039
  153SAPE   H6X17045   4.733   1.538   9.351  0.5412  1.0432 -1.9216
  153SAPE   H6Y17046   4.834   1.509   9.477 -2.6203 -0.1288 -0.2292
  153SAPE   C3717047   4.934   1.577   9.292 -0.0429  0.5183  0.0702
  153SAPE   H7X17048   4.951   1.472   9.261 -1.8695  0.3709 -0.5649
  153SAPE   H7Y17049   5.026   1.628   9.328  1.5480  0.0623 -2.9905
  153SAPE   C3817050   4.898   1.646   9.157 -0.2618 -0.3617  0.1386
  153SAPE   H8X17051   4.851   1.746   9.172 -0.0254 -0.5616  2.5942
  153SAPE   H8Y17052   4.816   1.587   9.112 -1.4371  0.3833  1.2254
  153SAPE   C3917053   5.010   1.645   9.050  0.0673  0.5057 -0.5377
  153SAPE   H9X17054   5.089   1.719   9.075 -1.1766  1.7700 -0.1853
  153SAPE   H9Y17055   4.959   1.680   8.958  0.1785  0.8207 -0.4834
  153SAPE  C31017056   5.082   1.513   9.018  0.4530 -0.2164  0.3158
  153SAPE  H10X17057   5.128   1.478   9.112 -0.8173 -1.3698  0.5549
  153SAPE  H10Y17058   5.157   1.539   8.940  0.1039  1.8575  0.6179
  153SAPE  C31117059   4.981   1.403   8.959  0.0449 -0.0119 -0.2639
  153SAPE  H11X17060   4.928   1.452   8.875  0.6236 -0.7645 -1.0920
  153SAPE  H11Y17061   4.917   1.366   9.042 -0.0114 -1.7127 -1.0127
  153SAPE  C31217062   5.058   1.289   8.899 -0.4487  0.2999  0.6248
  153SAPE  H12X17063   5.135   1.255   8.971 -1.2163 -0.3782  1.1389
  153SAPE  H12Y17064   5.114   1.326   8.810 -1.3307  0.8676  0.2937
  153SAPE  C31317065   4.974   1.176   8.858 -0.6015  0.8207  0.3967
  153SAPE  H13X17066   4.921   1.199   8.763 -1.6310  0.9535  0.9883
  153SAPE  H13Y17067   4.901   1.135   8.931 -0.3659  1.5410  1.0373
  153SAPE  C31417068   5.064   1.052   8.827  0.2780 -0.1950 -0.1098
  153SAPE  H14X17069   5.027   0.964   8.883 -0.7622 -0.8316 -1.7549
  153SAPE  H14Y17070   5.169   1.059   8.863 -0.3061  0.1867  1.6455
  153SAPE  C31517071   5.070   1.015   8.682 -0.4122 -0.1303  0.5417
  153SAPE  H15X17072   5.133   1.086   8.623 -0.7884 -0.1529  0.1094
  153SAPE  H15Y17073   4.963   1.021   8.654 -0.5028 -0.0882  0.8890
  153SAPE  C31617074   5.126   0.875   8.651 -0.3796 -0.4142  0.2209
  153SAPE  H16X17075   5.080   0.805   8.724  1.7031  0.6026  2.6316
  153SAPE  H16Y17076   5.235   0.861   8.662 -0.3327 -0.9731 -0.7859
  153SAPE  C31717077   5.099   0.835   8.505  0.4754  0.2390  0.1530
  153SAPE  H17X17078   4.993   0.854   8.477  0.4687 -0.7481 -0.5609
  153SAPE  H17Y17079   5.107   0.724   8.507  1.5174  0.2338  4.1582
  153SAPE  C31817080   5.195   0.894   8.414  0.3772 -0.5086  0.2242
  153SAPE  H18X17081   5.299   0.866   8.441  1.1696 -1.3687 -3.1620
  153SAPE  H18Y17082   5.178   1.004   8.412 -2.0625 -0.8290 -0.7537
  153SAPE  H18Z17083   5.192   0.853   8.311 -0.2908  0.1671 -0.0353
  154SAPE     N17084   4.592   0.889  11.003  0.5658  0.0681 -0.2551
  154SAPE   HN117085   4.621   0.843  11.092  2.8836 -2.0220 -1.9616
  154SAPE   HN217086   4.669   0.948  10.964 -0.7370  1.7183 -0.4499
  154SAPE   HN317087   4.512   0.952  11.025  0.2446 -0.7870  1.2032
  154SAPE   C1217088   4.544   0.790  10.899 -0.6550  0.4385 -0.0106
  154SAPE  H12A17089   4.459   0.737  10.946  0.8692  1.5802  4.6336
  154SAPE  H12B17090   4.631   0.724  10.877 -1.8518 -0.5908 -1.8712
  154SAPE   C1117091   4.497   0.860  10.773 -0.7249  0.6125 -0.1619
  154SAPE  H11A17092   4.507   0.801  10.679  2.6517  0.2231  0.2899
  154SAPE  H11B17093   4.559   0.948  10.747 -1.0937  0.7743 -0.4981
  154SAPE     P17094   4.236   0.853  10.713  0.3742  0.2060 -0.0248
  154SAPE   O1317095   4.248   0.707  10.700 -0.5967 -0.2955  0.2523
  154SAPE   O1417096   4.110   0.905  10.775 -0.1917  0.3819 -0.6917
  154SAPE   O1217097   4.368   0.909  10.793  1.2240  0.2535 -0.2643
  154SAPE   O1117098   4.250   0.900  10.565 -0.5631 -0.1401  0.0129
  154SAPE    C117099   4.278   1.030  10.523 -0.3803 -0.4706  0.1737
  154SAPE    HA17100   4.200   1.108  10.538  2.7222  2.8340  0.5096
  154SAPE    HB17101   4.373   1.070  10.563  0.0828  0.8058 -2.0019
  154SAPE    C217102   4.307   1.031  10.366  0.0001 -0.1435 -0.3430
  154SAPE    HS17103   4.387   1.106  10.346 -1.4451  0.6964 -3.7618
  154SAPE   O2117104   4.189   1.067  10.288 -0.3225 -0.0622 -0.0200
  154SAPE   C2117105   4.165   1.198  10.290  0.0924 -0.7836 -0.7446
  154SAPE   O2217106   4.210   1.281  10.367 -0.0222 -0.0543  1.0221
  154SAPE   C2217107   4.084   1.228  10.160 -0.9944 -0.0238  0.2080
  154SAPE   H2R17108   4.011   1.309  10.182  2.4343  3.3630  0.1845
  154SAPE   H2S17109   4.151   1.273  10.084  0.4049 -4.0250 -1.1842
  154SAPE    C317110   4.361   0.886  10.326 -0.6609 -0.1409  0.4180
  154SAPE    HX17111   4.288   0.802  10.322 -1.0944  0.2703 -2.7986
  154SAPE    HY17112   4.442   0.865  10.400 -0.8246 -1.9797  0.1349
  154SAPE   O3117113   4.417   0.891  10.195  0.8252 -0.2989  0.5971
  154SAPE   C3117114   4.516   0.816  10.166 -0.4127  0.0967  0.6542
  154SAPE   O3217115   4.574   0.736  10.238 -0.7271  0.0583 -0.0586
  154SAPE   C3217116   4.548   0.831  10.019  1.0233 -0.8046  0.3400
  154SAPE   H2X17117   4.650   0.874  10.009  1.6997 -2.5942 -1.0677
  154SAPE   H2Y17118   4.469   0.895   9.976 -0.1188 -0.7199  2.4267
  154SAPE   C2317119   4.037   1.101  10.079 -0.2189 -0.7005  0.7869
  154SAPE   H3R17120   3.964   1.041  10.138 -1.0630 -2.8155 -2.1722
  154SAPE   H3S17121   4.119   1.037  10.040 -0.5134 -0.0386 -1.0631
  154SAPE   C2417122   3.970   1.147   9.948  0.0405  0.0776 -0.2757
  154SAPE   H4R17123   3.962   1.061   9.878  0.8739  0.4658 -0.8648
  154SAPE   H4S17124   4.039   1.222   9.904  0.3879 -0.7108 -1.1105
  154SAPE   C2517125   3.846   1.226   9.962 -0.1657 -0.2363  0.2407
  154SAPE   H5R17126   3.835   1.296  10.046 -1.9935  1.1091 -1.0406
  154SAPE   C2617127   3.747   1.241   9.862 -0.3766 -0.3071  0.0445
  154SAPE   H6R17128   3.655   1.297   9.885 -1.3485 -1.2776 -1.2688
  154SAPE   C2717129   3.741   1.162   9.732 -0.0946 -0.2933 -0.0213
  154SAPE   H7R17130   3.685   1.069   9.755 -1.7193  0.7550  0.4163
  154SAPE   H7S17131   3.838   1.125   9.693 -0.3392 -2.0574  0.9610
  154SAPE   C2817132   3.684   1.260   9.627 -0.0866 -0.0717 -0.1299
  154SAPE   H8R17133   3.694   1.368   9.643  0.5495 -0.2185  0.5149
  154SAPE   C2917134   3.617   1.219   9.515  0.5084 -0.2531 -0.8220
  154SAPE   H9R17135   3.560   1.288   9.451 -0.9042  0.1098  0.7542
  154SAPE  C21017136   3.587   1.086   9.465  0.1816  0.5898  0.0608
  154SAPE  H10R17137   3.495   1.092   9.404  0.2242 -0.4975 -0.1312
  154SAPE  H10S17138   3.564   1.018   9.551 -1.5154  2.4605  1.1539
  154SAPE  C21117139   3.701   1.033   9.393 -0.2513 -0.4036  0.9801
  154SAPE  H11R17140   3.794   1.046   9.451 -0.0270  0.0363  0.5307
  154SAPE  C21217141   3.701   0.962   9.282 -0.3465  0.2030 -0.2873
  154SAPE  H12R17142   3.798   0.933   9.240 -0.7972  1.5818 -2.4488
  154SAPE  C21317143   3.583   0.931   9.200  0.6952  0.1279  0.3627
  154SAPE  H13R17144   3.493   0.992   9.223 -0.5744 -1.6818  0.3568
  154SAPE  H13S17145   3.547   0.829   9.221  0.5306 -0.1561 -1.1508
  154SAPE  C21417146   3.611   0.934   9.052  0.4273 -0.7860 -0.0435
  154SAPE  H14R17147   3.658   0.845   9.007 -1.1430 -1.4495 -0.4190
  154SAPE  C21517148   3.597   1.047   8.976 -0.1157  0.0597 -0.2454
  154SAPE  H15R17149   3.596   1.028   8.867 -0.3394 -0.0402 -0.2281
  154SAPE  C21617150   3.538   1.181   9.014 -0.0685  0.5453  0.2100
  154SAPE  H16R17151   3.589   1.258   8.953  0.0656 -1.0553 -1.7992
  154SAPE  H16S17152   3.555   1.208   9.121 -2.1754  0.2933  0.6641
  154SAPE  C21717153   3.390   1.193   8.988  0.0961  0.0698  0.2981
  154SAPE  H17R17154   3.361   1.286   9.041 -0.1182 -0.2315  0.7224
  154SAPE  H17S17155   3.340   1.114   9.049  0.4084 -0.9215 -0.7105
  154SAPE  C21817156   3.354   1.188   8.837  0.6830  0.5736  0.0392
  154SAPE  H18R17157   3.244   1.173   8.836  0.7020  0.3636  0.6758
  154SAPE  H18S17158   3.408   1.104   8.788 -1.9335 -1.7666  0.8813
  154SAPE  C21917159   3.382   1.320   8.759 -0.3040 -0.1195 -0.0440
  154SAPE  H19R17160   3.493   1.329   8.755 -0.2018  0.0461  2.0562
  154SAPE  H19S17161   3.345   1.395   8.832  0.1924 -0.2121  0.3068
  154SAPE  C22017162   3.323   1.334   8.622  0.1794  0.9661  0.5600
  154SAPE  H20R17163   3.376   1.258   8.561  1.8461 -0.1422  3.2071
  154SAPE  H20S17164   3.349   1.434   8.582 -0.2326  0.5714 -0.7594
  154SAPE  H20T17165   3.214   1.311   8.619  0.8739 -3.2000  1.4505
  154SAPE   C3317166   4.540   0.696   9.941 -0.7132  0.4103 -0.4279
  154SAPE   H3X17167   4.630   0.636   9.967  2.3382  4.4025 -0.7387
  154SAPE   H3Y17168   4.549   0.711   9.831 -1.0963 -2.6831 -0.9589
  154SAPE   C3417169   4.410   0.615   9.957  0.7078 -0.2786 -0.0091
  154SAPE   H4X17170   4.405   0.559  10.053  1.1217 -3.3973 -1.6668
  154SAPE   H4Y17171   4.426   0.548   9.870 -1.9821 -2.0046  0.6739
  154SAPE   C3517172   4.274   0.685   9.932 -0.0366  0.1853 -0.5716
  154SAPE   H5X17173   4.262   0.749   9.842  1.2674 -0.2610 -1.0878
  154SAPE   H5Y17174   4.238   0.756  10.009 -1.3568  0.6224 -1.5413
  154SAPE   C3617175   4.173   0.577   9.907  0.6314 -0.2256  0.1358
  154SAPE   H6X17176   4.181   0.502   9.988 -0.2861  0.1897  0.6195
  154SAPE   H6Y17177   4.201   0.521   9.815 -1.2623 -0.4189 -0.3540
  154SAPE   C3717178   4.033   0.639   9.893  0.5044  0.5725 -0.3099
  154SAPE   H7X17179   4.015   0.706   9.980  0.4680 -1.1637  1.0854
  154SAPE   H7Y17180   3.956   0.560   9.901  2.9574 -1.8015  2.2470
  154SAPE   C3817181   4.004   0.715   9.763  0.3753 -0.0724  0.0601
  154SAPE   H8X17182   4.061   0.808   9.741  3.1815 -1.5523  0.6196
  154SAPE   H8Y17183   3.896   0.743   9.759  0.5590  0.6404 -3.8470
  154SAPE   C3917184   4.028   0.620   9.647  0.1691  0.1883  0.4604
  154SAPE   H9X17185   3.991   0.519   9.676  1.2692 -1.1408 -2.3510
  154SAPE   H9Y17186   4.134   0.624   9.615  0.6640 -0.1483  1.9820
  154SAPE  C31017187   3.955   0.672   9.521 -0.1401  0.6040 -0.1343
  154SAPE  H10X17188   3.984   0.773   9.484  2.4827  0.6038  1.6542
  154SAPE  H10Y17189   3.845   0.677   9.540 -0.5343  0.7054 -2.2058
  154SAPE  C31117190   3.985   0.573   9.407 -0.1413 -0.2036  0.0391
  154SAPE  H11X17191   3.951   0.469   9.426 -1.3095 -0.1335 -1.5211
  154SAPE  H11Y17192   4.094   0.565   9.385 -0.3101 -1.6120 -0.3295
  154SAPE  C31217193   3.904   0.611   9.281 -0.2933  0.2409  0.0820
  154SAPE  H12X17194   3.955   0.700   9.238  0.2998 -1.0734 -2.1655
  154SAPE  H12Y17195   3.800   0.644   9.299 -0.0152  0.8893  0.5203
  154SAPE  C31317196   3.890   0.501   9.174  0.2640 -0.0059  0.1005
  154SAPE  H13X17197   3.842   0.408   9.209 -0.4352  0.5085  0.5364
  154SAPE  H13Y17198   3.992   0.476   9.135  0.1070 -1.6861  0.7040
  154SAPE  C31417199   3.817   0.566   9.049 -0.2207 -0.1980 -0.1012
  154SAPE  H14X17200   3.859   0.667   9.031  0.1955  0.1304  2.3326
  154SAPE  H14Y17201   3.710   0.578   9.076  0.5012  1.4597  2.3866
  154SAPE  C31517202   3.837   0.474   8.925 -0.4765  0.4559 -1.1253
  154SAPE  H15X17203   3.793   0.376   8.954  0.7760  0.0220 -0.6320
  154SAPE  H15Y17204   3.944   0.467   8.897 -0.2412  2.1551 -0.7496
  154SAPE  C31617205   3.748   0.529   8.809 -0.6544 -0.0997 -0.1173
  154SAPE  H16X17206   3.648   0.545   8.855 -0.5413  0.0778  0.0691
  154SAPE  H16Y17207   3.737   0.444   8.738  0.7584 -1.0524  0.7607
  154SAPE  C31717208   3.784   0.665   8.747  0.0032 -0.6183 -0.1326
  154SAPE  H17X17209   3.895   0.668   8.752 -0.0091 -0.2460  0.0043
  154SAPE  H17Y17210   3.739   0.738   8.818  0.0429 -1.0184  0.3052
  154SAPE  C31817211   3.728   0.681   8.608  0.5443  0.2475 -0.1295
  154SAPE  H18X17212   3.791   0.627   8.535 -1.3185 -1.0230 -0.8858
  154SAPE  H18Y17213   3.718   0.785   8.569 -1.0833 -0.3734 -1.5130
  154SAPE  H18Z17214   3.627   0.634   8.608  1.0438 -0.9401  1.9499
  155SAPE     N17215   5.108   2.093  10.920  0.3120 -0.3305  0.1176
  155SAPE   HN117216   5.084   2.182  10.968  0.9832 -1.3545  2.4957
  155SAPE   HN217217   5.050   2.030  10.978  0.3677 -0.3162  0.1897
  155SAPE   HN317218   5.206   2.066  10.941 -0.2751 -0.9953  2.2494
  155SAPE   C1217219   5.081   2.066  10.770 -0.5373 -0.2819  0.1453
  155SAPE  H12A17220   5.120   2.163  10.731 -0.3545 -0.1105  0.7356
  155SAPE  H12B17221   4.972   2.067  10.751 -0.5678  0.9477  0.2523
  155SAPE   C1117222   5.145   1.942  10.724  0.3225  0.3474 -0.2355
  155SAPE  H11A17223   5.098   1.903  10.632  0.8101 -0.7352 -0.0498
  155SAPE  H11B17224   5.115   1.868  10.802  1.3305  2.9741  2.8753
  155SAPE     P17225   5.376   1.830  10.720  0.2509  0.2105  0.1347
  155SAPE   O1317226   5.508   1.858  10.786  0.3194  0.6911  0.7106
  155SAPE   O1417227   5.303   1.713  10.783 -0.5731  0.3202  0.2991
  155SAPE   O1217228   5.281   1.958  10.729  0.0853  0.1855 -0.0475
  155SAPE   O1117229   5.387   1.808  10.570  0.1053  0.1278 -0.3706
  155SAPE    C117230   5.311   1.725  10.482  0.0625  0.0475  0.3147
  155SAPE    HA17231   5.331   1.619  10.507 -0.4092  0.0376  0.6517
  155SAPE    HB17232   5.200   1.728  10.495 -0.1604  0.5532 -1.4367
  155SAPE    C217233   5.376   1.737  10.338  0.1840  0.1206 -0.4096
  155SAPE    HS17234   5.365   1.841  10.301  0.7534 -0.0179 -0.9744
  155SAPE   O2117235   5.306   1.651  10.249  0.6683  0.4317  0.3979
  155SAPE   C2117236   5.180   1.682  10.221 -0.6962 -0.1723  0.4196
  155SAPE   O2217237   5.123   1.781  10.263 -0.1236 -0.0570  0.3062
  155SAPE   C2217238   5.126   1.576  10.124  0.4428 -0.1504  0.2356
  155SAPE   H2R17239   5.188   1.589  10.032  2.9332 -2.8413  1.3582
  155SAPE   H2S17240   5.144   1.479  10.175  1.1898  0.9501  2.1801
  155SAPE    C317241   5.532   1.710  10.342  1.0700 -0.0151  0.2973
  155SAPE    HX17242   5.550   1.608  10.383  0.3312 -1.5909 -2.9390
  155SAPE    HY17243   5.582   1.769  10.421 -0.6033  1.3423  0.3773
  155SAPE   O3117244   5.601   1.737  10.218  0.7094  0.1401 -0.2178
  155SAPE   C3117245   5.614   1.634  10.138  0.0588  0.4789  0.0745
  155SAPE   O3217246   5.567   1.524  10.152  0.1431  0.2506 -0.5241
  155SAPE   C3217247   5.697   1.676  10.013  0.4061 -0.0454  0.2125
  155SAPE   H2X17248   5.765   1.589   9.999  0.7015  0.1743  0.2819
  155SAPE   H2Y17249   5.758   1.762  10.047  0.9503 -0.8093  1.2076
  155SAPE   C2317250   4.977   1.582  10.100 -0.0548  0.0091 -0.0985
  155SAPE   H3R17251   4.971   1.679  10.047 -1.2070 -0.1947 -0.3528
  155SAPE   H3S17252   4.911   1.597  10.188 -0.3430  1.1448 -0.5008
  155SAPE   C2417253   4.924   1.469  10.012  0.6871  0.1520  0.0647
  155SAPE   H4R17254   4.814   1.485  10.002  0.2918 -1.0493  2.0083
  155SAPE   H4S17255   4.938   1.368  10.057  0.2508  0.2461  0.4266
  155SAPE   C2517256   4.984   1.484   9.872 -0.1663 -0.1832 -0.0904
  155SAPE   H5R17257   4.962   1.583   9.830  3.1790  0.4129 -0.7224
  155SAPE   C2617258   5.062   1.408   9.792  0.0111  0.1284 -0.6289
  155SAPE   H6R17259   5.089   1.446   9.692  0.7035 -0.1925 -0.5696
  155SAPE   C2717260   5.132   1.280   9.816  0.7677 -0.0126  0.6628
  155SAPE   H7R17261   5.159   1.235   9.719 -2.7729 -1.2592  0.1249
  155SAPE   H7S17262   5.064   1.199   9.849  1.1453 -1.2029 -1.3353
  155SAPE   C2817263   5.261   1.290   9.897 -0.5905 -0.2764 -0.4189
  155SAPE   H8R17264   5.255   1.367   9.975  0.0159 -1.8854  1.2902
  155SAPE   C2917265   5.371   1.212   9.901  0.3632  0.1804  1.0764
  155SAPE   H9R17266   5.462   1.230   9.960 -0.3028  1.0790  1.8572
  155SAPE  C21017267   5.389   1.091   9.803 -0.2044 -0.2089 -0.1730
  155SAPE  H10R17268   5.367   1.123   9.699 -1.6821  0.1373  0.2290
  155SAPE  H10S17269   5.324   1.003   9.822  0.8576 -0.9090  0.3321
  155SAPE  C21117270   5.527   1.038   9.805 -0.1843 -0.0443 -0.2863
  155SAPE  H11R17271   5.576   1.027   9.903  0.5954 -1.1102 -0.7813
  155SAPE  C21217272   5.613   0.999   9.709 -0.1867  0.2822 -0.2011
  155SAPE  H12R17273   5.717   0.970   9.733  0.6016  2.4022 -0.8739
  155SAPE  C21317274   5.569   0.995   9.565 -0.2006 -0.4525  0.7579
  155SAPE  H13R17275   5.459   0.991   9.550 -0.2136  2.1035 -0.4481
  155SAPE  H13S17276   5.600   0.897   9.524 -0.7560  0.0743 -0.9880
  155SAPE  C21417277   5.606   1.109   9.472  0.6021  0.9531  0.8357
  155SAPE  H14R17278   5.610   1.211   9.511 -1.6433  1.5269 -0.2853
  155SAPE  C21517279   5.620   1.090   9.340 -0.4051  0.8776 -0.1914
  155SAPE  H15R17280   5.646   1.174   9.274  1.7296 -0.3470 -1.0174
  155SAPE  C21617281   5.622   0.967   9.257  0.2530  0.4230  0.5621
  155SAPE  H16R17282   5.648   0.873   9.311 -0.1315  1.3724  2.4634
  155SAPE  H16S17283   5.692   0.975   9.171 -0.6218 -1.7980 -0.4478
  155SAPE  C21717284   5.489   0.936   9.180  0.0764 -0.0869 -0.9395
  155SAPE  H17R17285   5.402   0.911   9.245 -0.8281  0.4865 -1.8921
  155SAPE  H17S17286   5.498   0.850   9.110 -0.2025  0.0729 -1.1746
  155SAPE  C21817287   5.448   1.060   9.100  0.0877 -0.3623 -0.7176
  155SAPE  H18R17288   5.447   1.145   9.171  0.2477 -1.5173  0.7042
  155SAPE  H18S17289   5.350   1.042   9.049  0.2404 -0.3996 -1.0022
  155SAPE  C21917290   5.541   1.105   8.981  0.1768 -0.0387  0.3332
  155SAPE  H19R17291   5.573   1.008   8.937  0.7562  0.7634 -1.0680
  155SAPE  H19S17292   5.631   1.153   9.024  0.2892  0.4410 -0.4278
  155SAPE  C22017293   5.482   1.182   8.871  0.1507  0.1863  0.5302
  155SAPE  H20R17294   5.397   1.133   8.819  1.4477 -1.0413 -0.5160
  155SAPE  H20S17295   5.554   1.209   8.790  0.1666 -0.7014  0.2292
  155SAPE  H20T17296   5.433   1.277   8.900 -2.3147 -0.7561 -0.2764
  155SAPE   C3317297   5.603   1.695   9.886  0.5189  1.0774  0.6519
  155SAPE   H3X17298   5.637   1.767   9.808 -0.7055  0.7129 -0.2481
  155SAPE   H3Y17299   5.500   1.725   9.912 -0.9306 -2.4718 -0.4239
  155SAPE   C3417300   5.586   1.569   9.805  0.0304  0.1572  0.5190
  155SAPE   H4X17301   5.548   1.490   9.874 -2.6321  2.2450  1.6463
  155SAPE   H4Y17302   5.688   1.544   9.769 -0.4213 -2.0143  0.5787
  155SAPE   C3517303   5.486   1.591   9.690  0.1811 -0.1288 -0.2723
  155SAPE   H5X17304   5.515   1.676   9.626 -0.4976  0.1291 -0.2481
  155SAPE   H5Y17305   5.393   1.620   9.744 -0.0037 -0.5060 -0.3820
  155SAPE   C3617306   5.460   1.460   9.612 -0.1404  0.4053  0.1494
  155SAPE   H6X17307   5.422   1.385   9.684  1.7391 -0.2197  0.5525
  155SAPE   H6Y17308   5.553   1.411   9.574 -1.3219 -1.7786 -0.0947
  155SAPE   C3717309   5.353   1.464   9.504  0.2091 -0.4559  1.0040
  155SAPE   H7X17310   5.380   1.538   9.425 -0.6809 -1.2812 -0.1120
  155SAPE   H7Y17311   5.262   1.499   9.557  0.5357  1.3789  0.4225
  155SAPE   C3817312   5.317   1.330   9.434  0.1453 -0.7388  0.1617
  155SAPE   H8X17313   5.317   1.247   9.508 -0.0235 -1.7209 -0.9076
  155SAPE   H8Y17314   5.394   1.307   9.357 -1.1639 -1.6990 -0.9092
  155SAPE   C3917315   5.183   1.337   9.367  0.0589  0.3727  0.4815
  155SAPE   H9X17316   5.175   1.434   9.313  0.6952  1.2421  1.8965
  155SAPE   H9Y17317   5.109   1.321   9.448  1.9552 -0.1662  2.1692
  155SAPE  C31017318   5.162   1.222   9.267  0.3075 -0.7797 -0.0482
  155SAPE  H10X17319   5.249   1.215   9.198  1.8967 -0.8821  1.8530
  155SAPE  H10Y17320   5.072   1.250   9.210  0.6055  1.9370  0.7097
  155SAPE  C31117321   5.150   1.080   9.330  0.0767 -0.1447 -0.5572
  155SAPE  H11X17322   5.081   1.094   9.416 -0.4975  0.1385 -1.0557
  155SAPE  H11Y17323   5.246   1.037   9.364 -0.5251 -0.3630  0.9645
  155SAPE  C31217324   5.089   0.981   9.227 -0.0178  0.1299 -0.1298
  155SAPE  H12X17325   5.138   0.978   9.128 -0.0091 -2.5997 -0.1230
  155SAPE  H12Y17326   4.986   1.018   9.210 -0.6234 -0.5784  1.7459
  155SAPE  C31317327   5.073   0.837   9.274  0.2703 -0.2024 -0.3411
  155SAPE  H13X17328   5.002   0.845   9.359  0.5066 -0.1850 -0.1466
  155SAPE  H13Y17329   5.173   0.804   9.310  1.4683  1.9063 -1.5520
  155SAPE  C31417330   5.022   0.746   9.165  0.3920 -0.1837  0.6484
  155SAPE  H14X17331   4.998   0.645   9.207 -1.3461  0.3288  0.9784
  155SAPE  H14Y17332   5.093   0.735   9.081 -0.8883 -0.6127 -0.4281
  155SAPE  C31517333   4.894   0.803   9.097 -0.0460 -0.8052 -0.0244
  155SAPE  H15X17334   4.911   0.902   9.049  1.0301  0.4958  2.8240
  155SAPE  H15Y17335   4.808   0.811   9.167 -1.2948 -0.0986 -1.5722
  155SAPE  C31617336   4.847   0.710   8.990 -0.0420 -0.0680 -0.0706
  155SAPE  H16X17337   4.828   0.611   9.035  0.9738 -0.2131  0.0533
  155SAPE  H16Y17338   4.923   0.700   8.909  0.4662 -1.8152  0.5878
  155SAPE  C31717339   4.714   0.770   8.925 -0.6993 -0.0103  0.0318
  155SAPE  H17X17340   4.737   0.862   8.868 -0.0830  0.6168  1.2723
  155SAPE  H17Y17341   4.640   0.798   9.003 -0.5371 -1.5751  0.7818
  155SAPE  C31817342   4.643   0.659   8.838  0.8829 -0.2652  0.0479
  155SAPE  H18X17343   4.602   0.580   8.904  2.8117 -0.1705  1.4503
  155SAPE  H18Y17344   4.714   0.610   8.769  1.2854 -0.7511  0.7941
  155SAPE  H18Z17345   4.556   0.707   8.788  0.8705 -0.0281  0.2910
  156SAPE     N17346   2.457   5.060  10.663  0.0508 -0.0467  0.8742
  156SAPE   HN117347   2.416   4.968  10.689 -2.6452  0.9811  0.5844
  156SAPE   HN217348   2.380   5.129  10.682 -1.1490 -0.0553 -3.0294
  156SAPE   HN317349   2.458   5.055  10.559 -3.0058  1.3662  0.6420
  156SAPE   C1217350   2.571   5.093  10.760 -0.5400  0.1666 -0.0672
  156SAPE  H12A17351   2.644   5.013  10.739 -1.0758 -0.2180 -0.4861
  156SAPE  H12B17352   2.535   5.072  10.863 -0.5491  0.3204 -0.0378
  156SAPE   C1117353   2.616   5.240  10.741  1.2156  0.6166 -0.2125
  156SAPE  H11A17354   2.664   5.247  10.641 -0.1476  0.1483 -0.9242
  156SAPE  H11B17355   2.688   5.264  10.822 -0.1247  1.7581  0.6876
  156SAPE     P17356   2.516   5.477  10.709  0.0318  0.0823  0.1252
  156SAPE   O1317357   2.379   5.519  10.679  0.0174 -0.4355 -0.0564
  156SAPE   O1417358   2.592   5.557  10.812 -0.8963 -0.2254  0.3489
  156SAPE   O1217359   2.510   5.332  10.758  0.2322  0.3039 -0.0439
  156SAPE   O1117360   2.600   5.484  10.576 -0.2896 -0.0266 -0.1053
  156SAPE    C117361   2.548   5.429  10.451  0.1289 -0.8715 -0.5008
  156SAPE    HA17362   2.555   5.319  10.462 -1.1922 -0.9322 -0.0948
  156SAPE    HB17363   2.441   5.459  10.448  0.4189  0.9354  2.7878
  156SAPE    C217364   2.622   5.486  10.329  0.0275 -0.2263 -0.3526
  156SAPE    HS17365   2.567   5.445  10.241  0.8454  0.3973 -1.1722
  156SAPE   O2117366   2.752   5.431  10.321 -0.5445 -1.0258 -0.2899
  156SAPE   C2117367   2.754   5.304  10.293  0.0431  0.0410  0.0853
  156SAPE   O2217368   2.660   5.239  10.253 -0.2836  0.3936  0.2850
  156SAPE   C2217369   2.888   5.241  10.335 -0.3491 -0.0865  1.2945
  156SAPE   H2R17370   2.963   5.308  10.289  1.0535 -2.0673  0.5458
  156SAPE   H2S17371   2.893   5.250  10.446  2.9968 -0.3544  1.2630
  156SAPE    C317372   2.617   5.644  10.325 -0.3079 -0.2932 -0.9637
  156SAPE    HX17373   2.661   5.685  10.419 -0.8779  1.1999 -1.3197
  156SAPE    HY17374   2.509   5.668  10.321 -0.4757 -0.6017  0.8768
  156SAPE   O3117375   2.695   5.691  10.210  0.6455 -0.1586 -0.0189
  156SAPE   C3117376   2.756   5.806  10.212  0.3502 -0.2411 -0.8006
  156SAPE   O3217377   2.773   5.886  10.307 -0.4520  0.3911  0.1863
  156SAPE   C3217378   2.814   5.833  10.076 -0.1255  0.1348  0.2586
  156SAPE   H2X17379   2.763   5.772   9.999  0.7761 -0.1524 -0.1298
  156SAPE   H2Y17380   2.920   5.800  10.081 -0.9211 -2.4812  2.3060
  156SAPE   C2317381   2.915   5.096  10.283  0.2860 -0.0216  0.0265
  156SAPE   H3R17382   2.834   5.025  10.309 -0.0271 -0.2580 -1.4903
  156SAPE   H3S17383   3.008   5.069  10.337  0.3946 -1.4321 -0.8250
  156SAPE   C2417384   2.956   5.098  10.130  0.1839  0.4040 -0.1678
  156SAPE   H4R17385   3.014   5.189  10.102  0.7636 -0.0777 -0.5494
  156SAPE   H4S17386   2.861   5.108  10.074  1.3187  0.4467 -2.1563
  156SAPE   C2517387   3.026   4.963  10.109  0.5554  0.5042 -0.1969
  156SAPE   H5R17388   3.029   4.893  10.194  2.5381  0.3996 -0.3135
  156SAPE   C2617389   3.078   4.918   9.995 -0.0362  0.3512  0.0722
  156SAPE   H6R17390   3.135   4.824   9.991  1.2493  0.9503  2.3296
  156SAPE   C2717391   3.093   4.984   9.858  0.2587  0.1649 -0.3839
  156SAPE   H7R17392   3.031   5.076   9.846  0.8373  0.8245  1.3848
  156SAPE   H7S17393   3.067   4.914   9.776  2.5106 -0.9494 -0.2222
  156SAPE   C2817394   3.234   5.027   9.849  0.0180 -0.4091  0.1749
  156SAPE   H8R17395   3.297   4.996   9.934 -2.3453 -0.8428  1.8801
  156SAPE   C2917396   3.294   5.079   9.743 -0.3561  0.9548 -0.1397
  156SAPE   H9R17397   3.399   5.110   9.746 -0.3178  0.7627  2.1222
  156SAPE  C21017398   3.223   5.111   9.615  0.5899 -0.5175  0.4865
  156SAPE  H10R17399   3.248   5.215   9.583  0.9172 -0.7989 -0.1836
  156SAPE  H10S17400   3.113   5.123   9.626  0.1675 -2.6168 -0.9589
  156SAPE  C21117401   3.246   5.012   9.506  0.4067 -0.0976  0.0460
  156SAPE  H11R17402   3.290   4.914   9.532 -0.7702 -0.4571  0.7263
  156SAPE  C21217403   3.208   5.026   9.377  0.7658  0.0795 -0.6178
  156SAPE  H12R17404   3.235   4.950   9.303 -2.0955  0.3074 -2.0312
  156SAPE  C21317405   3.136   5.141   9.308  0.2047  0.0994  0.5171
  156SAPE  H13R17406   3.174   5.163   9.207 -0.2861 -1.4356 -0.0381
  156SAPE  H13S17407   3.148   5.229   9.374 -0.3572  2.1033 -1.9275
  156SAPE  C21417408   2.990   5.099   9.297 -0.5563  0.2570 -0.2525
  156SAPE  H14R17409   2.970   5.001   9.250 -2.3013  0.9926 -1.1444
  156SAPE  C21517410   2.886   5.175   9.319  0.0148  0.3511  0.4322
  156SAPE  H15R17411   2.789   5.126   9.301 -0.2861  1.0663  0.0503
  156SAPE  C21617412   2.883   5.320   9.365  0.7511 -0.1910 -0.1361
  156SAPE  H16R17413   2.779   5.357   9.353  0.8834 -0.4418 -2.3281
  156SAPE  H16S17414   2.955   5.371   9.298  0.7848 -2.3389 -1.8385
  156SAPE  C21717415   2.924   5.353   9.509  0.0317 -0.9034  0.3220
  156SAPE  H17R17416   2.933   5.463   9.524  1.7168 -1.0520  0.5856
  156SAPE  H17S17417   3.026   5.322   9.540  1.5718  2.1424 -1.2136
  156SAPE  C21817418   2.823   5.306   9.613  0.6346  0.6534  0.2217
  156SAPE  H18R17419   2.795   5.202   9.586 -1.6044  1.6087 -1.4133
  156SAPE  H18S17420   2.734   5.370   9.592 -0.4999 -1.1353 -0.6486
  156SAPE  C21917421   2.866   5.324   9.755  0.3592  0.1416 -0.0263
  156SAPE  H19R17422   2.895   5.431   9.764 -1.8314  0.7628  0.2725
  156SAPE  H19S17423   2.952   5.259   9.781 -0.2155 -0.0434  1.4688
  156SAPE  C22017424   2.757   5.299   9.856 -0.0066 -0.6675 -0.3186
  156SAPE  H20R17425   2.717   5.196   9.846 -0.2252 -0.7150  0.9192
  156SAPE  H20S17426   2.670   5.367   9.843 -0.4418 -0.5565  2.5817
  156SAPE  H20T17427   2.803   5.316   9.955 -0.0575 -3.2256  0.2083
  156SAPE   C3317428   2.820   5.985  10.036  0.2147  0.5178  1.3789
  156SAPE   H3X17429   2.843   6.063  10.113  0.2170  2.2115 -0.2569
  156SAPE   H3Y17430   2.719   6.015  10.002  0.4442 -0.5180 -0.2993
  156SAPE   C3417431   2.915   6.015   9.918  0.2180 -0.0536 -0.4843
  156SAPE   H4X17432   3.009   5.962   9.945 -0.3301 -0.5739  0.4537
  156SAPE   H4Y17433   2.925   6.125   9.912  1.5150 -0.0376  1.2543
  156SAPE   C3517434   2.865   5.962   9.786 -0.3165 -0.1500 -0.2008
  156SAPE   H5X17435   2.766   6.006   9.764  0.1548  0.9125 -0.2141
  156SAPE   H5Y17436   2.861   5.851   9.780  2.3048 -0.3353  0.2805
  156SAPE   C3617437   2.967   6.013   9.684  0.9320 -0.3867  0.1934
  156SAPE   H6X17438   3.065   5.971   9.715  1.0781  0.5493  1.0540
  156SAPE   H6Y17439   2.979   6.123   9.695  1.9660 -0.4651 -0.0588
  156SAPE   C3717440   2.939   5.979   9.535 -0.0112 -0.4806 -0.5742
  156SAPE   H7X17441   3.008   6.040   9.474 -1.0453 -0.9858 -2.3268
  156SAPE   H7Y17442   2.834   6.009   9.515 -0.1317 -0.2746  0.3144
  156SAPE   C3817443   2.955   5.827   9.507 -0.2839 -0.4810 -1.0518
  156SAPE   H8X17444   2.875   5.769   9.559  0.4925 -1.5942 -1.0507
  156SAPE   H8Y17445   3.048   5.781   9.548  2.7917  2.1876 -4.3293
  156SAPE   C3917446   2.949   5.798   9.361  0.0469 -0.0869  0.1343
  156SAPE   H9X17447   2.853   5.832   9.318 -0.5969 -1.0877  0.7258
  156SAPE   H9Y17448   2.959   5.687   9.350 -0.8460 -0.1685  0.1179
  156SAPE  C31017449   3.057   5.850   9.270  0.7055  0.1203  0.6002
  156SAPE  H10X17450   3.150   5.832   9.329  1.2728 -1.1818 -0.6470
  156SAPE  H10Y17451   3.041   5.960   9.266  1.4202  0.3829  3.0767
  156SAPE  C31117452   3.058   5.785   9.134 -0.2150  0.3853  0.8056
  156SAPE  H11X17453   3.103   5.859   9.064 -1.5610  1.7736  1.3471
  156SAPE  H11Y17454   2.955   5.795   9.095  0.1825  2.7922  0.1625
  156SAPE  C31217455   3.131   5.655   9.123 -0.3780  0.2961 -0.7752
  156SAPE  H12X17456   3.145   5.611   9.224 -1.7805 -0.8557 -1.0504
  156SAPE  H12Y17457   3.230   5.653   9.072 -0.2186  2.1739 -0.6333
  156SAPE  C31317458   3.044   5.547   9.047 -0.0851  0.4579 -0.4431
  156SAPE  H13X17459   3.009   5.585   8.949  0.8090 -1.1955 -1.4566
  156SAPE  H13Y17460   2.948   5.524   9.098 -0.3082 -1.0089 -1.4424
  156SAPE  C31417461   3.119   5.409   9.041  1.2067 -0.0411 -0.3492
  156SAPE  H14X17462   3.128   5.367   9.144 -0.2263  1.8332  0.5883
  156SAPE  H14Y17463   3.227   5.401   9.016  1.3292 -0.5734  0.3025
  156SAPE  C31517464   3.036   5.302   8.966 -0.5629  0.4946  0.0768
  156SAPE  H15X17465   2.937   5.306   9.018  0.7326 -1.0464  2.8923
  156SAPE  H15Y17466   3.077   5.200   8.984  0.9042  0.5388 -2.6189
  156SAPE  C31617467   3.053   5.296   8.818 -0.5979 -0.1509  0.0932
  156SAPE  H16X17468   3.163   5.301   8.801  0.0040 -0.3117  3.2975
  156SAPE  H16Y17469   2.997   5.377   8.765 -1.9545 -0.7481  0.5793
  156SAPE  C31717470   3.015   5.159   8.750 -0.1225 -0.8038 -0.0279
  156SAPE  H17X17471   2.906   5.143   8.765 -0.8686  2.5402 -1.1234
  156SAPE  H17Y17472   3.073   5.074   8.791  1.9176 -0.3141 -1.6918
  156SAPE  C31817473   3.033   5.160   8.596 -0.0500 -0.8672  0.3868
  156SAPE  H18X17474   3.134   5.132   8.560 -0.3770 -1.0577 -0.4002
  156SAPE  H18Y17475   2.995   5.250   8.543 -0.0291 -2.1124 -1.8709
  156SAPE  H18Z17476   2.964   5.085   8.552 -0.2483  0.1346 -1.0665
  157SAPE     N17477   1.285   6.253  10.783  0.1795 -0.1962 -0.0112
  157SAPE   HN117478   1.211   6.205  10.837  0.2142 -0.2032  0.0299
  157SAPE   HN217479   1.358   6.180  10.795 -0.7812 -1.0879  0.5697
  157SAPE   HN317480   1.302   6.341  10.835 -1.4028 -0.7312  1.4941
  157SAPE   C1217481   1.257   6.278  10.636  0.1723  0.4182 -0.6590
  157SAPE  H12A17482   1.173   6.218  10.595 -0.5771 -0.5081  2.0409
  157SAPE  H12B17483   1.345   6.240  10.580  0.0352 -2.2618  0.7829
  157SAPE   C1117484   1.226   6.423  10.611  0.5042 -0.3307 -0.0251
  157SAPE  H11A17485   1.137   6.455  10.669  1.3515  0.8561  0.6690
  157SAPE  H11B17486   1.201   6.423  10.503 -2.7964 -1.6814  0.6299
  157SAPE     P17487   1.478   6.525  10.574 -0.1512  0.1726 -0.1082
  157SAPE   O1317488   1.580   6.542  10.680 -0.1512 -0.8008 -0.0659
  157SAPE   O1417489   1.503   6.415  10.473  0.2786 -0.3462 -0.4626
  157SAPE   O1217490   1.332   6.517  10.644 -0.3463 -0.1449  0.0878
  157SAPE   O1117491   1.474   6.659  10.488 -0.0305  0.2606  0.1078
  157SAPE    C117492   1.355   6.739  10.459 -0.2396 -0.1690  0.0496
  157SAPE    HA17493   1.258   6.694  10.489 -1.2562  1.5140 -0.5979
  157SAPE    HB17494   1.360   6.844  10.497  1.7498 -0.1660 -0.0984
  157SAPE    C217495   1.344   6.756  10.305 -0.0125 -0.2872  0.2804
  157SAPE    HS17496   1.238   6.785  10.285  0.1339 -0.2901 -0.5475
  157SAPE   O2117497   1.368   6.628  10.235  0.2195 -0.1212 -0.1275
  157SAPE   C2117498   1.268   6.539  10.254  0.3773 -0.3363  0.0414
  157SAPE   O2217499   1.157   6.558  10.302 -1.2657  0.1572  0.6421
  157SAPE   C2217500   1.310   6.414  10.185  0.5810  0.0255  0.0100
  157SAPE   H2R17501   1.349   6.448  10.087 -0.0644 -1.3415 -0.7410
  157SAPE   H2S17502   1.400   6.363  10.226 -0.8422 -3.1487 -0.5248
  157SAPE    C317503   1.438   6.869  10.242 -0.2291  0.3655  0.0346
  157SAPE    HX17504   1.534   6.847  10.293 -1.7763 -0.3501  2.8698
  157SAPE    HY17505   1.403   6.968  10.280 -0.2614  0.3445  0.0581
  157SAPE   O3117506   1.435   6.875  10.098 -0.4092 -0.2842 -0.0382
  157SAPE   C3117507   1.528   6.808  10.038 -0.1867 -0.1854 -0.3594
  157SAPE   O3217508   1.606   6.733  10.094  0.4558 -0.2153  0.5941
  157SAPE   C3217509   1.520   6.839   9.888 -0.0804  0.0553 -0.1494
  157SAPE   H2X17510   1.539   6.948   9.879  2.5330 -0.4539 -1.8852
  157SAPE   H2Y17511   1.414   6.818   9.861 -0.2739  0.8866 -0.0533
  157SAPE   C2317512   1.204   6.300  10.180 -0.1067 -0.8035  0.2550
  157SAPE   H3R17513   1.171   6.280  10.284 -1.0883 -0.2375  0.0668
  157SAPE   H3S17514   1.262   6.212  10.146  1.4229  0.4665 -0.5890
  157SAPE   C2417515   1.102   6.332  10.070 -0.6319 -0.3706 -0.3316
  157SAPE   H4R17516   1.046   6.425  10.092 -1.9641 -0.9232 -1.2462
  157SAPE   H4S17517   1.036   6.244  10.085  2.3355 -2.7329 -0.1565
  157SAPE   C2517518   1.156   6.359   9.928 -0.8269 -0.4145 -0.3856
  157SAPE   H5R17519   1.222   6.285   9.879  0.2486 -0.0541  0.4875
  157SAPE   C2617520   1.145   6.477   9.857 -0.1582  0.1989  0.0891
  157SAPE   H6R17521   1.204   6.484   9.764 -0.5901  1.6005 -0.1104
  157SAPE   C2717522   1.085   6.610   9.897 -0.9206 -0.1656  0.1742
  157SAPE   H7R17523   1.172   6.673   9.926 -0.4966  0.4949 -2.2913
  157SAPE   H7S17524   1.026   6.601   9.991 -0.0743  0.8587  0.8296
  157SAPE   C2817525   1.004   6.692   9.797 -0.5656 -0.3665  0.3816
  157SAPE   H8R17526   1.038   6.795   9.784  0.8948 -0.7881  0.6694
  157SAPE   C2917527   0.901   6.656   9.706 -0.1774  0.5644 -0.3265
  157SAPE   H9R17528   0.848   6.734   9.648 -2.7167 -0.6697  0.1920
  157SAPE  C21017529   0.847   6.520   9.678 -0.6523 -0.3624 -0.2307
  157SAPE  H10R17530   0.736   6.525   9.686 -0.6234  0.7895 -0.3122
  157SAPE  H10S17531   0.888   6.447   9.749  0.0089 -0.6711 -0.9211
  157SAPE  C21117532   0.873   6.466   9.541  0.2564 -0.0751  0.0608
  157SAPE  H11R17533   0.948   6.386   9.533  1.3286  0.8980 -0.0545
  157SAPE  C21217534   0.841   6.519   9.420  0.2713  0.0710 -0.2267
  157SAPE  H12R17535   0.872   6.458   9.333  2.0488 -1.8820  1.6613
  157SAPE  C21317536   0.748   6.640   9.384 -0.1214 -0.5793 -0.0392
  157SAPE  H13R17537   0.801   6.732   9.350  0.7264 -0.8654  0.4799
  157SAPE  H13S17538   0.688   6.680   9.468 -1.1660  2.0785 -1.9188
  157SAPE  C21417539   0.650   6.593   9.281  1.1469  0.2016  0.3833
  157SAPE  H14R17540   0.618   6.489   9.292 -0.0793  0.5371  0.0944
  157SAPE  C21517541   0.591   6.671   9.186 -0.1719  0.0655  0.3745
  157SAPE  H15R17542   0.519   6.620   9.120  0.1541 -0.6999  0.5965
  157SAPE  C21617543   0.619   6.819   9.157 -0.0082  0.1259  0.1881
  157SAPE  H16R17544   0.670   6.866   9.244 -0.8159  0.3623  0.5424
  157SAPE  H16S17545   0.519   6.866   9.152  0.5128  1.1185 -2.3016
  157SAPE  C21717546   0.705   6.857   9.035 -0.2351 -0.2326  0.4555
  157SAPE  H17R17547   0.789   6.783   9.033 -0.6470 -0.7215 -1.4812
  157SAPE  H17S17548   0.745   6.960   9.046 -1.1635  0.3318 -1.1060
  157SAPE  C21817549   0.626   6.846   8.900 -0.4561  0.2235 -0.4859
  157SAPE  H18R17550   0.545   6.922   8.894  0.3059  1.2163  1.2070
  157SAPE  H18S17551   0.575   6.748   8.913  0.3442 -0.4801 -2.2525
  157SAPE  C21917552   0.707   6.859   8.774 -0.3963 -0.1697  0.1551
  157SAPE  H19R17553   0.772   6.949   8.780  0.6623 -0.9018  0.1089
  157SAPE  H19S17554   0.629   6.882   8.699 -0.3209  0.7435  0.3383
  157SAPE  C22017555   0.786   6.732   8.730 -0.1251  0.2756  0.3744
  157SAPE  H20R17556   0.719   6.645   8.713  0.5275  0.1773 -2.1840
  157SAPE  H20S17557   0.866   6.723   8.806  0.8187 -0.7530 -0.7053
  157SAPE  H20T17558   0.836   6.750   8.632  1.8312  0.3740  1.3597
  157SAPE   C3317559   1.618   6.770   9.796  0.1698 -0.5920 -0.1050
  157SAPE   H3X17560   1.624   6.663   9.826 -2.0665  0.0197  2.9823
  157SAPE   H3Y17561   1.714   6.825   9.786  0.8541 -1.0582  2.8487
  157SAPE   C3417562   1.570   6.770   9.645 -0.4287  0.0954 -0.1141
  157SAPE   H4X17563   1.647   6.724   9.580  1.2537  1.4035  0.8537
  157SAPE   H4Y17564   1.563   6.878   9.621 -2.1413  0.1491  0.5272
  157SAPE   C3517565   1.436   6.696   9.628  0.1149 -0.3170  0.0127
  157SAPE   H5X17566   1.355   6.756   9.675 -0.5997  0.0140 -1.6035
  157SAPE   H5Y17567   1.438   6.591   9.665 -1.3746  0.3951  2.3697
  157SAPE   C3617568   1.396   6.692   9.479  0.4315 -0.4691 -0.8040
  157SAPE   H6X17569   1.320   6.611   9.472 -0.7940  0.6825 -1.1943
  157SAPE   H6Y17570   1.484   6.663   9.417  0.7419 -1.4603  0.0601
  157SAPE   C3717571   1.333   6.826   9.415  0.0148  0.1217 -0.2212
  157SAPE   H7X17572   1.396   6.910   9.452 -0.3637 -1.2866  4.3259
  157SAPE   H7Y17573   1.233   6.842   9.461 -1.0694 -2.3806 -1.5287
  157SAPE   C3817574   1.324   6.824   9.265 -0.1032  0.1420  0.8949
  157SAPE   H8X17575   1.421   6.789   9.224  0.3827  1.4446  0.8851
  157SAPE   H8Y17576   1.313   6.926   9.220 -0.4463  0.0836  0.8446
  157SAPE   C3917577   1.218   6.727   9.203 -0.4254  0.5832  0.3056
  157SAPE   H9X17578   1.113   6.748   9.232 -1.3297 -1.1641 -1.4763
  157SAPE   H9Y17579   1.239   6.622   9.232  0.3406  1.0937  1.6604
  157SAPE  C31017580   1.215   6.735   9.046 -0.0087  0.1186  0.0823
  157SAPE  H10X17581   1.318   6.737   9.004 -0.6549  4.8630 -1.9331
  157SAPE  H10Y17582   1.165   6.830   9.016  1.4520  0.3685 -1.7300
  157SAPE  C31117583   1.129   6.624   8.996  0.0072 -0.4239  1.2388
  157SAPE  H11X17584   1.026   6.641   9.034  0.5170  0.4505  2.3206
  157SAPE  H11Y17585   1.169   6.534   9.047  1.8951 -0.3916 -0.0700
  157SAPE  C31217586   1.137   6.607   8.850 -0.0382  0.1007  0.3247
  157SAPE  H12X17587   1.244   6.604   8.822 -0.0336 -0.8689  0.4102
  157SAPE  H12Y17588   1.103   6.700   8.800  0.1624  0.3311  0.6119
  157SAPE  C31317589   1.054   6.484   8.800  0.0538 -0.0420 -0.2394
  157SAPE  H13X17590   1.020   6.501   8.695 -4.3396  2.5074  1.3348
  157SAPE  H13Y17591   0.965   6.473   8.865 -0.1036 -0.4175 -0.5170
  157SAPE  C31417592   1.137   6.354   8.798  0.2682  0.3513  0.1559
  157SAPE  H14X17593   1.193   6.362   8.894 -2.8558  0.2787  2.1134
  157SAPE  H14Y17594   1.212   6.353   8.716 -1.0303  0.2525 -1.0713
  157SAPE  C31517595   1.061   6.212   8.781  0.1546 -0.2950 -0.0704
  157SAPE  H15X17596   0.990   6.220   8.696  0.4675  1.1358 -0.2146
  157SAPE  H15Y17597   0.996   6.200   8.870 -0.0190 -2.2034 -0.4201
  157SAPE  C31617598   1.152   6.096   8.767  0.2101  0.7575 -0.7055
  157SAPE  H16X17599   1.222   6.097   8.854 -0.5802 -0.5844 -0.0229
  157SAPE  H16Y17600   1.226   6.112   8.686  3.2491  0.8731  1.8835
  157SAPE  C31717601   1.086   5.955   8.752 -0.1181 -0.1336  0.8989
  157SAPE  H17X17602   1.170   5.885   8.729  1.7176  2.0615  0.5610
  157SAPE  H17Y17603   1.012   5.962   8.670 -0.2610  2.2533  1.1638
  157SAPE  C31817604   1.013   5.905   8.877 -0.8813 -0.1231 -0.0974
  157SAPE  H18X17605   0.918   5.959   8.896  0.5857  2.7929 -0.3764
  157SAPE  H18Y17606   1.073   5.922   8.969 -1.7842  0.3427  0.4127
  157SAPE  H18Z17607   0.986   5.798   8.875 -2.1254  0.1811 -1.7579
  158SAPE     N17608   3.582   1.198  10.795  0.0768 -0.0697  0.5917
  158SAPE   HN117609   3.543   1.199  10.891  1.7507  0.8844  1.3116
  158SAPE   HN217610   3.653   1.272  10.781  0.0508  0.5490  3.2784
  158SAPE   HN317611   3.503   1.204  10.727 -2.1230 -2.7556  2.6380
  158SAPE   C1217612   3.653   1.075  10.758 -0.3537 -0.3427 -0.3673
  158SAPE  H12A17613   3.742   1.055  10.822  0.6872  2.1129 -0.9255
  158SAPE  H12B17614   3.686   1.085  10.653 -0.2121 -0.2025 -0.3107
  158SAPE   C1117615   3.555   0.958  10.768 -0.9948 -0.0118 -0.0016
  158SAPE  H11A17616   3.516   0.947  10.871  0.0020  0.1212  0.4036
  158SAPE  H11B17617   3.609   0.863  10.744  0.2334 -0.1949  2.9796
  158SAPE     P17618   3.430   0.893  10.543  0.5451 -0.5982 -0.3129
  158SAPE   O1317619   3.464   0.753  10.563  0.2463  0.4542  0.6105
  158SAPE   O1417620   3.297   0.914  10.492  0.2894 -0.0814 -0.6784
  158SAPE   O1217621   3.447   0.983  10.677 -0.0515  0.2914 -0.1942
  158SAPE   O1117622   3.540   0.950  10.445 -0.6031 -0.1753 -0.2960
  158SAPE    C117623   3.527   1.082  10.394  0.2475  0.4250 -0.5632
  158SAPE    HA17624   3.486   1.156  10.466  0.4979  2.2025 -2.1647
  158SAPE    HB17625   3.629   1.125  10.382  0.4486  0.2492  0.4458
  158SAPE    C217626   3.454   1.092  10.261  0.0457  0.4046 -0.3549
  158SAPE    HS17627   3.346   1.108  10.283  0.1118 -1.5965  1.8500
  158SAPE   O2117628   3.472   0.968  10.191 -0.0012  0.3579 -0.0428
  158SAPE   C2117629   3.384   0.932  10.108 -0.2814  0.3933 -0.1339
  158SAPE   O2217630   3.279   0.988  10.096  0.0270 -0.1937  0.8267
  158SAPE   C2217631   3.451   0.829  10.017 -0.3736 -0.2622 -0.0665
  158SAPE   H2R17632   3.554   0.811  10.056 -0.8748  0.6696  1.8127
  158SAPE   H2S17633   3.402   0.730  10.027  0.5086 -0.6330  0.7421
  158SAPE    C317634   3.521   1.202  10.173  0.1725  0.8118 -0.2033
  158SAPE    HX17635   3.626   1.168  10.162 -1.1467 -2.9639 -3.1405
  158SAPE    HY17636   3.524   1.299  10.227  0.7582  0.6472  0.0655
  158SAPE   O3117637   3.464   1.223  10.040  0.3616 -0.1950  0.0291
  158SAPE   C3117638   3.346   1.273  10.036  0.1406  0.4126  0.1200
  158SAPE   O3217639   3.279   1.321  10.124 -0.6152 -0.3361  0.1410
  158SAPE   C3217640   3.290   1.248   9.896  0.3913 -0.2422  0.8806
  158SAPE   H2X17641   3.343   1.170   9.839  0.4905  2.9844 -4.0853
  158SAPE   H2Y17642   3.298   1.339   9.833  0.7974 -1.1349 -0.3978
  158SAPE   C2317643   3.459   0.879   9.869  0.0305  0.7799 -0.5124
  158SAPE   H3R17644   3.516   0.793   9.828  0.9361 -0.6746  3.3456
  158SAPE   H3S17645   3.509   0.978   9.864 -1.2231  1.6555  2.2028
  158SAPE   C2417646   3.321   0.883   9.804  0.1967 -0.3033  0.2228
  158SAPE   H4R17647   3.336   0.939   9.709 -0.4388 -0.2589  0.1494
  158SAPE   H4S17648   3.254   0.947   9.864  1.1315 -0.5086  1.5360
  158SAPE   C2517649   3.251   0.753   9.788 -0.0089 -0.5555 -0.3499
  158SAPE   H5R17650   3.227   0.714   9.888 -2.5280  0.6278 -0.4203
  158SAPE   C2617651   3.216   0.690   9.672  0.4432  0.2117 -0.2373
  158SAPE   H6R17652   3.174   0.590   9.691  0.6398  0.0859 -0.4651
  158SAPE   C2717653   3.245   0.734   9.531 -0.3158  0.4402  0.1706
  158SAPE   H7R17654   3.223   0.642   9.473 -1.7607 -0.1565  1.5963
  158SAPE   H7S17655   3.353   0.763   9.528  0.2585 -1.3662  1.2531
  158SAPE   C2817656   3.169   0.854   9.486 -1.0837  0.2591  0.9550
  158SAPE   H8R17657   3.141   0.926   9.565 -0.5951  0.1477  1.2360
  158SAPE   C2917658   3.133   0.868   9.356  1.1468  0.0704 -0.2135
  158SAPE   H9R17659   3.086   0.960   9.318 -0.3463 -1.4722 -2.3768
  158SAPE  C21017660   3.164   0.766   9.243 -0.2904  0.1816 -0.1624
  158SAPE  H10R17661   3.249   0.698   9.267 -1.5262 -1.8362 -1.2533
  158SAPE  H10S17662   3.201   0.828   9.159  0.1286  1.1947  0.7366
  158SAPE  C21117663   3.037   0.677   9.224 -0.1915 -0.0144 -0.1796
  158SAPE  H11R17664   3.009   0.614   9.310  0.1625  0.0837  0.0070
  158SAPE  C21217665   2.967   0.662   9.105 -0.2898  0.7428 -0.0962
  158SAPE  H12R17666   2.881   0.595   9.098  0.5132 -0.2436 -0.7732
  158SAPE  C21317667   3.000   0.720   8.971 -0.0261 -0.0572 -0.7723
  158SAPE  H13R17668   3.063   0.808   8.996  1.1674 -0.9317 -0.6436
  158SAPE  H13S17669   2.907   0.750   8.917 -0.5947  0.8703  0.6809
  158SAPE  C21417670   3.084   0.629   8.887  0.7871  0.1505  0.4311
  158SAPE  H14R17671   3.041   0.529   8.871  0.4217  0.2885  0.5265
  158SAPE  C21517672   3.204   0.651   8.832  0.0933 -0.3367  0.3588
  158SAPE  H15R17673   3.246   0.572   8.768 -0.2400  0.6993 -1.1980
  158SAPE  C21617674   3.288   0.772   8.843  0.1499 -0.0924 -0.1001
  158SAPE  H16R17675   3.367   0.742   8.915  0.7151 -0.5640 -0.8852
  158SAPE  H16S17676   3.240   0.864   8.882 -1.7960 -0.3759 -1.6763
  158SAPE  C21717677   3.350   0.817   8.709 -0.7422  0.0705 -0.3802
  158SAPE  H17R17678   3.398   0.729   8.662  2.7045  0.0602  2.7048
  158SAPE  H17S17679   3.439   0.876   8.740 -1.3835 -0.1698  2.1530
  158SAPE  C21817680   3.251   0.897   8.613 -0.9721 -0.1774 -0.5459
  158SAPE  H18R17681   3.210   0.987   8.664 -1.3370  0.6546 -2.2533
  158SAPE  H18S17682   3.176   0.822   8.581  0.0916 -1.1737 -0.8060
  158SAPE  C21917683   3.324   0.946   8.483  0.3786 -0.1576 -0.4268
  158SAPE  H19R17684   3.363   0.859   8.426 -1.3677 -0.3228 -1.4150
  158SAPE  H19S17685   3.408   1.015   8.507 -2.0434  2.3192  1.5116
  158SAPE  C22017686   3.241   1.021   8.383  0.2630  0.3851 -0.4886
  158SAPE  H20R17687   3.157   0.953   8.356 -0.2825  0.0799  1.7813
  158SAPE  H20S17688   3.294   1.049   8.289  0.5330  1.7798  0.0564
  158SAPE  H20T17689   3.182   1.104   8.427 -0.2749  0.5815 -1.5284
  158SAPE   C3317690   3.142   1.209   9.891 -0.1732  0.2902  0.2569
  158SAPE   H3X17691   3.086   1.282   9.954  0.0849  0.2574  0.5280
  158SAPE   H3Y17692   3.146   1.115   9.952 -0.2312 -0.4846 -0.9093
  158SAPE   C3417693   3.082   1.201   9.751  0.1528 -0.0848  0.3187
  158SAPE   H4X17694   2.984   1.148   9.751 -0.4097  0.9122 -0.4519
  158SAPE   H4Y17695   3.151   1.145   9.684  2.1674  1.1382  1.2726
  158SAPE   C3517696   3.070   1.338   9.680 -0.3934  0.1494 -0.2319
  158SAPE   H5X17697   3.169   1.386   9.668 -0.6867  0.8862  0.2467
  158SAPE   H5Y17698   3.010   1.393   9.755  0.2890 -2.9121  2.8581
  158SAPE   C3617699   3.002   1.335   9.544 -0.0825 -0.3700  0.5680
  158SAPE   H6X17700   2.962   1.434   9.514  2.8772  0.5670 -0.6572
  158SAPE   H6Y17701   2.910   1.272   9.547 -0.4934  0.2265  3.0112
  158SAPE   C3717702   3.099   1.285   9.436 -0.6993 -0.7479 -0.6873
  158SAPE   H7X17703   3.120   1.179   9.463  0.4877 -0.1767  0.7662
  158SAPE   H7Y17704   3.187   1.353   9.436 -0.6240 -0.8452 -0.4091
  158SAPE   C3817705   3.042   1.277   9.294  0.3391  0.0923 -0.0832
  158SAPE   H8X17706   2.951   1.213   9.297  0.6294 -0.3128  0.1958
  158SAPE   H8Y17707   3.103   1.223   9.219 -0.1960 -1.2056  0.3953
  158SAPE   C3917708   2.986   1.405   9.235 -0.2026  0.2376  0.0301
  158SAPE   H9X17709   3.076   1.463   9.206  0.8149 -0.1266  2.2477
  158SAPE   H9Y17710   2.920   1.461   9.304 -0.3645  2.2007 -1.6227
  158SAPE  C31017711   2.913   1.373   9.106 -0.1902  0.2953  0.4447
  158SAPE  H10X17712   2.824   1.317   9.141  0.0185  0.0486  0.5869
  158SAPE  H10Y17713   2.970   1.296   9.050 -1.0202 -1.7906  2.3333
  158SAPE  C31117714   2.885   1.496   9.019  0.5630  0.6248  0.4474
  158SAPE  H11X17715   2.982   1.548   8.999  0.8486 -0.7300 -2.0630
  158SAPE  H11Y17716   2.813   1.565   9.069  0.2006  0.4663  0.1437
  158SAPE  C31217717   2.826   1.448   8.879 -0.0032 -0.2434 -1.4289
  158SAPE  H12X17718   2.765   1.359   8.904 -0.2146  0.2206 -0.2398
  158SAPE  H12Y17719   2.910   1.414   8.814  0.9604 -0.8869  0.1129
  158SAPE  C31317720   2.741   1.555   8.801 -0.5620 -0.3133 -0.0568
  158SAPE  H13X17721   2.806   1.645   8.801  0.3517 -0.9155  1.8006
  158SAPE  H13Y17722   2.649   1.579   8.859 -0.7278 -1.5893  0.2434
  158SAPE  C31417723   2.696   1.507   8.661  0.2009  0.0073  0.3924
  158SAPE  H14X17724   2.642   1.415   8.691 -1.4166  1.3040  1.6824
  158SAPE  H14Y17725   2.789   1.482   8.605  0.3580  0.6808  0.3392
  158SAPE  C31517726   2.600   1.610   8.598  0.3039 -0.3730  0.1396
  158SAPE  H15X17727   2.648   1.709   8.615 -0.0924  0.3923 -2.7616
  158SAPE  H15Y17728   2.513   1.607   8.668 -0.0141 -0.8413 -0.2738
  158SAPE  C31617729   2.557   1.594   8.451  0.1835 -0.4775  0.3871
  158SAPE  H16X17730   2.484   1.672   8.420  0.3700 -0.4383  0.0435
  158SAPE  H16Y17731   2.518   1.493   8.424  2.0305 -1.1428  0.0050
  158SAPE  C31717732   2.682   1.614   8.365 -0.5102 -0.4287 -0.1521
  158SAPE  H17X17733   2.741   1.523   8.392 -0.8859 -1.2292 -1.8868
  158SAPE  H17Y17734   2.739   1.699   8.408 -0.3485 -0.1323 -0.9294
  158SAPE  C31817735   2.673   1.624   8.212  0.1542  0.5522  0.1836
  158SAPE  H18X17736   2.643   1.522   8.178  0.4708  0.5963 -0.2251
  158SAPE  H18Y17737   2.762   1.660   8.156 -0.7477 -0.2053 -1.8382
  158SAPE  H18Z17738   2.585   1.687   8.189 -0.3637 -0.1376  0.2208
  159SAPE     N17739   1.320   4.574   6.302  0.5072  0.7879 -0.3596
  159SAPE   HN117740   1.390   4.617   6.366  0.4720 -1.0991  1.0236
  159SAPE   HN217741   1.305   4.649   6.231 -2.0450 -0.2954 -1.0794
  159SAPE   HN317742   1.232   4.565   6.356 -0.1224  3.5688 -0.7251
  159SAPE   C1217743   1.361   4.450   6.225 -0.2182 -0.3595  0.6728
  159SAPE  H12A17744   1.466   4.448   6.190  0.4227 -0.3137  2.4647
  159SAPE  H12B17745   1.294   4.436   6.138 -1.1870 -0.6261  1.4314
  159SAPE   C1117746   1.334   4.327   6.319 -0.0754 -0.1430  0.0673
  159SAPE  H11A17747   1.305   4.243   6.252 -0.3582  1.1812 -1.5352
  159SAPE  H11B17748   1.243   4.340   6.381 -1.1421 -0.7558 -1.3152
  159SAPE     P17749   1.488   4.352   6.533 -0.0131 -0.0916 -0.3785
  159SAPE   O1317750   1.616   4.294   6.577 -0.1494  0.0034 -0.0026
  159SAPE   O1417751   1.488   4.496   6.526 -0.1294  0.0894  0.4356
  159SAPE   O1217752   1.458   4.295   6.388  0.0561 -0.6574  0.4101
  159SAPE   O1117753   1.365   4.291   6.618  0.5665  0.4614 -0.6399
  159SAPE    C117754   1.279   4.375   6.695  0.1484 -0.0854  0.1773
  159SAPE    HA17755   1.281   4.480   6.658 -1.8577  0.4666  1.4744
  159SAPE    HB17756   1.181   4.330   6.670 -0.0411 -0.3573  1.3338
  159SAPE    C217757   1.297   4.365   6.855  0.0592  0.0841  0.4189
  159SAPE    HS17758   1.407   4.365   6.874 -0.0957  0.8191  1.4209
  159SAPE   O2117759   1.226   4.253   6.912 -0.5669 -0.8699  0.0883
  159SAPE   C2117760   1.280   4.139   6.881 -0.0408  0.6382  0.0180
  159SAPE   O2217761   1.390   4.120   6.841 -0.9319 -0.2242 -0.1169
  159SAPE   C2217762   1.187   4.027   6.911 -0.7295 -0.2807  0.8439
  159SAPE   H2R17763   1.085   4.058   6.880 -0.4493 -0.7532 -0.6351
  159SAPE   H2S17764   1.225   3.942   6.851 -2.1779  0.4932 -1.2914
  159SAPE    C317765   1.251   4.497   6.919  0.0377 -0.7909  0.0735
  159SAPE    HX17766   1.141   4.481   6.918  0.0339 -0.7681  0.1200
  159SAPE    HY17767   1.266   4.586   6.855 -2.0063  1.2491  2.2100
  159SAPE   O3117768   1.305   4.525   7.050  0.2579 -0.4039 -0.1350
  159SAPE   C3117769   1.428   4.560   7.054 -0.3298 -0.2290  0.0371
  159SAPE   O3217770   1.502   4.588   6.957  0.5567  0.1191  0.4745
  159SAPE   C3217771   1.485   4.551   7.192  0.3744  0.1070  0.1053
  159SAPE   H2X17772   1.453   4.631   7.263 -0.0683 -0.5069  0.6095
  159SAPE   H2Y17773   1.594   4.569   7.183  0.5532  0.6031  2.4995
  159SAPE   C2317774   1.194   3.996   7.061 -0.7359  0.4521 -0.0774
  159SAPE   H3R17775   1.155   4.079   7.124 -1.8237 -0.7563  0.9028
  159SAPE   H3S17776   1.301   3.990   7.089 -0.7875 -0.9057 -0.1445
  159SAPE   C2417777   1.126   3.863   7.096 -0.4543  0.6127 -0.3826
  159SAPE   H4R17778   1.041   3.850   7.025  0.1371  1.0378 -1.1939
  159SAPE   H4S17779   1.083   3.873   7.198  1.3032  0.3676  0.4296
  159SAPE   C2517780   1.221   3.746   7.082  0.5722  0.1171  0.5862
  159SAPE   H5R17781   1.257   3.728   6.979  0.1512  0.5851  0.3491
  159SAPE   C2617782   1.268   3.665   7.178 -0.6334 -0.5920  0.3908
  159SAPE   H6R17783   1.333   3.580   7.152  0.4466  0.2200  0.3655
  159SAPE   C2717784   1.237   3.687   7.323 -0.7257  0.0353 -0.4542
  159SAPE   H7R17785   1.163   3.606   7.341  0.5106 -1.0660 -0.1827
  159SAPE   H7S17786   1.188   3.783   7.351 -0.4766  0.5350 -1.6751
  159SAPE   C2817787   1.369   3.680   7.401 -0.0355 -0.3188 -0.3102
  159SAPE   H8R17788   1.451   3.735   7.352  1.9506 -0.2587  2.8240
  159SAPE   C2917789   1.391   3.614   7.514 -0.2279 -0.0470  0.4170
  159SAPE   H9R17790   1.492   3.612   7.558  0.8573 -0.6572 -1.9263
  159SAPE  C21017791   1.283   3.532   7.587  0.2907 -0.4077  0.1111
  159SAPE  H10R17792   1.205   3.489   7.520 -0.7476 -0.0300  1.0503
  159SAPE  H10S17793   1.215   3.603   7.639 -0.7060 -0.1531 -1.4491
  159SAPE  C21117794   1.337   3.426   7.686 -0.3801  0.1724  0.0491
  159SAPE  H11R17795   1.358   3.329   7.637 -1.0211 -0.3669  0.8173
  159SAPE  C21217796   1.370   3.450   7.814  0.2261 -0.3878 -0.1171
  159SAPE  H12R17797   1.399   3.363   7.874  1.5048  0.0854 -0.0113
  159SAPE  C21317798   1.352   3.580   7.889 -0.4218 -0.5804 -0.3755
  159SAPE  H13R17799   1.281   3.641   7.830 -0.9479  2.4950  3.0241
  159SAPE  H13S17800   1.450   3.631   7.881  0.5245 -1.7190  2.6717
  159SAPE  C21417801   1.312   3.561   8.038 -0.3804  0.1535  0.6780
  159SAPE  H14R17802   1.331   3.458   8.070  1.0356  0.0113 -0.5048
  159SAPE  C21517803   1.254   3.650   8.122  0.3898  0.3064  0.4788
  159SAPE  H15R17804   1.231   3.623   8.226 -2.0291 -0.7852 -0.2398
  159SAPE  C21617805   1.228   3.790   8.077  0.0119 -0.0779 -0.2039
  159SAPE  H16R17806   1.270   3.819   7.979  1.6631 -0.3567  0.3831
  159SAPE  H16S17807   1.280   3.858   8.148  0.2815  0.3855 -0.8454
  159SAPE  C21717808   1.077   3.822   8.082 -0.5021  0.0754  0.7003
  159SAPE  H17R17809   1.071   3.933   8.092 -1.3574  0.0086  0.9920
  159SAPE  H17S17810   1.036   3.786   8.178  1.1442 -2.2725  0.6058
  159SAPE  C21817811   0.987   3.788   7.957  0.3367 -0.7296 -0.3806
  159SAPE  H18R17812   0.983   3.678   7.943 -0.5159 -1.4256  3.7942
  159SAPE  H18S17813   1.024   3.845   7.869 -0.2185  0.2970  0.0290
  159SAPE  C21917814   0.848   3.817   7.993  0.4612  0.2020 -0.1740
  159SAPE  H19R17815   0.834   3.868   8.091  0.2362  1.5162 -0.8650
  159SAPE  H19S17816   0.793   3.723   8.016 -0.0370  0.1935 -1.3332
  159SAPE  C22017817   0.776   3.883   7.882  0.1710  0.5351 -0.4647
  159SAPE  H20R17818   0.792   3.828   7.786  1.5602 -1.0871  0.6301
  159SAPE  H20S17819   0.821   3.982   7.863  0.5424  0.1169 -1.9300
  159SAPE  H20T17820   0.669   3.888   7.911  0.1838  1.7860 -0.5956
  159SAPE   C3317821   1.475   4.412   7.265  0.6040  0.0104 -0.7942
  159SAPE   H3X17822   1.367   4.393   7.284  0.6943 -3.1931 -2.6713
  159SAPE   H3Y17823   1.528   4.420   7.362 -0.0377 -0.4983 -0.3937
  159SAPE   C3417824   1.528   4.291   7.192 -0.0597  0.4131 -0.0385
  159SAPE   H4X17825   1.639   4.287   7.186  0.0534 -1.0437  2.0156
  159SAPE   H4Y17826   1.484   4.282   7.090  1.7271  0.8625 -0.8988
  159SAPE   C3517827   1.486   4.164   7.263 -0.0861  0.0804  0.0827
  159SAPE   H5X17828   1.500   4.081   7.189 -1.0752 -0.3340  0.3482
  159SAPE   H5Y17829   1.377   4.153   7.278 -0.5006  1.9183 -1.3169
  159SAPE   C3617830   1.559   4.127   7.393  0.2557  0.0278 -0.8072
  159SAPE   H6X17831   1.531   4.197   7.474  2.4600 -0.9503  0.9117
  159SAPE   H6Y17832   1.669   4.130   7.373  0.4137 -3.7788 -1.4017
  159SAPE   C3717833   1.532   3.993   7.447 -0.6651 -0.2069 -0.6090
  159SAPE   H7X17834   1.571   3.919   7.374 -0.8825  0.8944 -1.8819
  159SAPE   H7Y17835   1.422   3.983   7.456 -0.5603 -0.0003  1.5417
  159SAPE   C3817836   1.607   3.964   7.584  0.0161 -0.0598  0.1972
  159SAPE   H8X17837   1.715   3.989   7.586 -0.3410  1.6717  2.0904
  159SAPE   H8Y17838   1.595   3.856   7.606 -0.4104  0.2538  1.6414
  159SAPE   C3917839   1.542   4.050   7.695 -0.8105  0.1732 -0.0705
  159SAPE   H9X17840   1.431   4.047   7.687 -0.8333  1.4632 -0.4535
  159SAPE   H9Y17841   1.563   4.157   7.672  0.5612  1.0436  4.3085
  159SAPE  C31017842   1.580   4.019   7.834 -0.5915  0.2258  0.2519
  159SAPE  H10X17843   1.690   4.000   7.828 -0.8359 -0.9832 -1.1857
  159SAPE  H10Y17844   1.538   3.918   7.852  2.2900 -0.9894  0.7253
  159SAPE  C31117845   1.550   4.109   7.951 -0.0778  0.2465 -0.1475
  159SAPE  H11X17846   1.446   4.148   7.943 -0.1877 -0.3689 -2.7826
  159SAPE  H11Y17847   1.629   4.186   7.951 -0.7613  0.9626 -0.4204
  159SAPE  C31217848   1.562   4.034   8.088 -0.2691 -0.0482 -0.0975
  159SAPE  H12X17849   1.668   4.020   8.115 -0.3854  1.7770  1.5178
  159SAPE  H12Y17850   1.513   3.936   8.071 -0.2896 -0.2010  0.7869
  159SAPE  C31317851   1.499   4.117   8.196  0.2346  0.6851  0.8606
  159SAPE  H13X17852   1.393   4.084   8.200  1.0563 -2.1161  1.0868
  159SAPE  H13Y17853   1.502   4.224   8.163  0.7304  0.9876  1.8406
  159SAPE  C31417854   1.565   4.106   8.330 -0.5587  0.4958 -1.0149
  159SAPE  H14X17855   1.675   4.122   8.324  0.3150 -4.2933 -3.4828
  159SAPE  H14Y17856   1.562   4.001   8.367 -1.1400  0.3863 -1.3559
  159SAPE  C31517857   1.512   4.194   8.439 -0.4577  0.4317 -0.6261
  159SAPE  H15X17858   1.401   4.193   8.444 -0.4104 -0.2351  2.0620
  159SAPE  H15Y17859   1.535   4.301   8.420 -0.6752  0.3345 -1.4555
  159SAPE  C31617860   1.567   4.151   8.576 -0.2204 -0.2516  0.5402
  159SAPE  H16X17861   1.678   4.155   8.573 -0.2455 -0.2235 -0.9037
  159SAPE  H16Y17862   1.521   4.050   8.588 -0.8897  0.1243  1.2023
  159SAPE  C31717863   1.516   4.237   8.689  0.7054  0.0512  0.0688
  159SAPE  H17X17864   1.405   4.240   8.700  0.8457  0.6980  1.6391
  159SAPE  H17Y17865   1.544   4.344   8.676  0.8375 -0.0711 -0.6886
  159SAPE  C31817866   1.565   4.175   8.821 -0.2913  0.4578 -0.9844
  159SAPE  H18X17867   1.552   4.065   8.817  2.3504  0.0937 -1.3050
  159SAPE  H18Y17868   1.515   4.223   8.908 -0.5956 -2.4041  0.5058
  159SAPE  H18Z17869   1.673   4.198   8.835 -0.7689  1.6861  1.1257
  160SAPE     N17870   0.988   6.266   6.448 -0.9021  0.1161  0.2017
  160SAPE   HN117871   1.037   6.250   6.358 -1.9704 -0.6970 -0.2488
  160SAPE   HN217872   0.923   6.191   6.479 -2.1805  1.5561  1.1943
  160SAPE   HN317873   0.935   6.355   6.443 -0.8541  0.1591  0.4302
  160SAPE   C1217874   1.079   6.302   6.559 -0.1576  0.8550 -0.2967
  160SAPE  H12A17875   1.173   6.336   6.509 -0.2055  0.7972 -0.4227
  160SAPE  H12B17876   1.094   6.210   6.619  1.8985 -0.4129 -2.5810
  160SAPE   C1117877   1.019   6.416   6.638 -0.0090 -0.7798 -0.8772
  160SAPE  H11A17878   1.093   6.432   6.719  2.0998  0.2006 -2.8865
  160SAPE  H11B17879   0.921   6.398   6.688 -0.0431  3.2187  0.8748
  160SAPE     P17880   0.876   6.592   6.489 -0.0383 -0.2417 -0.2477
  160SAPE   O1317881   0.909   6.706   6.398 -0.2156  0.9192  0.1192
  160SAPE   O1417882   0.811   6.474   6.421  0.2124 -0.2968  0.3213
  160SAPE   O1217883   1.012   6.527   6.550 -0.1124  0.5578  0.5702
  160SAPE   O1117884   0.800   6.629   6.619 -0.1954 -0.7820  0.7692
  160SAPE    C117885   0.661   6.611   6.619 -0.1003 -0.7146 -0.0099
  160SAPE    HA17886   0.610   6.670   6.540  0.2298 -1.1613 -0.5536
  160SAPE    HB17887   0.625   6.507   6.609  1.4766 -1.0626 -3.3160
  160SAPE    C217888   0.590   6.654   6.752  0.3235 -0.7881 -0.3096
  160SAPE    HS17889   0.612   6.761   6.770  1.1353 -1.0780  0.4754
  160SAPE   O2117890   0.638   6.563   6.851 -0.1703  0.3503 -0.3325
  160SAPE   C2117891   0.743   6.603   6.918 -0.2110 -0.0151  0.1024
  160SAPE   O2217892   0.811   6.702   6.896  0.3434 -0.2277  0.0180
  160SAPE   C2217893   0.786   6.502   7.030 -0.3946 -0.2490 -0.5694
  160SAPE   H2R17894   0.697   6.472   7.088  0.1358 -1.9257 -0.5519
  160SAPE   H2S17895   0.816   6.411   6.974  2.1515  0.4419 -0.4698
  160SAPE    C317896   0.434   6.650   6.745 -0.1186 -0.1119 -0.1352
  160SAPE    HX17897   0.409   6.548   6.709  1.3661 -1.0346  1.3320
  160SAPE    HY17898   0.411   6.726   6.667  2.6020 -0.2198 -1.1245
  160SAPE   O3117899   0.367   6.672   6.879  0.8783 -0.1981 -0.0014
  160SAPE   C3117900   0.354   6.566   6.947 -0.2339 -0.0573 -0.3155
  160SAPE   O3217901   0.351   6.448   6.915 -0.8126 -1.0560  0.0383
  160SAPE   C3217902   0.349   6.618   7.090 -0.1243 -1.3075  0.1597
  160SAPE   H2X17903   0.259   6.580   7.143 -1.8281  1.7154 -0.3413
  160SAPE   H2Y17904   0.344   6.729   7.095  0.8778 -1.2695  0.4325
  160SAPE   C2317905   0.898   6.563   7.112  0.2978  0.1238  0.3157
  160SAPE   H3R17906   0.864   6.645   7.180  2.1821  0.0436  1.4378
  160SAPE   H3S17907   0.979   6.592   7.041 -1.1386 -0.6025 -1.6986
  160SAPE   C2417908   0.969   6.450   7.199 -0.4467 -0.3800 -0.6576
  160SAPE   H4R17909   0.969   6.351   7.149 -0.3916 -0.7549  0.0645
  160SAPE   H4S17910   0.906   6.432   7.289 -0.9394  2.0794 -0.4442
  160SAPE   C2517911   1.101   6.498   7.251  0.5822 -0.2516 -0.5723
  160SAPE   H5R17912   1.178   6.518   7.175  0.9648  3.6048  0.5937
  160SAPE   C2617913   1.150   6.508   7.378 -0.1388 -0.0504  0.2304
  160SAPE   H6R17914   1.254   6.543   7.388 -0.7788  1.6532  1.3865
  160SAPE   C2717915   1.095   6.479   7.517 -0.4318  0.0677 -0.6971
  160SAPE   H7R17916   0.992   6.438   7.522 -0.2900 -0.4102 -1.6084
  160SAPE   H7S17917   1.095   6.576   7.572 -0.0879 -0.5530  0.4300
  160SAPE   C2817918   1.195   6.375   7.572  0.4415  0.4917 -0.5700
  160SAPE   H8R17919   1.193   6.277   7.522 -0.6759  0.2329 -0.0559
  160SAPE   C2917920   1.252   6.393   7.692  1.0556  0.6909 -0.1031
  160SAPE   H9R17921   1.338   6.324   7.697  1.2654  0.8755 -0.9396
  160SAPE  C21017922   1.237   6.517   7.784  0.4687 -0.0423  0.2210
  160SAPE  H10R17923   1.141   6.497   7.837  0.2904 -1.2092 -0.5181
  160SAPE  H10S17924   1.219   6.611   7.727  0.9658 -0.2552 -0.2931
  160SAPE  C21117925   1.356   6.528   7.872  0.2233 -0.1402  0.3668
  160SAPE  H11R17926   1.393   6.433   7.913 -1.4478 -0.6466  0.7718
  160SAPE  C21217927   1.414   6.644   7.920 -0.3619  0.3215  0.2579
  160SAPE  H12R17928   1.501   6.643   7.988  0.9731  2.1505 -1.2903
  160SAPE  C21317929   1.365   6.781   7.878  0.1146  0.2008 -0.6734
  160SAPE  H13R17930   1.254   6.788   7.878  0.1778  1.4314 -0.0521
  160SAPE  H13S17931   1.411   6.806   7.780  1.7421 -0.4280 -0.0995
  160SAPE  C21417932   1.400   6.881   7.986  0.5139 -0.6159 -0.5607
  160SAPE  H14R17933   1.340   6.881   8.078  2.4235  0.5853  0.7590
  160SAPE  C21517934   1.495   6.973   7.983  0.0242 -0.5179 -0.1311
  160SAPE  H15R17935   1.497   7.041   8.069 -0.8829 -1.7238  0.8910
  160SAPE  C21617936   1.594   7.007   7.869  0.2218 -0.1424  0.4259
  160SAPE  H16R17937   1.610   7.116   7.857  0.7732  0.1515  3.0926
  160SAPE  H16S17938   1.544   6.973   7.776 -0.1151 -2.8106  1.4897
  160SAPE  C21717939   1.736   6.939   7.877  0.2779 -0.7564 -0.7069
  160SAPE  H17R17940   1.783   6.917   7.778  2.8377  2.5414 -0.3766
  160SAPE  H17S17941   1.723   6.843   7.931  0.8479  0.0576  0.9219
  160SAPE  C21817942   1.842   7.006   7.967 -0.1433  0.6045  0.0012
  160SAPE  H18R17943   1.794   7.010   8.067 -0.0767  2.5183  0.0010
  160SAPE  H18S17944   1.870   7.113   7.953  2.0523 -0.1962 -2.6620
  160SAPE  C21917945   1.977   6.929   7.959  0.2181  0.3527  0.0328
  160SAPE  H19R17946   2.009   6.922   7.853 -0.1200  1.9442 -0.2052
  160SAPE  H19S17947   1.963   6.822   7.988  1.0029  0.1655 -0.2513
  160SAPE  C22017948   2.088   6.995   8.038  0.2330  0.2998  0.1352
  160SAPE  H20R17949   2.064   7.015   8.145 -0.0461  1.3595 -0.1115
  160SAPE  H20S17950   2.120   7.086   7.984  3.0206 -0.5373  0.2298
  160SAPE  H20T17951   2.178   6.930   8.034  0.8237  1.0692  0.5911
  160SAPE   C3317952   0.467   6.565   7.173  0.3293  0.2152 -0.4097
  160SAPE   H3X17953   0.560   6.616   7.143 -1.3121  5.0104  1.6864
  160SAPE   H3Y17954   0.470   6.454   7.159 -0.9373  0.0887  0.1538
  160SAPE   C3417955   0.461   6.618   7.318 -0.3639 -0.0634 -0.0620
  160SAPE   H4X17956   0.372   6.569   7.364  0.8755 -1.7164  0.6689
  160SAPE   H4Y17957   0.455   6.729   7.331  0.9348 -0.2891  3.4342
  160SAPE   C3517958   0.574   6.571   7.408  0.5964 -0.4249 -0.1094
  160SAPE   H5X17959   0.640   6.510   7.343 -0.7880 -1.2203 -0.8043
  160SAPE   H5Y17960   0.527   6.499   7.478 -0.2556  0.1349 -0.1006
  160SAPE   C3617961   0.645   6.683   7.481 -0.2357 -0.5585 -0.0413
  160SAPE   H6X17962   0.566   6.757   7.506 -0.2987  0.5818 -3.1726
  160SAPE   H6Y17963   0.716   6.733   7.412 -1.8818 -0.3849 -1.6866
  160SAPE   C3717964   0.712   6.637   7.612  0.2458  0.5913 -1.0039
  160SAPE   H7X17965   0.761   6.538   7.598  0.0405  0.3792 -0.2505
  160SAPE   H7Y17966   0.637   6.633   7.693 -0.9252 -0.9171 -2.0888
  160SAPE   C3817967   0.816   6.737   7.659 -0.3752 -0.1010 -0.4234
  160SAPE   H8X17968   0.780   6.842   7.655 -0.4598 -0.0833 -4.8658
  160SAPE   H8Y17969   0.886   6.742   7.573 -0.0356  0.3746 -0.1253
  160SAPE   C3917970   0.885   6.707   7.790  0.0778 -0.4759  0.1002
  160SAPE   H9X17971   0.960   6.627   7.771 -0.2271 -0.3286 -1.9764
  160SAPE   H9Y17972   0.814   6.667   7.865 -0.4769  0.4439  0.0794
  160SAPE  C31017973   0.940   6.840   7.846 -0.1167 -0.9936 -0.0762
  160SAPE  H10X17974   0.862   6.918   7.836  1.0417  0.5953  2.3927
  160SAPE  H10Y17975   1.030   6.863   7.785 -0.1562 -0.8871 -0.0939
  160SAPE  C31117976   0.973   6.829   7.997 -0.1365  0.3358  0.4861
  160SAPE  H11X17977   1.049   6.750   8.011 -0.7065  0.0025  1.8874
  160SAPE  H11Y17978   0.888   6.792   8.058 -0.3471  1.5845  0.9890
  160SAPE  C31217979   1.028   6.963   8.056  0.1279  0.7490 -0.0670
  160SAPE  H12X17980   0.954   7.044   8.038  1.1764  2.0674  1.2773
  160SAPE  H12Y17981   1.117   6.993   7.997 -0.6801  0.1692 -1.6411
  160SAPE  C31317982   1.063   6.951   8.206 -0.0806  0.0886  0.2355
  160SAPE  H13X17983   1.114   6.853   8.209 -0.0050  0.1256  3.4252
  160SAPE  H13Y17984   0.967   6.936   8.260 -0.2366 -0.3965 -0.1738
  160SAPE  C31417985   1.142   7.061   8.247 -0.3205 -0.3835  0.0120
  160SAPE  H14X17986   1.078   7.151   8.244 -2.8290 -2.0833 -0.5740
  160SAPE  H14Y17987   1.229   7.078   8.180 -0.7187  0.3115 -0.3360
  160SAPE  C31517988   1.218   7.042   8.378 -0.3427  0.0015  0.0459
  160SAPE  H15X17989   1.149   6.996   8.451 -0.1590 -1.5587 -0.7095
  160SAPE  H15Y17990   1.265   7.133   8.421 -0.3642 -0.4364  1.0043
  160SAPE  C31617991   1.331   6.943   8.359  0.3738  0.0096  0.1199
  160SAPE  H16X17992   1.406   6.988   8.290 -0.3010  1.7821  0.4775
  160SAPE  H16Y17993   1.288   6.845   8.333 -0.1588 -0.2564  1.8494
  160SAPE  C31717994   1.416   6.913   8.489  0.0560  0.2771  0.3657
  160SAPE  H17X17995   1.485   6.998   8.508 -0.5348  0.4237  1.9789
  160SAPE  H17Y17996   1.483   6.831   8.453  1.8284  0.5426  2.8302
  160SAPE  C31817997   1.340   6.877   8.617 -0.2278  0.3710  0.5223
  160SAPE  H18X17998   1.277   6.968   8.628 -2.5991 -0.7060 -2.7097
  160SAPE  H18Y17999   1.415   6.855   8.696  1.3133  0.6331 -0.8214
  160SAPE  H18Z18000   1.277   6.789   8.595  1.2979 -0.4167 -0.8860
  161SAPE     N18001   2.578   4.395   6.180  0.0739 -0.2964 -0.6648
  161SAPE   HN118002   2.640   4.468   6.221  1.0525 -1.4161 -0.1086
  161SAPE   HN218003   2.647   4.337   6.128  1.6494 -1.7143  2.6792
  161SAPE   HN318004   2.512   4.442   6.115 -1.0001 -2.1311 -0.9794
  161SAPE   C1218005   2.507   4.309   6.287 -0.0816 -0.2840  0.2532
  161SAPE  H12A18006   2.403   4.348   6.296  0.2005  1.2738 -2.1861
  161SAPE  H12B18007   2.566   4.330   6.378 -2.5159 -0.3551  1.9347
  161SAPE   C1118008   2.503   4.159   6.257 -0.9923  1.0240 -0.6684
  161SAPE  H11A18009   2.428   4.150   6.176 -3.7465  2.6211  1.5489
  161SAPE  H11B18010   2.456   4.112   6.345 -1.0592  1.9238 -0.2179
  161SAPE     P18011   2.704   4.007   6.338 -0.3720 -0.1691  0.3265
  161SAPE   O1318012   2.626   3.881   6.336  0.0204  0.2855 -0.1314
  161SAPE   O1418013   2.838   3.995   6.282 -1.0158 -0.4884 -0.4257
  161SAPE   O1218014   2.639   4.103   6.231 -0.0549 -0.2380  0.3082
  161SAPE   O1118015   2.731   4.065   6.481 -0.7643  0.0923 -0.7725
  161SAPE    C118016   2.820   4.170   6.510 -1.1149  0.0238 -0.2859
  161SAPE    HA18017   2.916   4.167   6.454 -1.2771  3.4240 -0.9565
  161SAPE    HB18018   2.772   4.269   6.494 -0.1798  0.9206  1.9022
  161SAPE    C218019   2.852   4.167   6.660 -0.3340 -0.4757  0.4002
  161SAPE    HS18020   2.900   4.068   6.677 -0.5908 -0.7686 -0.5475
  161SAPE   O2118021   2.726   4.185   6.734  0.3984 -0.7475 -0.2443
  161SAPE   C2118022   2.741   4.139   6.859  0.3076 -0.3107 -0.1628
  161SAPE   O2218023   2.830   4.067   6.898  0.2950  0.0609  0.2986
  161SAPE   C2218024   2.624   4.183   6.960 -0.7714  0.5640  0.4530
  161SAPE   H2R18025   2.597   4.290   6.953 -1.7213  0.6092  3.5076
  161SAPE   H2S18026   2.538   4.120   6.927 -0.2653 -1.0389  2.0338
  161SAPE    C318027   2.957   4.281   6.694  0.1008  0.2155  0.8656
  161SAPE    HX18028   2.922   4.376   6.649 -0.7837 -0.1060  0.8665
  161SAPE    HY18029   3.053   4.261   6.640  0.0271  1.7396  0.1100
  161SAPE   O3118030   2.982   4.309   6.832  0.1533  0.1547 -0.0464
  161SAPE   C3118031   3.087   4.253   6.887 -0.2957  0.9440  0.9465
  161SAPE   O3218032   3.156   4.163   6.835  0.1888  0.3318  0.5980
  161SAPE   C3218033   3.100   4.308   7.029 -0.1523  0.2380 -0.1733
  161SAPE   H2X18034   3.010   4.284   7.088  0.8102 -0.7706  0.9421
  161SAPE   H2Y18035   3.106   4.419   7.023 -3.0408  0.3826 -2.4550
  161SAPE   C2318036   2.641   4.134   7.107 -0.6473  0.6633  0.6524
  161SAPE   H3R18037   2.721   4.199   7.150 -1.8680  1.3724  1.9276
  161SAPE   H3S18038   2.693   4.035   7.103  0.5737  1.2929  0.6394
  161SAPE   C2418039   2.516   4.145   7.200 -0.1188  0.2305 -0.0287
  161SAPE   H4R18040   2.549   4.095   7.294 -2.7689 -1.5734  0.0533
  161SAPE   H4S18041   2.432   4.079   7.168 -2.0416  2.2656  0.5920
  161SAPE   C2518042   2.471   4.285   7.219  0.1663  0.0200  0.2478
  161SAPE   H5R18043   2.420   4.318   7.127  0.4228 -0.0089  0.0937
  161SAPE   C2618044   2.482   4.371   7.315  0.0179  0.1275 -0.2439
  161SAPE   H6R18045   2.430   4.468   7.310 -3.5457 -1.5193  1.2891
  161SAPE   C2718046   2.548   4.343   7.449 -0.7003  0.0466  0.1006
  161SAPE   H7R18047   2.606   4.431   7.483  0.3447 -1.0541  1.2652
  161SAPE   H7S18048   2.633   4.272   7.445 -0.3217  0.5047  0.0335
  161SAPE   C2818049   2.449   4.305   7.551  0.8688  0.1747 -0.0607
  161SAPE   H8R18050   2.413   4.202   7.541  0.6481  0.4010 -2.0213
  161SAPE   C2918051   2.382   4.390   7.641  0.1576 -0.3831  1.1937
  161SAPE   H9R18052   2.315   4.345   7.716  0.0694 -4.9031 -1.2262
  161SAPE  C21018053   2.393   4.540   7.655 -0.6607 -0.3611  0.2241
  161SAPE  H10R18054   2.414   4.589   7.557 -1.2346  1.5684  1.0232
  161SAPE  H10S18055   2.488   4.570   7.705  0.1619 -1.9032 -0.3592
  161SAPE  C21118056   2.290   4.609   7.735 -0.1725 -0.1854 -1.1281
  161SAPE  H11R18057   2.222   4.666   7.670  0.9148 -0.2355 -2.3573
  161SAPE  C21218058   2.268   4.594   7.866 -0.1115 -0.4429 -0.3589
  161SAPE  H12R18059   2.178   4.648   7.899 -0.6883 -0.5601 -1.6488
  161SAPE  C21318060   2.347   4.510   7.967 -0.3832  0.0172 -0.3684
  161SAPE  H13R18061   2.451   4.509   7.927 -0.6578  0.8752 -1.1288
  161SAPE  H13S18062   2.307   4.407   7.980 -0.8470  0.5069  2.8332
  161SAPE  C21418063   2.358   4.567   8.097 -0.5376  0.2298 -0.5015
  161SAPE  H14R18064   2.357   4.677   8.104  0.4503  0.4646 -3.0686
  161SAPE  C21518065   2.373   4.513   8.222  0.4950  0.0086 -0.6210
  161SAPE  H15R18066   2.380   4.571   8.315 -0.1027 -1.5456  0.4333
  161SAPE  C21618067   2.368   4.363   8.238 -0.5692 -0.1220 -0.3901
  161SAPE  H16R18068   2.273   4.329   8.192 -0.5113 -2.3289  0.9981
  161SAPE  H16S18069   2.347   4.341   8.345  0.5672  1.4649  0.1949
  161SAPE  C21718070   2.491   4.285   8.184  0.5895  0.0096  0.3899
  161SAPE  H17R18071   2.585   4.328   8.224  2.0706 -1.9204 -0.8274
  161SAPE  H17S18072   2.485   4.300   8.074 -2.5269  2.3086  0.7407
  161SAPE  C21818073   2.509   4.134   8.244  0.9470 -0.6421 -0.0138
  161SAPE  H18R18074   2.605   4.097   8.204  0.7831 -2.7344  1.3634
  161SAPE  H18S18075   2.428   4.069   8.206  1.1608  0.3585 -2.3061
  161SAPE  C21918076   2.507   4.105   8.391 -0.2252 -0.0085 -0.1119
  161SAPE  H19R18077   2.410   4.097   8.445 -0.6294 -1.3991 -0.9885
  161SAPE  H19S18078   2.561   4.193   8.431  0.1956  0.4135 -1.5404
  161SAPE  C22018079   2.579   3.974   8.428 -0.3815 -0.7860  0.0998
  161SAPE  H20R18080   2.585   3.954   8.538  4.4586 -1.5683 -0.1200
  161SAPE  H20S18081   2.681   3.974   8.385  0.7439  1.9226  2.4155
  161SAPE  H20T18082   2.527   3.881   8.395  1.7873 -2.2451  0.6119
  161SAPE   C3318083   3.215   4.245   7.107  0.2816  0.2206  0.0701
  161SAPE   H3X18084   3.313   4.293   7.085 -0.0864  0.9742  0.0208
  161SAPE   H3Y18085   3.236   4.142   7.073 -1.6485  0.1936 -1.1817
  161SAPE   C3418086   3.200   4.244   7.260  0.0399 -0.3858 -0.0148
  161SAPE   H4X18087   3.142   4.336   7.286  0.1491  0.8141 -3.5249
  161SAPE   H4Y18088   3.293   4.243   7.320 -0.1625 -0.0863  0.3081
  161SAPE   C3518089   3.117   4.123   7.308  0.5728 -0.2624 -0.4546
  161SAPE   H5X18090   3.174   4.035   7.344 -0.2056  0.0038  1.5642
  161SAPE   H5Y18091   3.047   4.083   7.231 -1.0752 -2.3834  1.9645
  161SAPE   C3618092   3.026   4.157   7.431 -0.0441 -0.1693 -0.5901
  161SAPE   H6X18093   2.928   4.113   7.403 -0.7231  0.5202  0.6019
  161SAPE   H6Y18094   2.998   4.262   7.456 -1.7796 -0.9500  1.0530
  161SAPE   C3718095   3.070   4.091   7.558 -0.5420  0.0905  0.2130
  161SAPE   H7X18096   3.166   4.137   7.588 -0.6715 -0.6695  1.8868
  161SAPE   H7Y18097   3.102   3.986   7.542  1.7606  0.5726  1.2108
  161SAPE   C3818098   2.967   4.107   7.670  0.0204  0.1366  0.2851
  161SAPE   H8X18099   2.880   4.042   7.647  0.8525 -1.0700  0.4986
  161SAPE   H8Y18100   2.930   4.211   7.687  0.4609  0.1552  1.1987
  161SAPE   C3918101   3.023   4.056   7.804  0.1565  0.3057  0.4705
  161SAPE   H9X18102   3.077   4.140   7.852 -0.4764  1.0330 -0.0612
  161SAPE   H9Y18103   3.088   3.969   7.782 -1.6958 -1.6239  2.0612
  161SAPE  C31018104   2.913   4.015   7.902 -0.1467  1.1502 -0.1634
  161SAPE  H10X18105   2.874   3.913   7.884  2.4081  0.5098 -3.0150
  161SAPE  H10Y18106   2.821   4.076   7.884 -1.1601 -0.5799 -1.1671
  161SAPE  C31118107   2.948   4.019   8.056  0.0423 -0.2511  0.0353
  161SAPE  H11X18108   3.043   3.964   8.073  0.2666 -0.0998 -0.6744
  161SAPE  H11Y18109   2.870   3.957   8.105 -0.2905  0.3108  0.2192
  161SAPE  C31218110   2.931   4.156   8.123  0.0457 -0.3872  0.5101
  161SAPE  H12X18111   2.827   4.191   8.108 -0.2867 -0.5502  2.2369
  161SAPE  H12Y18112   3.012   4.230   8.104 -0.4327  0.1144  0.4085
  161SAPE  C31318113   2.948   4.129   8.277  0.2013  0.0152  0.5638
  161SAPE  H13X18114   3.050   4.085   8.285 -0.3397 -1.3818  0.1139
  161SAPE  H13Y18115   2.878   4.045   8.298 -1.3960  0.7435 -1.5484
  161SAPE  C31418116   2.915   4.240   8.370 -0.1699 -0.5979  0.4286
  161SAPE  H14X18117   2.808   4.266   8.357 -0.8670 -2.5359  1.7919
  161SAPE  H14Y18118   2.977   4.332   8.359  0.4957 -1.0813  0.0321
  161SAPE  C31518119   2.923   4.199   8.519  0.2498 -0.2389 -0.3272
  161SAPE  H15X18120   3.030   4.170   8.529  0.3658 -0.2499 -1.5238
  161SAPE  H15Y18121   2.852   4.116   8.539 -2.5463  1.8512 -0.9913
  161SAPE  C31618122   2.886   4.312   8.616 -0.0018 -0.9650 -0.3666
  161SAPE  H16X18123   2.780   4.344   8.609  0.0934 -0.5769 -0.0422
  161SAPE  H16Y18124   2.936   4.404   8.579 -1.8907  0.0920 -0.3999
  161SAPE  C31718125   2.919   4.285   8.757 -0.0972 -0.8339  0.4205
  161SAPE  H17X18126   2.859   4.200   8.798  0.0208 -1.4913 -0.7181
  161SAPE  H17Y18127   2.871   4.369   8.811  1.4063  0.0877  0.3626
  161SAPE  C31818128   3.069   4.290   8.791 -0.8088 -0.1827 -1.3585
  161SAPE  H18X18129   3.088   4.264   8.898 -1.3666 -3.2591 -1.9201
  161SAPE  H18Y18130   3.103   4.393   8.768 -1.2996  0.0739 -0.9709
  161SAPE  H18Z18131   3.134   4.222   8.733 -2.8912 -2.2173 -1.4425
  162SAPE     N18132   2.696   6.043   5.995  0.0463 -0.4331  0.2088
  162SAPE   HN118133   2.639   5.955   5.991 -1.2683  0.3359  1.1168
  162SAPE   HN218134   2.636   6.118   5.955  0.9031  1.2425  1.9400
  162SAPE   HN318135   2.785   6.021   5.947  1.8961 -1.7626  3.8796
  162SAPE   C1218136   2.742   6.074   6.130  0.6249 -0.1892 -0.3096
  162SAPE  H12A18137   2.789   5.985   6.176  1.3022  0.3305  0.0088
  162SAPE  H12B18138   2.654   6.094   6.195 -1.5422 -3.9812 -1.6993
  162SAPE   C1118139   2.851   6.192   6.128  0.3635  0.1395  0.3271
  162SAPE  H11A18140   2.889   6.205   6.231  1.8269  1.1608 -0.3178
  162SAPE  H11B18141   2.798   6.284   6.094 -2.1413 -1.5911 -0.8073
  162SAPE     P18142   3.079   6.070   6.059 -0.1062  0.0281 -0.2421
  162SAPE   O1318143   3.044   5.934   6.099 -0.4284  0.0675  0.0511
  162SAPE   O1418144   3.174   6.085   5.951 -0.5215  0.5804  0.1718
  162SAPE   O1218145   2.956   6.165   6.025  0.3239 -0.0736  0.2822
  162SAPE   O1118146   3.129   6.145   6.188 -0.4616  0.8300 -0.0346
  162SAPE    C118147   3.198   6.074   6.292 -0.0925  0.0677 -0.3590
  162SAPE    HA18148   3.227   5.969   6.271 -1.4311 -0.3429 -0.2042
  162SAPE    HB18149   3.292   6.131   6.309 -0.8141  0.9950  0.6826
  162SAPE    C218150   3.122   6.074   6.426 -0.2598 -0.2245 -0.4410
  162SAPE    HS18151   3.037   6.005   6.402 -1.1567  1.3473 -2.0290
  162SAPE   O2118152   3.073   6.212   6.452 -0.2158  0.7733 -0.0403
  162SAPE   C2118153   2.944   6.215   6.494  0.7117  0.0592 -0.7176
  162SAPE   O2218154   2.873   6.113   6.499 -0.6216 -0.5236  0.2607
  162SAPE   C2218155   2.905   6.363   6.531  0.0761  0.7941  0.0345
  162SAPE   H2R18156   2.992   6.425   6.561 -0.5995  1.2503  1.1151
  162SAPE   H2S18157   2.858   6.401   6.437 -4.8891 -1.7561  1.1505
  162SAPE    C318158   3.208   6.023   6.543  0.2464 -0.0569  0.6883
  162SAPE    HX18159   3.299   6.086   6.544  1.7554 -1.9759 -2.4449
  162SAPE    HY18160   3.249   5.923   6.520 -1.9030 -0.5305 -1.5945
  162SAPE   O3118161   3.142   6.023   6.674  0.6223  0.7754  0.3082
  162SAPE   C3118162   3.106   5.906   6.718  0.8420 -0.0972 -0.2442
  162SAPE   O3218163   3.153   5.796   6.688 -0.1590 -0.3226 -0.5395
  162SAPE   C3218164   2.975   5.926   6.805  0.1716  0.0370 -0.0208
  162SAPE   H2X18165   2.895   5.987   6.759  0.4714  0.8993  0.5806
  162SAPE   H2Y18166   3.008   5.992   6.887 -2.4782  0.9599  0.3789
  162SAPE   C2318167   2.786   6.391   6.625 -0.6028 -0.2942 -0.4896
  162SAPE   H3R18168   2.690   6.359   6.578 -0.7553  1.4633 -1.4518
  162SAPE   H3S18169   2.775   6.499   6.646 -1.4424 -0.4238 -0.1916
  162SAPE   C2418170   2.802   6.309   6.754 -0.2897  0.0790  0.9769
  162SAPE   H4R18171   2.817   6.201   6.730 -0.7341 -0.0442  1.2538
  162SAPE   H4S18172   2.704   6.310   6.805 -0.2858 -0.6332  1.0121
  162SAPE   C2518173   2.931   6.348   6.824  0.0812  0.5786  0.5008
  162SAPE   H5R18174   3.019   6.355   6.758  0.9105 -2.1095  1.2023
  162SAPE   C2618175   2.940   6.382   6.955 -0.2229 -1.4259  0.1877
  162SAPE   H6R18176   3.044   6.389   6.992 -0.4094 -0.0051  0.5090
  162SAPE   C2718177   2.831   6.403   7.060  0.2261  0.4060 -0.0961
  162SAPE   H7R18178   2.735   6.451   7.029  0.0536 -0.2094 -0.5333
  162SAPE   H7S18179   2.883   6.469   7.134  3.0980  1.2668 -2.6792
  162SAPE   C2818180   2.786   6.276   7.123  0.1688  0.5077  0.3850
  162SAPE   H8R18181   2.763   6.185   7.065 -0.2830 -0.6097  2.1938
  162SAPE   C2918182   2.768   6.262   7.258 -0.0132  0.6141  0.4933
  162SAPE   H9R18183   2.727   6.165   7.288  0.1354  0.8277  1.4079
  162SAPE  C21018184   2.792   6.364   7.367 -0.5983  0.6874  0.6465
  162SAPE  H10R18185   2.874   6.438   7.354  1.0398 -1.4374 -2.5818
  162SAPE  H10S18186   2.834   6.312   7.456 -0.1092 -0.8752 -0.4337
  162SAPE  C21118187   2.653   6.415   7.405 -0.2776  0.0220 -0.4973
  162SAPE  H11R18188   2.595   6.450   7.319 -0.9918 -0.9983 -0.4475
  162SAPE  C21218189   2.605   6.429   7.530 -0.0208  0.6798 -0.1833
  162SAPE  H12R18190   2.508   6.479   7.539 -0.8725 -0.5792 -1.7119
  162SAPE  C21318191   2.678   6.410   7.661  0.2097 -0.0421 -0.2466
  162SAPE  H13R18192   2.759   6.335   7.665 -0.9986 -1.3537  1.5839
  162SAPE  H13S18193   2.605   6.372   7.735 -0.3944  0.2492 -0.6802
  162SAPE  C21418194   2.738   6.532   7.726 -0.0835  0.2200 -0.3810
  162SAPE  H14R18195   2.747   6.619   7.659 -0.8364  1.3205  0.9137
  162SAPE  C21518196   2.762   6.542   7.859  0.3407  0.5458  0.0664
  162SAPE  H15R18197   2.787   6.638   7.905 -0.7999  0.1237  1.6791
  162SAPE  C21618198   2.740   6.429   7.958 -0.2414 -0.2013  0.7356
  162SAPE  H16R18199   2.661   6.358   7.927  0.5920 -1.2602  0.9727
  162SAPE  H16S18200   2.724   6.480   8.056  0.1376  1.9630 -0.2600
  162SAPE  C21718201   2.869   6.344   7.991 -0.8250 -0.2829 -0.4617
  162SAPE  H17R18202   2.914   6.300   7.899  1.4858 -0.2885  0.6015
  162SAPE  H17S18203   2.843   6.267   8.067  3.0291  1.7203  3.3295
  162SAPE  C21818204   2.971   6.435   8.055 -0.3474 -0.0821  0.5420
  162SAPE  H18R18205   2.938   6.478   8.151  0.3714  0.2588  0.6493
  162SAPE  H18S18206   2.992   6.526   7.994 -0.8560 -2.4842 -3.6383
  162SAPE  C21918207   3.105   6.365   8.064 -0.5482 -0.8818 -0.6731
  162SAPE  H19R18208   3.137   6.340   7.961  2.4943 -0.4753  0.0926
  162SAPE  H19S18209   3.084   6.265   8.107  1.1095 -0.8345  0.3071
  162SAPE  C22018210   3.221   6.421   8.150  1.0150 -0.4725 -0.5571
  162SAPE  H20R18211   3.283   6.339   8.192 -0.1305 -1.0178  0.1139
  162SAPE  H20S18212   3.181   6.478   8.236 -0.6917 -1.3328 -0.7305
  162SAPE  H20T18213   3.292   6.479   8.087  0.1553  0.0691 -1.0370
  162SAPE   C3318214   2.909   5.795   6.851  0.0095 -0.2028  0.5709
  162SAPE   H3X18215   2.987   5.728   6.893  1.5830 -1.0222 -3.2111
  162SAPE   H3Y18216   2.873   5.737   6.763 -0.4167  0.9589 -0.0441
  162SAPE   C3418217   2.785   5.815   6.939 -0.3539  0.7045 -0.0106
  162SAPE   H4X18218   2.723   5.724   6.929  0.5415 -0.2886  2.4916
  162SAPE   H4Y18219   2.729   5.900   6.894 -1.2098  0.3948  0.4434
  162SAPE   C3518220   2.833   5.841   7.090  0.9013  0.1481 -0.1591
  162SAPE   H5X18221   2.911   5.920   7.088  1.1426  0.0728  2.5306
  162SAPE   H5Y18222   2.877   5.744   7.123 -0.1801  0.4127  2.2428
  162SAPE   C3618223   2.722   5.882   7.188 -0.2780 -0.2006  0.3624
  162SAPE   H6X18224   2.635   5.815   7.174 -1.3616  1.4306 -1.0640
  162SAPE   H6Y18225   2.679   5.984   7.176 -3.0301 -1.4581 -1.4843
  162SAPE   C3718226   2.771   5.880   7.334 -0.2034 -0.3194  0.5124
  162SAPE   H7X18227   2.837   5.969   7.349 -2.2491  1.8059 -1.9308
  162SAPE   H7Y18228   2.813   5.785   7.372 -0.5808  0.9012  4.4113
  162SAPE   C3818229   2.656   5.907   7.433  0.1715 -0.6693 -0.9311
  162SAPE   H8X18230   2.592   5.816   7.426 -1.1055  0.2568 -1.6931
  162SAPE   H8Y18231   2.600   5.993   7.392  0.5482  0.3440  0.6034
  162SAPE   C3918232   2.708   5.917   7.575  0.0246  0.2372 -0.5896
  162SAPE   H9X18233   2.788   5.992   7.593  0.3953 -0.6601  1.7660
  162SAPE   H9Y18234   2.745   5.818   7.607 -4.0751 -1.1852  0.2700
  162SAPE  C31018235   2.592   5.941   7.669 -0.7469 -0.9140  0.9861
  162SAPE  H10X18236   2.520   5.858   7.659 -0.8610 -1.0136  2.4859
  162SAPE  H10Y18237   2.559   6.039   7.627  2.3190 -0.6332 -1.1712
  162SAPE  C31118238   2.623   5.967   7.820 -0.9843 -0.6213  0.3339
  162SAPE  H11X18239   2.531   5.949   7.879 -1.7362 -0.3809 -0.7381
  162SAPE  H11Y18240   2.655   6.073   7.828  0.6979 -1.1649  1.4068
  162SAPE  C31218241   2.723   5.875   7.893  0.5053 -0.4152  0.6502
  162SAPE  H12X18242   2.727   5.903   8.000  0.3798 -0.2031  0.5994
  162SAPE  H12Y18243   2.818   5.902   7.842 -0.5053  0.2975 -0.9137
  162SAPE  C31318244   2.688   5.724   7.888  0.2651 -0.7102 -0.5494
  162SAPE  H13X18245   2.715   5.693   7.785  0.3920 -0.8151 -0.4875
  162SAPE  H13Y18246   2.585   5.695   7.918  0.4169 -0.4513  0.2364
  162SAPE  C31418247   2.788   5.642   7.979  0.5389  0.0712  0.3618
  162SAPE  H14X18248   2.893   5.677   7.968  0.6493 -0.7684 -1.6947
  162SAPE  H14Y18249   2.789   5.532   7.967  0.0322  0.0007  0.9308
  162SAPE  C31518250   2.763   5.657   8.133 -0.1656 -0.0343  0.1677
  162SAPE  H15X18251   2.664   5.615   8.161 -0.1463  2.1291  4.2002
  162SAPE  H15Y18252   2.761   5.765   8.161  0.1067  0.5209 -1.8342
  162SAPE  C31618253   2.865   5.573   8.219 -0.3547 -0.3379 -0.0334
  162SAPE  H16X18254   2.837   5.598   8.323 -1.2524 -0.3440 -0.2698
  162SAPE  H16Y18255   2.970   5.607   8.202 -0.1001 -1.2414 -0.3441
  162SAPE  C31718256   2.856   5.420   8.199 -0.0107  0.4062 -0.7907
  162SAPE  H17X18257   2.905   5.393   8.103  0.5621  1.9828 -0.9648
  162SAPE  H17Y18258   2.746   5.406   8.193 -0.4476  0.3281  3.7001
  162SAPE  C31818259   2.922   5.341   8.311 -0.1285 -0.1853  0.3789
  162SAPE  H18X18260   2.889   5.363   8.415  2.9268  1.0330  1.2298
  162SAPE  H18Y18261   3.028   5.371   8.330 -0.7881  1.2883  1.9927
  162SAPE  H18Z18262   2.920   5.231   8.300  0.2973 -0.2141  0.5648
  163SAPE     N18263   6.757   4.666   6.569  0.0732 -1.2601  0.4074
  163SAPE   HN118264   6.809   4.618   6.645 -0.2167 -0.4610  1.1273
  163SAPE   HN218265   6.670   4.693   6.620  1.8154  4.0608  1.2253
  163SAPE   HN318266   6.739   4.609   6.485  0.0195  1.6987 -1.7655
  163SAPE   C1218267   6.836   4.784   6.532  0.7631  0.2539 -0.1519
  163SAPE  H12A18268   6.768   4.840   6.464 -0.4901  1.5602  2.0270
  163SAPE  H12B18269   6.921   4.754   6.468  1.4359 -0.7225  1.1437
  163SAPE   C1118270   6.881   4.867   6.651  0.2893  0.5219 -0.6992
  163SAPE  H11A18271   6.797   4.905   6.713 -0.2992  1.3960 -1.9861
  163SAPE  H11B18272   6.920   4.962   6.609 -0.9989  2.0129  1.2722
  163SAPE     P18273   7.137   4.854   6.725 -0.4761  0.1698  0.0251
  163SAPE   O1318274   7.225   4.775   6.810  0.3803  0.6625 -0.4943
  163SAPE   O1418275   7.168   4.856   6.579 -0.2589  0.3910  0.1638
  163SAPE   O1218276   6.984   4.802   6.728  0.6746 -0.0622 -0.1835
  163SAPE   O1118277   7.126   5.005   6.786 -0.5030 -0.1722  0.4555
  163SAPE    C118278   7.243   5.071   6.824 -0.3270  1.0582 -0.3977
  163SAPE    HA18279   7.339   5.018   6.807 -2.1502 -2.1538 -1.4116
  163SAPE    HB18280   7.248   5.174   6.781 -0.6471  0.0738 -2.9823
  163SAPE    C218281   7.243   5.083   6.976  0.1320  0.1203 -0.5121
  163SAPE    HS18282   7.332   5.141   7.009 -0.2484  0.1941  0.4058
  163SAPE   O2118283   7.216   4.953   7.042 -0.3874 -0.4220 -0.0256
  163SAPE   C2118284   7.329   4.892   7.066 -0.4457  0.2769 -0.6668
  163SAPE   O2218285   7.441   4.937   7.052  0.0273  0.4387  0.1239
  163SAPE   C2218286   7.302   4.754   7.110  0.7537 -0.4578  0.6100
  163SAPE   H2R18287   7.196   4.727   7.096  0.6022 -0.4989  1.7863
  163SAPE   H2S18288   7.355   4.694   7.032  0.1097  1.9540 -1.8420
  163SAPE    C318289   7.115   5.166   7.019 -0.1623  0.1434 -0.5219
  163SAPE    HX18290   7.024   5.106   6.999 -0.8318  0.4222  1.4586
  163SAPE    HY18291   7.112   5.262   6.963 -0.0641  1.2264  1.2429
  163SAPE   O3118292   7.130   5.200   7.157  0.3842 -0.9730 -0.2716
  163SAPE   C3118293   7.200   5.309   7.176 -0.4960  0.0728 -0.3279
  163SAPE   O3218294   7.263   5.372   7.094 -0.1840  0.5974  0.2813
  163SAPE   C3218295   7.175   5.363   7.317 -0.0984  0.1422 -0.2535
  163SAPE   H2X18296   7.115   5.457   7.308  0.6643  0.9287  2.0429
  163SAPE   H2Y18297   7.271   5.400   7.360 -1.5339  1.9547  1.6685
  163SAPE   C2318298   7.349   4.728   7.256 -0.5400 -0.2121 -0.5316
  163SAPE   H3R18299   7.459   4.742   7.260 -0.8737  3.2085 -0.2089
  163SAPE   H3S18300   7.324   4.625   7.289 -3.4518  0.3856 -0.6433
  163SAPE   C2418301   7.293   4.824   7.366  0.3565  0.1920  0.1848
  163SAPE   H4R18302   7.296   4.932   7.339 -2.2612  0.8502  2.0798
  163SAPE   H4S18303   7.361   4.799   7.451 -0.4426  0.3854  0.8975
  163SAPE   C2518304   7.152   4.788   7.426 -0.9244  0.5899 -0.2456
  163SAPE   H5R18305   7.085   4.720   7.371  0.0667  0.1627 -0.9398
  163SAPE   C2618306   7.116   4.803   7.554 -0.4547  0.2430 -0.8049
  163SAPE   H6R18307   7.020   4.764   7.591 -0.1053 -0.2556 -0.4045
  163SAPE   C2718308   7.193   4.868   7.670  0.6361  0.6317 -0.4691
  163SAPE   H7R18309   7.133   4.957   7.697 -0.8981 -0.4670 -0.1206
  163SAPE   H7S18310   7.294   4.900   7.635  0.4567  2.2466  0.4132
  163SAPE   C2818311   7.214   4.780   7.792 -0.5246  0.5950 -0.1692
  163SAPE   H8R18312   7.258   4.682   7.769 -1.8818 -0.1448  0.2406
  163SAPE   C2918313   7.195   4.823   7.923 -0.8836 -0.4013 -0.0577
  163SAPE   H9R18314   7.229   4.757   8.004 -0.0033 -0.9743 -0.8777
  163SAPE  C21018315   7.139   4.957   7.975 -0.1254  0.4328  0.3993
  163SAPE  H10R18316   7.161   5.030   7.893  0.7468  1.8400  1.8285
  163SAPE  H10S18317   7.205   4.989   8.058  0.7723  2.5851 -1.0574
  163SAPE  C21118318   6.995   4.962   8.012  0.0842  0.1129 -0.4041
  163SAPE  H11R18319   6.922   4.974   7.931  0.6967  1.5343 -0.7795
  163SAPE  C21218320   6.945   4.960   8.142 -0.3980 -0.0762  0.4175
  163SAPE  H12R18321   6.837   4.979   8.146 -0.5914 -0.5613 -1.4186
  163SAPE  C21318322   7.021   4.954   8.271  0.3040  0.1545  0.4386
  163SAPE  H13R18323   7.125   4.938   8.238  0.0270 -3.5663  0.8828
  163SAPE  H13S18324   6.999   4.866   8.336 -1.0394  0.9765  1.1519
  163SAPE  C21418325   7.001   5.070   8.364  0.7937  0.4322  0.2465
  163SAPE  H14R18326   6.969   5.164   8.316  0.1004 -0.5606 -1.3091
  163SAPE  C21518327   7.040   5.069   8.496 -0.2179  1.4177 -0.3127
  163SAPE  H15R18328   7.016   5.153   8.563  0.1811  0.0870  1.5511
  163SAPE  C21618329   7.096   4.948   8.561 -0.1712 -0.3185  0.0550
  163SAPE  H16R18330   7.176   4.974   8.633  0.9941 -0.6932 -1.0579
  163SAPE  H16S18331   7.147   4.875   8.494  0.3378 -0.2107  0.3240
  163SAPE  C21718332   6.987   4.852   8.628  0.1929  0.3492 -0.3341
  163SAPE  H17R18333   7.010   4.753   8.584  2.5351 -0.5792  2.6884
  163SAPE  H17S18334   6.885   4.885   8.597  0.5683  0.2281 -1.7989
  163SAPE  C21818335   6.995   4.857   8.777  0.3159 -0.2058  0.6481
  163SAPE  H18R18336   6.951   4.954   8.809  1.4420  0.4684  0.1959
  163SAPE  H18S18337   7.100   4.853   8.813  0.6871 -0.0072 -0.3868
  163SAPE  C21918338   6.919   4.743   8.845 -0.1125 -0.1023  0.1917
  163SAPE  H19R18339   6.922   4.656   8.777 -0.1501  1.4683 -1.9160
  163SAPE  H19S18340   6.812   4.776   8.849  0.0950  0.6193 -0.0430
  163SAPE  C22018341   6.962   4.718   8.988 -0.3474  0.1962  0.0925
  163SAPE  H20R18342   6.926   4.623   9.033 -1.3033 -0.3757 -1.7835
  163SAPE  H20S18343   6.914   4.803   9.042  0.7831 -0.1187  1.6698
  163SAPE  H20T18344   7.071   4.730   9.006  0.3898 -0.8650 -3.0721
  163SAPE   C3318345   7.103   5.256   7.412 -0.1742  0.1058 -0.0896
  163SAPE   H3X18346   7.146   5.154   7.399  0.2068  0.3159 -0.4861
  163SAPE   H3Y18347   6.998   5.245   7.377 -0.4792 -1.5853  1.2187
  163SAPE   C3418348   7.089   5.289   7.558  0.2869  0.1891  0.2841
  163SAPE   H4X18349   7.194   5.304   7.592 -0.1934  1.5484  1.2751
  163SAPE   H4Y18350   7.028   5.210   7.607 -0.3782  0.6654  0.2366
  163SAPE   C3518351   7.019   5.424   7.587 -0.7385  0.7931  0.0457
  163SAPE   H5X18352   6.913   5.424   7.554 -1.5243 -0.5259  2.3061
  163SAPE   H5Y18353   7.077   5.505   7.537  0.2030  0.0439 -0.1142
  163SAPE   C3618354   7.024   5.443   7.742 -0.2298 -1.1627 -0.1972
  163SAPE   H6X18355   6.949   5.524   7.755  0.8595 -0.1838  0.2467
  163SAPE   H6Y18356   7.123   5.487   7.768 -0.7895  0.2196 -0.2959
  163SAPE   C3718357   7.009   5.329   7.840  0.7470 -0.4369  0.7096
  163SAPE   H7X18358   7.070   5.242   7.807  0.3154  0.2189 -2.1474
  163SAPE   H7Y18359   6.908   5.288   7.817  0.5466  0.9240 -1.1728
  163SAPE   C3818360   7.025   5.359   7.990 -0.2154 -0.1909 -0.2273
  163SAPE   H8X18361   7.125   5.394   8.024 -0.6868 -0.5947  1.7137
  163SAPE   H8Y18362   7.005   5.262   8.042  2.5806 -0.3835  0.6349
  163SAPE   C3918363   6.911   5.456   8.043  0.5730  1.0975  0.0666
  163SAPE   H9X18364   6.818   5.401   8.016  0.1521  2.7387 -2.0864
  163SAPE   H9Y18365   6.910   5.548   7.982 -0.6250  1.6344  0.8577
  163SAPE  C31018366   6.919   5.489   8.194 -0.2397  0.0994  0.9897
  163SAPE  H10X18367   7.013   5.541   8.222  0.3014  0.2573 -0.9885
  163SAPE  H10Y18368   6.912   5.394   8.252 -1.5731 -1.8781 -2.1646
  163SAPE  C31118369   6.806   5.587   8.241  0.7396  0.1666 -0.3334
  163SAPE  H11X18370   6.810   5.584   8.352 -1.1150  0.6983 -0.2211
  163SAPE  H11Y18371   6.711   5.541   8.204  0.5528  0.5808 -0.3679
  163SAPE  C31218372   6.815   5.732   8.176 -0.4117 -0.1707  0.0642
  163SAPE  H12X18373   6.743   5.735   8.092  0.7282  1.9580 -0.9357
  163SAPE  H12Y18374   6.918   5.735   8.133 -0.4881 -3.0464 -0.5091
  163SAPE  C31318375   6.795   5.848   8.271 -0.3310 -0.5312  0.2758
  163SAPE  H13X18376   6.886   5.870   8.332 -0.7119  1.3206  0.2546
  163SAPE  H13Y18377   6.712   5.828   8.342 -1.5524  0.4383 -0.8267
  163SAPE  C31418378   6.743   5.976   8.208  0.2545 -0.1584 -0.3430
  163SAPE  H14X18379   6.645   5.981   8.157  0.9436  0.1380 -1.6992
  163SAPE  H14Y18380   6.815   6.019   8.135 -0.4528 -0.0196 -0.9633
  163SAPE  C31518381   6.744   6.093   8.309  0.0546  0.0481  0.6162
  163SAPE  H15X18382   6.711   6.182   8.250 -0.2364 -0.1805  0.4266
  163SAPE  H15Y18383   6.850   6.100   8.340  0.1772 -1.6483  0.7022
  163SAPE  C31618384   6.648   6.069   8.434 -0.1091  0.3365 -0.3121
  163SAPE  H16X18385   6.704   6.021   8.517  1.4697  0.9716 -0.9606
  163SAPE  H16Y18386   6.567   6.004   8.395  0.9415  0.1688 -2.4104
  163SAPE  C31718387   6.591   6.203   8.483  0.0753  0.3192  0.5677
  163SAPE  H17X18388   6.521   6.184   8.567 -0.4887 -0.6661 -0.0983
  163SAPE  H17Y18389   6.534   6.251   8.401 -0.4355 -0.7258  0.2901
  163SAPE  C31818390   6.695   6.300   8.527  0.2977  0.4589 -0.1608
  163SAPE  H18X18391   6.758   6.329   8.440  0.9502 -0.2257  0.0753
  163SAPE  H18Y18392   6.765   6.253   8.600  0.3824 -0.4662 -0.8191
  163SAPE  H18Z18393   6.659   6.391   8.579  3.0451  1.4279  0.2273
  164SAPE     N18394   2.392   1.785   6.036  1.0178 -0.2239  0.3838
  164SAPE   HN118395   2.293   1.757   6.020  0.3083  1.5922  1.2407
  164SAPE   HN218396   2.386   1.837   6.126 -0.2943 -1.9840  1.3764
  164SAPE   HN318397   2.425   1.844   5.956 -1.5289  0.8734  0.0351
  164SAPE   C1218398   2.476   1.666   6.065  0.2368  0.1028  0.2103
  164SAPE  H12A18399   2.579   1.690   6.098  0.6518 -0.8652 -0.3627
  164SAPE  H12B18400   2.474   1.605   5.973 -0.3630  0.9115 -0.3299
  164SAPE   C1118401   2.408   1.583   6.178  0.3516 -1.0212 -0.2859
  164SAPE  H11A18402   2.426   1.652   6.263  1.3565  3.1135 -3.5309
  164SAPE  H11B18403   2.473   1.495   6.198  2.7369  0.6427 -0.3057
  164SAPE     P18404   2.211   1.419   6.115  0.2209 -0.4714 -0.3875
  164SAPE   O1318405   2.071   1.439   6.073  0.5663 -0.4446  0.1074
  164SAPE   O1418406   2.301   1.363   6.013 -0.5694  0.1717 -0.0091
  164SAPE   O1218407   2.269   1.555   6.162 -0.1263 -0.1561  0.0308
  164SAPE   O1118408   2.215   1.340   6.249  0.5478  0.4348  0.4204
  164SAPE    C118409   2.141   1.381   6.358  0.3365  0.0174 -0.9905
  164SAPE    HA18410   2.053   1.445   6.336  0.1611 -0.4560 -1.6639
  164SAPE    HB18411   2.104   1.286   6.401  0.9059 -0.6891 -2.0262
  164SAPE    C218412   2.228   1.453   6.472  0.3620 -0.4782  0.6524
  164SAPE    HS18413   2.301   1.524   6.428  0.0535  0.2286  1.2613
  164SAPE   O2118414   2.285   1.358   6.565  0.1064 -0.4681  0.4765
  164SAPE   C2118415   2.411   1.386   6.611 -0.2078 -0.3495  0.2322
  164SAPE   O2218416   2.476   1.484   6.596  0.2101 -0.4917 -0.0110
  164SAPE   C2218417   2.459   1.275   6.699  0.0405  0.8823 -0.2067
  164SAPE   H2R18418   2.384   1.247   6.776 -2.8401  2.2494 -2.3182
  164SAPE   H2S18419   2.474   1.185   6.636 -0.8236  0.6373 -0.0649
  164SAPE    C318420   2.131   1.539   6.548  0.0224 -0.5300 -0.3202
  164SAPE    HX18421   2.046   1.482   6.592  0.4205 -1.4982 -0.7591
  164SAPE    HY18422   2.076   1.605   6.477 -2.3857 -2.1784 -0.1119
  164SAPE   O3118423   2.202   1.623   6.645 -0.1722 -0.0314  0.4279
  164SAPE   C3118424   2.266   1.730   6.597 -0.6527 -0.1971 -0.7661
  164SAPE   O3218425   2.250   1.768   6.481 -0.7770  1.1182  0.5608
  164SAPE   C3218426   2.350   1.797   6.702 -0.1716 -0.0649 -0.2329
  164SAPE   H2X18427   2.408   1.711   6.742 -1.5647 -1.3689 -0.9011
  164SAPE   H2Y18428   2.287   1.829   6.789 -0.9392 -0.3133 -0.6883
  164SAPE   C2318429   2.602   1.306   6.766 -0.4786 -0.0830 -0.2206
  164SAPE   H3R18430   2.605   1.399   6.827 -0.9973 -0.4989  0.4585
  164SAPE   H3S18431   2.677   1.318   6.685  1.1151  2.7814  1.5093
  164SAPE   C2418432   2.666   1.196   6.860 -0.5316 -0.1371  0.2535
  164SAPE   H4R18433   2.771   1.227   6.877 -0.2150 -0.0098 -1.6730
  164SAPE   H4S18434   2.679   1.097   6.811 -0.7044  0.0103 -0.0948
  164SAPE   C2518435   2.594   1.183   6.996  0.5510 -0.1622 -0.2138
  164SAPE   H5R18436   2.486   1.167   6.985  0.3726  0.7929  0.0081
  164SAPE   C2618437   2.648   1.208   7.121  0.2314 -0.3119 -0.2222
  164SAPE   H6R18438   2.578   1.197   7.205 -0.5284 -0.9828 -0.9211
  164SAPE   C2718439   2.782   1.246   7.163 -0.9425 -0.1589  0.4665
  164SAPE   H7R18440   2.784   1.345   7.213  0.2488 -1.5693  3.4437
  164SAPE   H7S18441   2.860   1.249   7.084 -1.0765 -0.2372  0.3321
  164SAPE   C2818442   2.821   1.149   7.272 -0.4675  0.5554  0.7202
  164SAPE   H8R18443   2.875   1.056   7.248 -1.0462  0.6273 -0.9684
  164SAPE   C2918444   2.810   1.174   7.406  0.5742 -0.5810 -0.0428
  164SAPE   H9R18445   2.840   1.096   7.477  0.2832 -0.9776 -0.3541
  164SAPE  C21018446   2.746   1.298   7.467 -0.5200 -0.3170 -0.3044
  164SAPE  H10R18447   2.640   1.272   7.491 -0.5345 -0.8190 -0.8867
  164SAPE  H10S18448   2.751   1.384   7.397  1.7711 -0.4915 -0.4197
  164SAPE  C21118449   2.817   1.340   7.595 -0.6860  0.2621 -0.4623
  164SAPE  H11R18450   2.920   1.379   7.590  0.2668 -0.9250  4.4926
  164SAPE  C21218451   2.775   1.330   7.720 -0.1624 -0.3353 -0.1050
  164SAPE  H12R18452   2.858   1.331   7.792  0.0304 -2.7430 -0.1931
  164SAPE  C21318453   2.641   1.282   7.776  0.0493  0.4376  0.2378
  164SAPE  H13R18454   2.638   1.173   7.796 -1.3200  0.4881  0.3711
  164SAPE  H13S18455   2.564   1.295   7.697 -0.8145 -0.4643  0.9013
  164SAPE  C21418456   2.577   1.351   7.892  0.4545 -0.3171 -0.3180
  164SAPE  H14R18457   2.636   1.437   7.927 -0.8031  0.6053 -0.4058
  164SAPE  C21518458   2.451   1.331   7.942  0.1995 -0.7652 -0.2718
  164SAPE  H15R18459   2.421   1.381   8.036  3.2849  1.9744 -0.5465
  164SAPE  C21618460   2.353   1.230   7.890  0.3410 -0.3914 -0.2517
  164SAPE  H16R18461   2.407   1.160   7.822 -0.0315 -0.9416  0.0063
  164SAPE  H16S18462   2.273   1.284   7.833 -0.1796 -1.0330 -0.1472
  164SAPE  C21718463   2.286   1.156   8.009 -0.4022 -0.2177  0.7508
  164SAPE  H17R18464   2.371   1.139   8.078  1.4543 -0.2123 -1.4127
  164SAPE  H17S18465   2.243   1.060   7.972 -0.1840 -0.7447  1.8276
  164SAPE  C21818466   2.172   1.221   8.083 -0.4502 -0.1131 -0.3097
  164SAPE  H18R18467   2.098   1.261   8.012  0.6725  1.3914 -0.6857
  164SAPE  H18S18468   2.216   1.307   8.138  1.4099 -0.5551 -1.0050
  164SAPE  C21918469   2.098   1.129   8.176 -0.3044 -0.2912 -0.0787
  164SAPE  H19R18470   2.038   1.052   8.122 -0.2600 -1.5986  1.6639
  164SAPE  H19S18471   2.024   1.188   8.233 -1.0585 -1.3867  0.0961
  164SAPE  C22018472   2.187   1.050   8.272  0.6136 -0.0824 -0.5616
  164SAPE  H20R18473   2.263   0.983   8.228  0.7053 -0.6822  0.4763
  164SAPE  H20S18474   2.125   0.984   8.337 -0.4535 -1.9327 -3.2337
  164SAPE  H20T18475   2.244   1.113   8.343  0.8935  0.3785 -1.1948
  164SAPE   C3318476   2.439   1.910   6.644 -0.4869  0.0424  0.1748
  164SAPE   H3X18477   2.374   1.992   6.607  1.2692  1.9775  1.1740
  164SAPE   H3Y18478   2.496   1.865   6.559  2.6864 -2.3028  3.2481
  164SAPE   C3418479   2.521   1.995   6.744 -0.3168  0.0971 -0.3524
  164SAPE   H4X18480   2.603   1.933   6.786 -1.7951 -1.5816  0.1785
  164SAPE   H4Y18481   2.465   2.026   6.835 -1.3715  3.2446 -1.9203
  164SAPE   C3518482   2.578   2.123   6.675 -0.4618  0.8422  0.8370
  164SAPE   H5X18483   2.496   2.189   6.640  1.5400  2.9610 -0.0731
  164SAPE   H5Y18484   2.637   2.087   6.589 -0.0709 -2.2709  2.2607
  164SAPE   C3618485   2.684   2.193   6.764  0.5829 -0.0519  0.2746
  164SAPE   H6X18486   2.711   2.273   6.693 -1.1760 -0.0162 -0.4239
  164SAPE   H6Y18487   2.774   2.134   6.793  0.8499 -0.6792 -1.6934
  164SAPE   C3718488   2.626   2.266   6.887  0.1725  0.0967  0.1153
  164SAPE   H7X18489   2.693   2.248   6.973 -3.0378 -0.2420  2.7563
  164SAPE   H7Y18490   2.530   2.222   6.923  1.1368 -1.6345  0.6733
  164SAPE   C3818491   2.580   2.410   6.849 -0.7735  0.1325  0.6854
  164SAPE   H8X18492   2.521   2.390   6.757  1.1443 -1.9796 -0.1903
  164SAPE   H8Y18493   2.666   2.477   6.826 -0.2240 -1.1384 -1.1976
  164SAPE   C3918494   2.504   2.475   6.963 -0.1755  0.5498 -0.2179
  164SAPE   H9X18495   2.562   2.477   7.059 -2.5136 -0.4479  1.3019
  164SAPE   H9Y18496   2.401   2.442   6.986 -1.5436  2.8599 -2.5936
  164SAPE  C31018497   2.482   2.633   6.934  0.1374  0.1362  0.1998
  164SAPE  H10X18498   2.426   2.643   6.838  0.0320  0.2930  0.2772
  164SAPE  H10Y18499   2.583   2.675   6.913  1.1487 -2.3002 -0.2118
  164SAPE  C31118500   2.385   2.694   7.040 -0.1341 -0.5173 -0.2877
  164SAPE  H11X18501   2.302   2.627   7.069  0.8433 -1.0577  1.3809
  164SAPE  H11Y18502   2.326   2.778   6.998 -1.3655 -1.3766 -0.3116
  164SAPE  C31218503   2.459   2.751   7.157  0.4887  0.4116 -0.2365
  164SAPE  H12X18504   2.401   2.838   7.197 -0.1139 -0.4098  0.7219
  164SAPE  H12Y18505   2.560   2.785   7.126  1.8829 -2.2984  0.9638
  164SAPE  C31318506   2.492   2.655   7.269  0.0602  0.1196  0.9507
  164SAPE  H13X18507   2.550   2.577   7.216 -0.9131 -0.8164  1.2331
  164SAPE  H13Y18508   2.397   2.611   7.306  0.0250 -1.2759 -0.6781
  164SAPE  C31418509   2.563   2.712   7.396 -0.0659  0.6614 -0.3967
  164SAPE  H14X18510   2.515   2.812   7.407  1.5166  1.6749 -2.0990
  164SAPE  H14Y18511   2.671   2.731   7.381 -0.0327  0.0597 -0.9889
  164SAPE  C31518512   2.546   2.627   7.524  0.4491 -0.5242  0.0318
  164SAPE  H15X18513   2.619   2.545   7.506  0.8420 -0.0283 -0.7351
  164SAPE  H15Y18514   2.439   2.599   7.517  0.2535  0.5756 -4.1571
  164SAPE  C31618515   2.587   2.687   7.657  0.0462 -0.3541  0.4275
  164SAPE  H16X18516   2.548   2.785   7.693  2.8904  0.5456  1.3348
  164SAPE  H16Y18517   2.693   2.714   7.636 -0.1404 -0.9053 -1.4225
  164SAPE  C31718518   2.592   2.574   7.763  0.3941  0.6746  0.0776
  164SAPE  H17X18519   2.664   2.608   7.841  1.5163  1.1624 -1.1342
  164SAPE  H17Y18520   2.639   2.483   7.720  2.4036  0.5929  2.1803
  164SAPE  C31818521   2.462   2.533   7.825 -0.1352 -0.2145 -0.0615
  164SAPE  H18X18522   2.485   2.489   7.924  1.2330 -0.6750 -0.5683
  164SAPE  H18Y18523   2.417   2.453   7.762 -1.2190  0.1109  0.2688
  164SAPE  H18Z18524   2.396   2.622   7.828  0.4483  0.2217 -0.0011
  165SAPE     N18525   3.951   4.573   5.972  0.1749 -0.4062 -0.7650
  165SAPE   HN118526   3.921   4.673   5.976 -3.4561 -1.4110  2.3922
  165SAPE   HN218527   3.865   4.527   5.937 -0.4271 -1.2262  1.6259
  165SAPE   HN318528   3.966   4.535   6.067  2.2866  1.8577 -0.1004
  165SAPE   C1218529   4.073   4.537   5.894  0.3852 -0.3228  0.0572
  165SAPE  H12A18530   4.049   4.551   5.786  0.6485  1.3968  0.1809
  165SAPE  H12B18531   4.102   4.431   5.908 -2.6571 -1.3443 -0.7267
  165SAPE   C1118532   4.183   4.634   5.946  0.9800 -0.3996  0.4147
  165SAPE  H11A18533   4.157   4.738   5.917 -3.1461 -1.9506 -2.2676
  165SAPE  H11B18534   4.280   4.618   5.895  1.0433  0.0243  0.3971
  165SAPE     P18535   4.314   4.528   6.152 -0.1955 -0.5743 -0.0684
  165SAPE   O1318536   4.320   4.404   6.072 -0.3038 -0.1926 -0.2818
  165SAPE   O1418537   4.442   4.606   6.157  0.4611  0.2878 -0.3179
  165SAPE   O1218538   4.194   4.615   6.092 -0.1762  0.2889  0.0968
  165SAPE   O1118539   4.274   4.492   6.303 -0.6379 -0.0894  0.2051
  165SAPE    C118540   4.289   4.592   6.404 -0.0969  0.0856 -0.1919
  165SAPE    HA18541   4.394   4.622   6.425 -0.9595  2.4422  1.1453
  165SAPE    HB18542   4.245   4.685   6.362 -0.4871 -0.3799 -0.8217
  165SAPE    C218543   4.232   4.542   6.538 -0.0583 -0.2540  0.4633
  165SAPE    HS18544   4.235   4.633   6.601 -1.7203 -0.3399  0.7143
  165SAPE   O2118545   4.316   4.431   6.581  0.4872 -0.5413  0.5861
  165SAPE   C2118546   4.342   4.424   6.713  0.7393  0.0217 -0.5180
  165SAPE   O2218547   4.344   4.523   6.784  0.0282 -0.0841  0.1152
  165SAPE   C2218548   4.377   4.284   6.767 -0.4366  0.0580  0.4843
  165SAPE   H2R18549   4.292   4.243   6.825  0.8938 -0.1921  2.3560
  165SAPE   H2S18550   4.380   4.216   6.678  0.8693 -2.5505  2.3734
  165SAPE    C318551   4.085   4.492   6.524  0.2097  0.0271  1.0524
  165SAPE    HX18552   4.070   4.418   6.443 -3.0014  1.4342  0.2237
  165SAPE    HY18553   4.037   4.587   6.492  2.3082  0.3655 -1.4490
  165SAPE   O3118554   4.019   4.449   6.648 -0.5127 -0.0705  0.4412
  165SAPE   C3118555   3.892   4.420   6.634 -0.1485  0.3986  0.1580
  165SAPE   O3218556   3.827   4.429   6.530 -0.5372  0.2922  0.3246
  165SAPE   C3218557   3.846   4.378   6.771  0.3670  0.0901  0.9115
  165SAPE   H2X18558   3.914   4.296   6.802 -0.2380 -0.9868 -0.4897
  165SAPE   H2Y18559   3.745   4.335   6.753  0.8938 -0.6799 -0.3432
  165SAPE   C2318560   4.514   4.279   6.844  0.0581 -0.1877  0.2695
  165SAPE   H3R18561   4.526   4.175   6.881  1.6422 -0.0464  0.1913
  165SAPE   H3S18562   4.517   4.343   6.935  0.4834 -0.0891  0.1872
  165SAPE   C2418563   4.640   4.305   6.753 -0.1175  0.3448  0.0783
  165SAPE   H4R18564   4.622   4.390   6.684 -0.4293  0.1725 -0.0553
  165SAPE   H4S18565   4.644   4.206   6.702  0.4629 -1.7251  3.7587
  165SAPE   C2518566   4.773   4.327   6.817 -0.1703  0.0245  0.6714
  165SAPE   H5R18567   4.845   4.392   6.765 -0.2276 -1.2896 -1.1625
  165SAPE   C2618568   4.833   4.248   6.912 -0.0474 -0.1897  0.7385
  165SAPE   H6R18569   4.935   4.274   6.945  0.5108 -1.8901  0.4595
  165SAPE   C2718570   4.782   4.135   6.990 -0.1773  0.3963  0.8808
  165SAPE   H7R18571   4.714   4.063   6.938  0.5489 -0.0040  0.4681
  165SAPE   H7S18572   4.723   4.175   7.075  0.1535 -0.4447  1.5155
  165SAPE   C2818573   4.888   4.048   7.046  0.2335  0.4034 -0.6284
  165SAPE   H8R18574   4.951   4.003   6.968 -0.2677 -2.2191  0.3538
  165SAPE   C2918575   4.908   4.008   7.175 -0.1756 -0.1477  0.4560
  165SAPE   H9R18576   4.993   3.940   7.195 -1.2098 -1.8653 -0.6614
  165SAPE  C21018577   4.833   4.055   7.297 -0.2447 -0.3201  0.3224
  165SAPE  H10R18578   4.744   4.106   7.256 -0.9291 -0.0175  2.1057
  165SAPE  H10S18579   4.895   4.129   7.352 -1.3309  1.1454 -0.3560
  165SAPE  C21118580   4.785   3.929   7.369 -0.0382 -0.2303  0.2090
  165SAPE  H11R18581   4.793   3.828   7.327  1.0396 -0.3810  0.7312
  165SAPE  C21218582   4.724   3.931   7.491 -0.5516  0.0430  0.0136
  165SAPE  H12R18583   4.700   3.838   7.544  2.1960 -0.3458  0.7120
  165SAPE  C21318584   4.708   4.051   7.585 -0.2736  0.0399  0.8718
  165SAPE  H13R18585   4.600   4.060   7.612 -0.7154  3.8099 -1.3896
  165SAPE  H13S18586   4.711   4.144   7.524 -2.4009  0.2880  1.0764
  165SAPE  C21418587   4.788   4.052   7.713 -0.2573 -0.0403 -0.5085
  165SAPE  H14R18588   4.864   3.972   7.713 -0.0063  0.1877  0.2308
  165SAPE  C21518589   4.782   4.138   7.819  0.3997  0.0820 -0.1693
  165SAPE  H15R18590   4.840   4.123   7.911 -1.7519 -0.5590  1.1590
  165SAPE  C21618591   4.678   4.250   7.820  0.0324  0.0517 -0.5246
  165SAPE  H16R18592   4.608   4.259   7.734  0.3240 -0.3830 -0.8094
  165SAPE  H16S18593   4.727   4.349   7.834 -0.1368  0.1146 -0.3727
  165SAPE  C21718594   4.603   4.244   7.946 -0.3443 -0.0731 -0.3391
  165SAPE  H17R18595   4.555   4.144   7.949 -0.5622  0.0320 -0.2642
  165SAPE  H17S18596   4.511   4.306   7.942 -0.6967 -0.6046 -0.5617
  165SAPE  C21818597   4.684   4.282   8.077  0.7850  0.3113  0.7237
  165SAPE  H18R18598   4.729   4.384   8.074  1.2132  0.1132  0.3105
  165SAPE  H18S18599   4.770   4.212   8.082  0.7025  0.2598  1.5052
  165SAPE  C21918600   4.584   4.272   8.197 -0.0517 -0.4914 -0.2843
  165SAPE  H19R18601   4.487   4.323   8.178 -0.3503 -0.4872  1.1583
  165SAPE  H19S18602   4.624   4.334   8.280  3.6068 -1.8220 -0.8566
  165SAPE  C22018603   4.554   4.126   8.249  0.4590 -0.4532  0.0793
  165SAPE  H20R18604   4.648   4.078   8.284  0.7551  0.2008  0.1930
  165SAPE  H20S18605   4.516   4.069   8.162 -2.2337  0.7815  0.3541
  165SAPE  H20T18606   4.481   4.136   8.331  0.2492 -0.2686 -0.1291
  165SAPE   C3318607   3.832   4.493   6.868 -0.4666 -0.4042  0.0120
  165SAPE   H3X18608   3.780   4.455   6.958  2.1375 -0.5696  1.5605
  165SAPE   H3Y18609   3.772   4.577   6.826 -0.3089  0.7777  2.0270
  165SAPE   C3418610   3.968   4.539   6.929  1.0325  0.3450 -0.5509
  165SAPE   H4X18611   3.952   4.644   6.963 -0.7361 -0.6316  1.9584
  165SAPE   H4Y18612   4.045   4.543   6.849  0.3143 -0.3893 -1.3007
  165SAPE   C3518613   4.035   4.443   7.028  0.4966  0.3074 -0.5934
  165SAPE   H5X18614   4.142   4.471   7.035  0.3864  0.5593  0.2134
  165SAPE   H5Y18615   4.018   4.336   7.002 -1.1847  0.3150  0.3472
  165SAPE   C3618616   3.977   4.466   7.169 -0.2342  0.3989  0.2729
  165SAPE   H6X18617   3.867   4.473   7.153 -0.3087 -3.3725 -1.8711
  165SAPE   H6Y18618   4.007   4.568   7.201 -0.8534  0.2116  1.5450
  165SAPE   C3718619   4.016   4.364   7.278 -0.3715 -0.6262 -0.4447
  165SAPE   H7X18620   4.112   4.396   7.324  0.4240 -2.0084 -1.0795
  165SAPE   H7Y18621   4.024   4.265   7.228  2.4602 -0.3676 -0.6746
  165SAPE   C3818622   3.903   4.357   7.387 -0.1401 -0.4399 -0.1519
  165SAPE   H8X18623   3.940   4.277   7.455  2.5708  0.5858 -0.3009
  165SAPE   H8Y18624   3.809   4.317   7.343  1.0923 -0.0705 -3.3484
  165SAPE   C3918625   3.866   4.484   7.463  0.0303  0.0744 -0.4279
  165SAPE   H9X18626   3.800   4.546   7.398 -1.8309 -3.5338 -2.2489
  165SAPE   H9Y18627   3.954   4.544   7.494  0.4541 -0.6748 -0.1757
  165SAPE  C31018628   3.784   4.463   7.584  0.0783  0.0806  0.7932
  165SAPE  H10X18629   3.702   4.393   7.555  1.4259 -0.3028 -2.5418
  165SAPE  H10Y18630   3.728   4.558   7.600  0.2335  0.4671 -0.7774
  165SAPE  C31118631   3.867   4.438   7.714 -0.3766  0.3666  0.2132
  165SAPE  H11X18632   3.930   4.529   7.722  0.0106  0.2064 -0.8964
  165SAPE  H11Y18633   3.943   4.359   7.693  0.8078  1.6630 -0.5602
  165SAPE  C31218634   3.801   4.406   7.847  0.0204 -0.5095  0.5151
  165SAPE  H12X18635   3.712   4.339   7.847  0.1867 -0.7355  0.1927
  165SAPE  H12Y18636   3.769   4.498   7.900  0.6537 -0.4121  0.7458
  165SAPE  C31318637   3.904   4.338   7.945  0.9023  0.0113 -0.1006
  165SAPE  H13X18638   3.989   4.405   7.971 -1.6031  2.7730  1.5906
  165SAPE  H13Y18639   3.936   4.243   7.898  1.2889  0.2629 -0.3564
  165SAPE  C31418640   3.830   4.308   8.078 -1.0973  0.7123  0.5319
  165SAPE  H14X18641   3.735   4.259   8.046 -0.7586  0.6144 -0.3503
  165SAPE  H14Y18642   3.822   4.406   8.128 -0.0435  0.5388  1.0707
  165SAPE  C31518643   3.905   4.220   8.181 -0.2596 -0.2883  0.1093
  165SAPE  H15X18644   4.010   4.204   8.148  0.6457  1.0432  2.1265
  165SAPE  H15Y18645   3.854   4.121   8.188 -0.2050 -0.2564  1.1994
  165SAPE  C31618646   3.909   4.279   8.327 -0.2192  0.0668  0.3928
  165SAPE  H16X18647   3.804   4.278   8.363 -0.0779  0.0960  0.8096
  165SAPE  H16Y18648   3.936   4.386   8.314  2.8722 -0.6220  0.3420
  165SAPE  C31718649   4.000   4.199   8.424 -0.5590  0.2496 -0.6775
  165SAPE  H17X18650   3.979   4.090   8.417  0.7585 -0.1027  0.4391
  165SAPE  H17Y18651   3.955   4.226   8.522  0.3074  0.7564 -0.4099
  165SAPE  C31818652   4.148   4.236   8.424 -0.7299 -0.2381  0.5594
  165SAPE  H18X18653   4.205   4.184   8.504  0.3750  0.3729  0.1878
  165SAPE  H18Y18654   4.155   4.346   8.437  1.9971  0.0327 -2.0880
  165SAPE  H18Z18655   4.197   4.213   8.327  0.9986  0.9458  1.1139
  166SAPE     N18656   2.036   0.104   5.799 -0.1546 -0.0065  0.1304
  166SAPE   HN118657   2.038   0.007   5.836 -1.6696  0.8526  2.7089
  166SAPE   HN218658   1.949   0.107   5.742  1.0149  1.3376 -1.7188
  166SAPE   HN318659   2.116   0.105   5.732 -0.9048 -3.8562 -1.0516
  166SAPE   C1218660   2.038   0.218   5.905  0.2745  0.7262  0.1071
  166SAPE  H12A18661   1.951   0.206   5.973  0.9270  0.4832  0.9169
  166SAPE  H12B18662   2.028   0.313   5.849  2.8484  0.4082 -1.0806
  166SAPE   C1118663   2.168   0.202   5.990  0.5819 -0.1199 -0.1705
  166SAPE  H11A18664   2.158   0.117   6.060  2.7309 -0.8221 -0.6534
  166SAPE  H11B18665   2.170   0.295   6.051 -0.4880  0.0908 -0.4325
  166SAPE     P18666   2.385   0.297   5.875 -0.0489  0.2605 -0.0855
  166SAPE   O1318667   2.511   0.238   5.825 -0.0015 -0.1911 -0.6527
  166SAPE   O1418668   2.316   0.392   5.787  0.4344  0.1621 -0.2099
  166SAPE   O1218669   2.281   0.183   5.919 -0.7046  0.0269 -0.4538
  166SAPE   O1118670   2.412   0.384   6.005 -0.3339  0.7269  0.4585
  166SAPE    C118671   2.455   0.332   6.137 -0.1607  0.1957 -0.3825
  166SAPE    HA18672   2.373   0.275   6.188 -2.2714  1.8092 -1.8002
  166SAPE    HB18673   2.549   0.273   6.125 -0.6150 -1.0466  1.6912
  166SAPE    C218674   2.478   0.448   6.233 -0.2461  0.1212  0.1970
  166SAPE    HS18675   2.560   0.504   6.185 -0.3703  0.2896  0.1812
  166SAPE   O2118676   2.520   0.388   6.360 -0.1183 -0.3847  0.9148
  166SAPE   C2118677   2.589   0.474   6.429 -0.1448 -0.3844  0.2678
  166SAPE   O2218678   2.616   0.590   6.391 -0.4079 -0.5083  0.1184
  166SAPE   C2218679   2.636   0.406   6.565 -0.2958 -0.3759  0.0195
  166SAPE   H2R18680   2.543   0.391   6.625  0.2642 -0.8070  0.7955
  166SAPE   H2S18681   2.669   0.302   6.542 -2.0469 -1.0144  0.1662
  166SAPE    C318682   2.349   0.542   6.248  0.2295  0.4689 -0.0470
  166SAPE    HX18683   2.322   0.600   6.157 -3.5273 -0.5550  0.2283
  166SAPE    HY18684   2.381   0.620   6.320 -0.0713  3.2229 -2.6922
  166SAPE   O3118685   2.226   0.467   6.283  0.2909 -0.0289  0.0032
  166SAPE   C3118686   2.202   0.447   6.409 -0.3587 -0.0418  0.1229
  166SAPE   O3218687   2.274   0.478   6.506 -0.2446  0.4643  0.3496
  166SAPE   C3218688   2.062   0.392   6.435 -0.6395 -0.0941  0.1037
  166SAPE   H2X18689   2.059   0.299   6.375 -2.4537  0.2039 -0.3329
  166SAPE   H2Y18690   1.987   0.462   6.392  0.9827  1.1329 -0.8566
  166SAPE   C2318691   2.740   0.489   6.650  0.4474 -0.1312 -0.1094
  166SAPE   H3R18692   2.689   0.548   6.730  2.0011 -1.5299  2.0154
  166SAPE   H3S18693   2.799   0.547   6.576 -2.7921 -0.3151 -3.1413
  166SAPE   C2418694   2.843   0.393   6.715  0.4593  0.8498  0.4106
  166SAPE   H4R18695   2.892   0.339   6.631 -0.5067 -1.9676  1.5516
  166SAPE   H4S18696   2.785   0.333   6.788 -0.5289  1.2503 -0.0268
  166SAPE   C2518697   2.963   0.450   6.783  0.2629 -0.3240 -0.3137
  166SAPE   H5R18698   3.011   0.515   6.708 -2.7463 -0.1596 -2.3024
  166SAPE   C2618699   2.990   0.457   6.917  0.1201 -0.4357 -0.1224
  166SAPE   H6R18700   3.088   0.499   6.943  0.8740 -0.7795 -2.1688
  166SAPE   C2718701   2.919   0.409   7.040 -0.0274  0.6609  0.4806
  166SAPE   H7R18702   2.999   0.370   7.106  2.1450  0.5846 -2.0478
  166SAPE   H7S18703   2.845   0.328   7.019 -2.7410  2.7443  1.3309
  166SAPE   C2818704   2.838   0.527   7.089  0.4937  0.1527 -0.0102
  166SAPE   H8R18705   2.785   0.586   7.012  2.1259  1.6591 -0.0611
  166SAPE   C2918706   2.835   0.573   7.216 -0.0449  0.4978  0.3185
  166SAPE   H9R18707   2.773   0.661   7.240 -1.5734 -0.2101 -0.9011
  166SAPE  C21018708   2.904   0.503   7.329  0.5004 -0.3667 -0.3790
  166SAPE  H10R18709   2.976   0.421   7.305  1.9422  0.2971  1.4297
  166SAPE  H10S18710   2.834   0.462   7.405 -0.2494 -1.5016 -1.6243
  166SAPE  C21118711   2.979   0.604   7.407 -0.1524  0.2204  0.6927
  166SAPE  H11R18712   3.068   0.642   7.354 -1.9760  2.4585 -0.9620
  166SAPE  C21218713   2.955   0.664   7.526  0.1029 -0.5852 -0.0080
  166SAPE  H12R18714   3.036   0.735   7.546 -1.2159  1.2493 -0.9088
  166SAPE  C21318715   2.841   0.639   7.625  0.0619 -0.1631  0.1583
  166SAPE  H13R18716   2.754   0.607   7.564  0.2191 -2.3140  0.9457
  166SAPE  H13S18717   2.820   0.736   7.675  1.4872 -0.3083  1.1053
  166SAPE  C21418718   2.875   0.537   7.728  0.1250  0.4865  0.1349
  166SAPE  H14R18719   2.889   0.433   7.696  0.8433  0.2682  1.1241
  166SAPE  C21518720   2.889   0.562   7.861  0.0687  0.1844  0.4105
  166SAPE  H15R18721   2.913   0.475   7.924  0.7244 -0.3189 -0.5108
  166SAPE  C21618722   2.869   0.696   7.928 -0.2334 -0.2484 -0.2533
  166SAPE  H16R18723   2.886   0.776   7.852  2.2452 -0.8981 -0.4771
  166SAPE  H16S18724   2.942   0.692   8.012  0.4314 -2.5646 -0.8678
  166SAPE  C21718725   2.740   0.712   8.003 -0.7590  0.6500  0.3653
  166SAPE  H17R18726   2.740   0.821   8.024  1.0134  0.6323  0.6629
  166SAPE  H17S18727   2.751   0.665   8.103  0.1108  0.2010  0.0705
  166SAPE  C21818728   2.608   0.685   7.933 -0.5257 -0.2985  0.1004
  166SAPE  H18R18729   2.609   0.574   7.933  2.2468 -0.3499  0.8528
  166SAPE  H18S18730   2.609   0.738   7.835 -2.3258 -0.4993 -0.0588
  166SAPE  C21918731   2.499   0.759   8.018  0.6708 -0.2297 -0.4845
  166SAPE  H19R18732   2.534   0.859   8.051  2.5347 -1.5298  1.7123
  166SAPE  H19S18733   2.482   0.702   8.112  0.9335 -0.2505 -0.4488
  166SAPE  C22018734   2.356   0.769   7.955 -0.5198  0.0129 -0.4648
  166SAPE  H20R18735   2.326   0.667   7.922 -0.0001 -0.0941 -0.6198
  166SAPE  H20S18736   2.355   0.841   7.870 -1.8474  2.4059  1.4618
  166SAPE  H20T18737   2.283   0.809   8.027  0.9684  1.4324  0.3106
  166SAPE   C3318738   2.019   0.377   6.585 -0.7942 -0.3793 -0.4770
  166SAPE   H3X18739   2.098   0.332   6.649 -1.6360  0.7445  1.4382
  166SAPE   H3Y18740   1.929   0.314   6.597 -1.0107  0.2159  1.2522
  166SAPE   C3418741   1.971   0.508   6.650  0.1163  0.1812 -0.2815
  166SAPE   H4X18742   1.863   0.521   6.627 -0.1441 -0.2232  0.6699
  166SAPE   H4Y18743   2.026   0.593   6.603  0.1034  0.2602 -0.1542
  166SAPE   C3518744   1.995   0.503   6.806  0.1084 -0.9950  0.2813
  166SAPE   H5X18745   2.105   0.499   6.820 -0.0277  0.7058  2.3268
  166SAPE   H5Y18746   1.964   0.403   6.842  0.7353 -1.0352  0.7275
  166SAPE   C3618747   1.926   0.605   6.898  0.1322  0.2923 -0.2772
  166SAPE   H6X18748   1.960   0.591   7.003  2.3099 -1.0970 -1.0899
  166SAPE   H6Y18749   1.819   0.575   6.898 -0.0531  0.9055  1.0020
  166SAPE   C3718750   1.955   0.755   6.864 -0.7998  0.1178 -0.0743
  166SAPE   H7X18751   1.898   0.785   6.773  1.6440 -0.7755 -2.0247
  166SAPE   H7Y18752   2.058   0.760   6.825 -1.3383  1.3254 -1.4311
  166SAPE   C3818753   1.912   0.856   6.971  0.5984 -0.2835 -0.4267
  166SAPE   H8X18754   1.808   0.839   7.008  0.4640  1.3470  0.0117
  166SAPE   H8Y18755   1.913   0.950   6.913  0.4048  1.2197  1.8747
  166SAPE   C3918756   2.018   0.858   7.077  0.1124  0.4619 -0.4401
  166SAPE   H9X18757   2.118   0.842   7.030 -0.4077 -0.4034 -1.2844
  166SAPE   H9Y18758   1.994   0.766   7.135 -0.7025  0.3621 -0.9258
  166SAPE  C31018759   2.010   0.980   7.174 -0.0812  0.4395  0.1559
  166SAPE  H10X18760   2.014   1.078   7.123  4.3835  1.3795  1.8225
  166SAPE  H10Y18761   2.095   0.996   7.244  0.6904  1.0322 -0.8936
  166SAPE  C31118762   1.889   0.968   7.265  0.2152 -0.5886  0.1939
  166SAPE  H11X18763   1.822   0.903   7.205  0.2110 -0.4226  0.0177
  166SAPE  H11Y18764   1.841   1.068   7.260 -0.4195 -0.7968  1.4995
  166SAPE  C31218765   1.910   0.905   7.404  0.1043  0.2835  0.5746
  166SAPE  H12X18766   1.958   0.807   7.382 -3.0856 -0.7136 -2.9864
  166SAPE  H12Y18767   1.806   0.893   7.441 -0.1149  0.0363 -0.1154
  166SAPE  C31318768   1.987   0.983   7.511  1.0234  0.7432 -0.4517
  166SAPE  H13X18769   1.951   1.086   7.533  0.5279  0.4989 -0.0838
  166SAPE  H13Y18770   2.087   1.002   7.466  0.3810 -1.2946 -2.9617
  166SAPE  C31418771   2.006   0.901   7.645  0.1708  0.4896 -0.2397
  166SAPE  H14X18772   2.083   0.956   7.704  2.0307 -1.1172 -1.0676
  166SAPE  H14Y18773   2.048   0.801   7.622 -1.0639 -0.1487  0.2043
  166SAPE  C31518774   1.874   0.869   7.722 -0.4469  0.2997 -0.1063
  166SAPE  H15X18775   1.792   0.830   7.658 -0.1594  0.9788 -0.9102
  166SAPE  H15Y18776   1.834   0.963   7.766 -0.8171 -0.2864  0.8399
  166SAPE  C31618777   1.893   0.757   7.830  0.5071 -0.6172  0.1208
  166SAPE  H16X18778   1.909   0.665   7.770  0.5270  0.4712 -1.6375
  166SAPE  H16Y18779   1.794   0.727   7.868  0.7760 -1.2696  0.3074
  166SAPE  C31718780   1.986   0.794   7.941 -0.4608  0.6662  0.4783
  166SAPE  H17X18781   1.943   0.884   7.990 -0.0358  1.1114  0.0542
  166SAPE  H17Y18782   2.079   0.840   7.901 -0.5318 -0.6190 -1.2366
  166SAPE  C31818783   2.017   0.674   8.031  0.5612  0.4049 -0.2637
  166SAPE  H18X18784   2.103   0.696   8.098 -0.0401  0.7914  0.3964
  166SAPE  H18Y18785   2.043   0.579   7.981 -1.4246 -0.8921  0.9975
  166SAPE  H18Z18786   1.930   0.665   8.101 -0.6971 -0.0045 -1.8164
  167SAPE     N18787   3.622   4.896   6.252  0.3162 -0.5975 -0.3031
  167SAPE   HN118788   3.554   4.858   6.321  0.3630 -4.7084 -2.2623
  167SAPE   HN218789   3.567   4.963   6.195  0.7483 -1.0778 -1.3172
  167SAPE   HN318790   3.633   4.810   6.195  1.2659  0.8101 -2.3562
  167SAPE   C1218791   3.745   4.956   6.314  0.1508  0.2893  0.0457
  167SAPE  H12A18792   3.809   4.957   6.224 -0.1256  0.7321 -0.1516
  167SAPE  H12B18793   3.787   4.883   6.386 -0.4321 -2.2034 -1.9970
  167SAPE   C1118794   3.735   5.100   6.372  0.3461 -0.2398  0.9156
  167SAPE  H11A18795   3.841   5.120   6.398  0.5772 -1.8257  1.3343
  167SAPE  H11B18796   3.675   5.111   6.465 -3.1151  1.5274 -1.3220
  167SAPE     P18797   3.544   5.239   6.253 -0.0428  0.1166 -0.0537
  167SAPE   O1318798   3.541   5.361   6.176 -0.3435  0.3494  0.7219
  167SAPE   O1418799   3.455   5.127   6.207  0.1900 -0.1078  0.2289
  167SAPE   O1218800   3.690   5.189   6.267 -0.2352  0.0390 -0.2914
  167SAPE   O1118801   3.496   5.283   6.396 -0.3710 -0.3115  0.1246
  167SAPE    C118802   3.464   5.415   6.434  0.0361 -0.0990  0.4511
  167SAPE    HA18803   3.447   5.483   6.347 -2.9834 -1.9945 -0.6107
  167SAPE    HB18804   3.360   5.407   6.474  0.0730 -3.5938  0.1255
  167SAPE    C218805   3.564   5.451   6.534 -0.0315  0.2943 -0.1763
  167SAPE    HS18806   3.664   5.425   6.492 -1.1423 -1.3651 -1.9841
  167SAPE   O2118807   3.533   5.378   6.646  0.2863  0.5512  0.5445
  167SAPE   C2118808   3.625   5.317   6.715 -0.6175 -0.7544  0.4250
  167SAPE   O2218809   3.746   5.304   6.686  0.5788  0.2864  0.5834
  167SAPE   C2218810   3.558   5.291   6.851 -0.5508  0.2635  0.5190
  167SAPE   H2R18811   3.521   5.387   6.894 -2.3377  0.0449 -0.4323
  167SAPE   H2S18812   3.471   5.224   6.836 -1.0383  0.6725  1.4464
  167SAPE    C318813   3.572   5.607   6.553 -0.6637  0.3775 -0.2846
  167SAPE    HX18814   3.477   5.655   6.586 -0.2528  2.1231 -1.5497
  167SAPE    HY18815   3.615   5.653   6.462 -0.2184  1.2592  0.3557
  167SAPE   O3118816   3.664   5.623   6.662  0.4186 -0.0593  0.4505
  167SAPE   C3118817   3.793   5.638   6.640 -0.3384  0.1930 -0.1049
  167SAPE   O3218818   3.844   5.624   6.530 -0.7701 -0.2445  0.0686
  167SAPE   C3218819   3.874   5.684   6.761  0.2805 -0.1641  0.0661
  167SAPE   H2X18820   3.914   5.783   6.731 -1.2777 -0.0143 -1.6868
  167SAPE   H2Y18821   3.953   5.606   6.766  0.5300 -0.0316 -1.3709
  167SAPE   C2318822   3.665   5.228   6.935  0.3458  0.8625 -0.7412
  167SAPE   H3R18823   3.767   5.269   6.916  0.3653 -0.0927 -3.0250
  167SAPE   H3S18824   3.670   5.123   6.900 -1.9004  0.3461  0.2705
  167SAPE   C2418825   3.623   5.226   7.085  0.0979 -0.0601  0.0419
  167SAPE   H4R18826   3.698   5.157   7.130 -0.8921 -0.2113  1.5440
  167SAPE   H4S18827   3.525   5.176   7.099 -0.9865  2.4107  1.9707
  167SAPE   C2518828   3.620   5.362   7.155 -0.3435  0.2620  0.2926
  167SAPE   H5R18829   3.642   5.453   7.096  0.8753  0.8206  1.5328
  167SAPE   C2618830   3.566   5.386   7.278  0.0983  0.0180  0.1927
  167SAPE   H6R18831   3.557   5.488   7.317  1.2947 -0.0044  0.5627
  167SAPE   C2718832   3.499   5.288   7.372 -0.0245 -0.2306  0.6585
  167SAPE   H7R18833   3.499   5.185   7.330  1.7220 -0.4561  1.1249
  167SAPE   H7S18834   3.393   5.308   7.400 -0.4849 -0.7634 -0.6564
  167SAPE   C2818835   3.579   5.293   7.495 -0.7110  0.4150 -1.0675
  167SAPE   H8R18836   3.671   5.233   7.486 -0.3210  0.8902 -0.3003
  167SAPE   C2918837   3.548   5.340   7.618 -0.1550 -0.1612 -0.3899
  167SAPE   H9R18838   3.631   5.331   7.690  2.0885  1.3196 -2.6215
  167SAPE  C21018839   3.426   5.413   7.657  0.4322 -0.2563 -0.3645
  167SAPE  H10R18840   3.357   5.347   7.714 -1.1476  1.2814 -0.4011
  167SAPE  H10S18841   3.371   5.436   7.563 -1.0880 -4.2462 -0.6451
  167SAPE  C21118842   3.438   5.540   7.742 -0.9231 -0.0565  0.4299
  167SAPE  H11R18843   3.416   5.630   7.683 -0.4959  0.4251  0.9889
  167SAPE  C21218844   3.482   5.556   7.866  0.0396  0.2056 -0.7533
  167SAPE  H12R18845   3.481   5.657   7.909 -3.1212 -0.2304  0.5375
  167SAPE  C21318846   3.522   5.448   7.966 -0.1439 -0.1492 -0.4033
  167SAPE  H13R18847   3.620   5.467   8.015  2.6477 -1.9107 -4.7118
  167SAPE  H13S18848   3.555   5.357   7.912  0.0961 -1.1660  1.3766
  167SAPE  C21418849   3.412   5.403   8.057  0.6466  0.6677 -1.1736
  167SAPE  H14R18850   3.378   5.300   8.037  0.1986  0.9077 -1.6659
  167SAPE  C21518851   3.344   5.476   8.147  0.2827  0.2206  0.1276
  167SAPE  H15R18852   3.268   5.426   8.209  1.1489 -1.4959 -0.1376
  167SAPE  C21618853   3.362   5.621   8.195  0.4513 -0.1934  0.7789
  167SAPE  H16R18854   3.263   5.669   8.210  0.2199 -0.9801  1.8843
  167SAPE  H16S18855   3.417   5.680   8.119  0.3984 -1.1596 -0.0356
  167SAPE  C21718856   3.432   5.629   8.332 -0.0995  0.2767 -0.4380
  167SAPE  H17R18857   3.456   5.736   8.349 -0.0306  0.0784  0.8087
  167SAPE  H17S18858   3.531   5.579   8.338 -0.8098 -1.0676  0.5075
  167SAPE  C21818859   3.339   5.584   8.449  0.7492  0.0816 -0.4754
  167SAPE  H18R18860   3.310   5.477   8.450  2.8259 -0.5239 -1.1712
  167SAPE  H18S18861   3.245   5.642   8.434  1.2337  0.6883 -1.2014
  167SAPE  C21918862   3.391   5.597   8.595  0.1981  0.5376 -0.2699
  167SAPE  H19R18863   3.452   5.690   8.593  1.0850  0.0952 -4.4373
  167SAPE  H19S18864   3.460   5.513   8.615 -0.4924 -0.3196 -1.3245
  167SAPE  C22018865   3.280   5.614   8.696  0.1376 -0.0437  0.0559
  167SAPE  H20R18866   3.315   5.603   8.801 -1.0770 -2.4443  0.2877
  167SAPE  H20S18867   3.201   5.536   8.689 -0.8518  0.9782 -0.5816
  167SAPE  H20T18868   3.232   5.708   8.660 -1.8433 -0.3283  1.7334
  167SAPE   C3318869   3.789   5.702   6.885 -0.5894  0.0284 -1.1950
  167SAPE   H3X18870   3.741   5.604   6.906 -0.8034 -0.1546 -2.4350
  167SAPE   H3Y18871   3.707   5.774   6.862 -1.7627  0.8246  4.1141
  167SAPE   C3418872   3.866   5.756   7.013 -0.0243 -0.3844 -0.0387
  167SAPE   H4X18873   3.909   5.854   6.983 -0.4547  0.3056  1.5004
  167SAPE   H4Y18874   3.948   5.683   7.030  1.4989  0.7571 -2.0439
  167SAPE   C3518875   3.785   5.773   7.135  0.6427  0.1514  0.3218
  167SAPE   H5X18876   3.766   5.673   7.181  0.4213  1.0378  2.2429
  167SAPE   H5Y18877   3.686   5.818   7.115  1.3430  2.2656  1.3812
  167SAPE   C3618878   3.860   5.848   7.246 -0.1333  0.5709  0.6119
  167SAPE   H6X18879   3.905   5.936   7.196  0.2880 -0.3823 -0.7722
  167SAPE   H6Y18880   3.938   5.784   7.293 -1.8460 -0.8823  1.6243
  167SAPE   C3718881   3.767   5.900   7.357  0.4512 -0.6230 -0.2504
  167SAPE   H7X18882   3.684   5.962   7.316 -0.0219  1.3159  3.2252
  167SAPE   H7Y18883   3.827   5.972   7.416 -0.4336 -0.3471  0.3426
  167SAPE   C3818884   3.692   5.802   7.446  0.1034 -0.3937  0.4211
  167SAPE   H8X18885   3.637   5.745   7.368  1.5466  0.6471 -1.4404
  167SAPE   H8Y18886   3.623   5.855   7.515  0.5855  1.1581 -0.2474
  167SAPE   C3918887   3.781   5.703   7.526 -0.2023  0.1109  0.3928
  167SAPE   H9X18888   3.865   5.675   7.459  0.5313 -0.1573  1.3985
  167SAPE   H9Y18889   3.732   5.607   7.552 -0.9547 -0.5013 -2.8117
  167SAPE  C31018890   3.838   5.785   7.640 -0.1769 -0.5130  0.2821
  167SAPE  H10X18891   3.833   5.894   7.622  3.6068 -0.2217  0.3702
  167SAPE  H10Y18892   3.947   5.770   7.649 -0.0660  1.0850  2.3691
  167SAPE  C31118893   3.767   5.757   7.777 -0.0419 -0.8904 -0.2366
  167SAPE  H11X18894   3.747   5.651   7.803 -0.1679 -0.1981  2.9537
  167SAPE  H11Y18895   3.670   5.811   7.774  1.1909  1.5316  0.3384
  167SAPE  C31218896   3.848   5.822   7.889 -0.2484  0.3464 -0.2496
  167SAPE  H12X18897   3.901   5.913   7.853 -1.9478  1.4466 -0.0684
  167SAPE  H12Y18898   3.923   5.746   7.919 -2.4403 -1.4236  1.1084
  167SAPE  C31318899   3.755   5.861   8.008 -0.2247  0.0281  0.7580
  167SAPE  H13X18900   3.689   5.776   8.038  0.5499 -0.5411  0.8888
  167SAPE  H13Y18901   3.687   5.942   7.974 -0.8505 -0.7425  0.1305
  167SAPE  C31418902   3.832   5.894   8.133 -0.3274  0.0766 -0.5631
  167SAPE  H14X18903   3.918   5.959   8.109 -1.3537  0.7466 -2.5747
  167SAPE  H14Y18904   3.868   5.795   8.169 -2.3878 -1.2161 -1.8462
  167SAPE  C31518905   3.757   5.961   8.251  0.0788  0.2796  0.2038
  167SAPE  H15X18906   3.663   5.901   8.261  0.4360 -0.3226 -0.0218
  167SAPE  H15Y18907   3.739   6.064   8.212 -1.8325 -0.2697 -0.4946
  167SAPE  C31618908   3.831   5.971   8.382  0.3917  0.0732  0.0483
  167SAPE  H16X18909   3.915   6.042   8.366  1.5626 -1.0348  1.1060
  167SAPE  H16Y18910   3.874   5.872   8.408  0.3057  0.1993  0.6935
  167SAPE  C31718911   3.743   6.040   8.489  0.2017  0.7024  0.3359
  167SAPE  H17X18912   3.645   5.995   8.514  0.0269  1.4457  1.0280
  167SAPE  H17Y18913   3.718   6.138   8.443  0.1036  0.8332  0.6638
  167SAPE  C31818914   3.814   6.074   8.623 -0.4504 -0.2841  0.1193
  167SAPE  H18X18915   3.894   6.150   8.609 -1.8857  1.2288 -0.1304
  167SAPE  H18Y18916   3.853   5.976   8.658  2.5162 -0.2632 -2.6186
  167SAPE  H18Z18917   3.744   6.107   8.702 -0.8450  3.0120 -1.3971
  168SAPE     N18918   5.014   1.802   6.679  0.3337  0.3290 -0.5783
  168SAPE   HN118919   5.084   1.855   6.736  1.7833 -1.7386 -0.3134
  168SAPE   HN218920   4.968   1.742   6.750 -0.9673  2.3699  0.3862
  168SAPE   HN318921   5.063   1.732   6.620  2.0435  1.3656 -0.4831
  168SAPE   C1218922   4.910   1.878   6.607 -0.1962  0.7971  0.2249
  168SAPE  H12A18923   4.961   1.923   6.520 -0.1106 -1.1987 -0.8153
  168SAPE  H12B18924   4.873   1.955   6.678 -1.5028  0.1603  0.2724
  168SAPE   C1118925   4.786   1.800   6.572 -0.1445  0.6502  0.3919
  168SAPE  H11A18926   4.709   1.866   6.527 -0.4163  1.2264  1.6692
  168SAPE  H11B18927   4.752   1.753   6.667  0.8126 -0.5484  0.1627
  168SAPE     P18928   4.729   1.588   6.419  0.0790  0.2371 -0.5237
  168SAPE   O1318929   4.610   1.658   6.365 -0.0397 -0.0391 -0.3818
  168SAPE   O1418930   4.806   1.487   6.344  0.4126 -0.2599 -0.4304
  168SAPE   O1218931   4.824   1.698   6.477 -0.5806 -0.2220  0.2537
  168SAPE   O1118932   4.684   1.506   6.547 -0.0964 -0.3131 -0.3136
  168SAPE    C118933   4.561   1.539   6.613  0.3230  0.4621  1.1478
  168SAPE    HA18934   4.521   1.641   6.596 -2.0175 -0.5357  0.2793
  168SAPE    HB18935   4.480   1.471   6.580  0.4866  0.2095  1.2550
  168SAPE    C218936   4.570   1.522   6.769 -0.7541  0.3999  1.1562
  168SAPE    HS18937   4.635   1.599   6.816  0.2502  0.1823  0.1713
  168SAPE   O2118938   4.612   1.391   6.811  0.1810  0.2597  0.7541
  168SAPE   C2118939   4.732   1.380   6.865  0.6033  0.0947 -0.0968
  168SAPE   O2218940   4.810   1.472   6.877 -0.0442 -0.6636 -0.3630
  168SAPE   C2218941   4.758   1.234   6.900  0.1212 -0.4429  0.6486
  168SAPE   H2R18942   4.693   1.161   6.848  0.0841  0.5571 -0.7931
  168SAPE   H2S18943   4.848   1.214   6.837 -1.2925  0.6349 -1.9003
  168SAPE    C318944   4.422   1.544   6.819 -0.4492 -0.0541 -0.5321
  168SAPE    HX18945   4.359   1.486   6.748  0.7990  1.5322 -3.1248
  168SAPE    HY18946   4.398   1.650   6.798 -1.3324 -0.0174  0.6242
  168SAPE   O3118947   4.413   1.502   6.953  0.0192  0.6124 -0.5962
  168SAPE   C3118948   4.472   1.576   7.043  0.4907 -0.2257  0.2783
  168SAPE   O3218949   4.520   1.687   7.022 -0.1633  0.1504  0.0443
  168SAPE   C3218950   4.461   1.502   7.171 -0.6869  0.4559 -0.2146
  168SAPE   H2X18951   4.541   1.425   7.171  1.1728  2.2628 -1.9100
  168SAPE   H2Y18952   4.360   1.456   7.181 -0.8343  0.6063 -0.9549
  168SAPE   C2318953   4.780   1.229   7.049  1.0254 -0.3443 -0.2761
  168SAPE   H3R18954   4.678   1.234   7.092  1.4931  1.5714  0.6940
  168SAPE   H3S18955   4.828   1.315   7.100 -1.2823  1.0339 -0.2981
  168SAPE   C2418956   4.845   1.102   7.117  0.5480  0.3454  1.1404
  168SAPE   H4R18957   4.796   1.025   7.054  0.2842 -0.6680  2.5553
  168SAPE   H4S18958   4.813   1.087   7.222 -1.7621  1.8487  0.7172
  168SAPE   C2518959   4.993   1.101   7.083 -0.2061 -0.6182  0.4744
  168SAPE   H5R18960   5.020   1.137   6.983  0.3576 -0.2875  0.7388
  168SAPE   C2618961   5.087   1.074   7.179 -0.2020  0.7467  0.6247
  168SAPE   H6R18962   5.193   1.056   7.156 -0.1644 -1.0844  1.9663
  168SAPE   C2718963   5.048   1.045   7.323 -0.1418  0.6402 -0.1289
  168SAPE   H7R18964   4.968   0.969   7.329 -1.1101  1.7462  2.6602
  168SAPE   H7S18965   4.981   1.133   7.339  0.1144  0.5776  1.3791
  168SAPE   C2818966   5.154   1.012   7.432 -0.1488 -0.0087 -0.1402
  168SAPE   H8R18967   5.259   1.009   7.402 -0.3219  0.2307 -0.8023
  168SAPE   C2918968   5.128   0.999   7.562 -0.3082 -0.9525  0.0306
  168SAPE   H9R18969   5.204   0.987   7.640 -1.8870  2.0025  2.2168
  168SAPE  C21018970   4.992   1.013   7.619  1.1860  0.0276  0.2928
  168SAPE  H10R18971   4.913   1.004   7.541  2.1323  2.3170 -1.0210
  168SAPE  H10S18972   4.988   1.112   7.669  1.7702 -0.5472  1.5304
  168SAPE  C21118973   4.965   0.896   7.716  0.2027 -0.8333  0.4299
  168SAPE  H11R18974   5.002   0.804   7.668  2.6225  0.8432 -1.1390
  168SAPE  C21218975   4.941   0.905   7.849  0.1112 -0.1527 -0.8937
  168SAPE  H12R18976   4.936   0.813   7.910  0.1727  1.3225  1.4991
  168SAPE  C21318977   4.929   1.028   7.929  0.8014  0.6550 -0.2176
  168SAPE  H13R18978   4.820   1.052   7.932  0.3369 -1.3522  0.3694
  168SAPE  H13S18979   4.972   1.119   7.883  1.0489  0.8721  0.4332
  168SAPE  C21418980   4.975   1.026   8.069  0.5232  0.3552 -0.8158
  168SAPE  H14R18981   5.066   0.965   8.077 -1.5033 -2.9516 -0.9896
  168SAPE  C21518982   4.916   1.087   8.172 -0.6171  0.1024 -0.4488
  168SAPE  H15R18983   4.956   1.074   8.273 -1.6979  0.5033  0.0459
  168SAPE  C21618984   4.787   1.165   8.166  0.7244 -0.7575 -0.8779
  168SAPE  H16R18985   4.707   1.100   8.125 -1.8019  1.2996  0.5231
  168SAPE  H16S18986   4.794   1.268   8.127  1.9076 -0.1704  0.7852
  168SAPE  C21718987   4.733   1.197   8.306 -0.8460  1.1834 -0.5298
  168SAPE  H17R18988   4.647   1.267   8.313 -0.1923  1.9530  0.0294
  168SAPE  H17S18989   4.811   1.263   8.351 -0.8613 -0.3501  1.9319
  168SAPE  C21818990   4.701   1.069   8.388 -0.6235 -0.1593  0.2146
  168SAPE  H18R18991   4.778   0.990   8.375  0.6557  1.1849 -0.7721
  168SAPE  H18S18992   4.599   1.034   8.362 -0.7129 -0.9307  1.5333
  168SAPE  C21918993   4.684   1.114   8.537 -0.3168  0.4934  0.2763
  168SAPE  H19R18994   4.597   1.182   8.546 -0.5825  0.5291 -1.9793
  168SAPE  H19S18995   4.773   1.172   8.571 -0.8152  1.3667  0.1150
  168SAPE  C22018996   4.662   1.004   8.634 -0.1099  0.2627  0.2539
  168SAPE  H20R18997   4.741   0.927   8.627  0.0177  0.4432 -0.3821
  168SAPE  H20S18998   4.567   0.949   8.619  0.3106 -0.0374 -1.5002
  168SAPE  H20T18999   4.650   1.048   8.736 -2.8293  2.0824 -0.7233
  168SAPE   C3319000   4.487   1.593   7.295 -0.3634  0.1791 -0.3869
  168SAPE   H3X19001   4.405   1.666   7.310 -2.2909 -2.2198  1.6619
  168SAPE   H3Y19002   4.580   1.651   7.280 -0.1731 -0.0045  0.0568
  168SAPE   C3419003   4.510   1.516   7.421  0.9627 -0.0004 -0.5425
  168SAPE   H4X19004   4.595   1.448   7.396  1.1715  0.5286 -1.2936
  168SAPE   H4Y19005   4.422   1.451   7.441  2.0885 -0.5653  3.7272
  168SAPE   C3519006   4.532   1.607   7.541  0.3455  0.6913  0.4453
  168SAPE   H5X19007   4.449   1.681   7.538 -0.6482 -0.3962 -2.3223
  168SAPE   H5Y19008   4.620   1.673   7.526 -0.3268  1.7699  1.0958
  168SAPE   C3619009   4.528   1.533   7.670  0.6915  0.7971 -0.3759
  168SAPE   H6X19010   4.599   1.449   7.668  1.2610  1.2360  0.5244
  168SAPE   H6Y19011   4.424   1.498   7.688  1.1259 -0.2955  0.0589
  168SAPE   C3719012   4.565   1.618   7.794 -0.6269  0.0768 -0.6835
  168SAPE   H7X19013   4.492   1.700   7.813 -0.8656 -0.5336  1.3113
  168SAPE   H7Y19014   4.664   1.660   7.767 -1.4558  1.0677 -2.3289
  168SAPE   C3819015   4.565   1.548   7.927 -0.0787 -0.0273  0.0375
  168SAPE   H8X19016   4.623   1.454   7.916 -0.4049 -0.1128 -1.1965
  168SAPE   H8Y19017   4.459   1.527   7.952 -0.2373  2.3690  1.6890
  168SAPE   C3919018   4.601   1.642   8.035 -0.6739 -0.1719  0.2428
  168SAPE   H9X19019   4.559   1.742   8.010 -1.0963 -0.4667 -0.2352
  168SAPE   H9Y19020   4.710   1.661   8.050 -0.5359 -0.3775 -0.4826
  168SAPE  C31019021   4.535   1.613   8.177 -0.0584 -0.7061  1.6833
  168SAPE  H10X19022   4.575   1.520   8.222  1.0168 -0.3416  1.4981
  168SAPE  H10Y19023   4.424   1.603   8.174 -0.3866  1.2171 -3.3499
  168SAPE  C31119024   4.572   1.726   8.282 -0.2124 -0.6813  0.3171
  168SAPE  H11X19025   4.598   1.820   8.230 -2.6332  0.3499  0.8357
  168SAPE  H11Y19026   4.658   1.699   8.347 -0.4812  0.6968  1.2681
  168SAPE  C31219027   4.459   1.752   8.375  0.1748 -1.0875  0.8200
  168SAPE  H12X19028   4.438   1.650   8.413  2.8258 -1.9433  0.1945
  168SAPE  H12Y19029   4.370   1.792   8.322  0.2091  0.2320  1.7058
  168SAPE  C31319030   4.488   1.843   8.492  0.1941  0.7369  0.4106
  168SAPE  H13X19031   4.422   1.931   8.477 -3.0353 -1.5507  0.2465
  168SAPE  H13Y19032   4.596   1.871   8.494  0.5624 -0.4165 -1.3548
  168SAPE  C31419033   4.451   1.784   8.631  0.2239  0.3488  0.6116
  168SAPE  H14X19034   4.527   1.704   8.641 -0.4828 -0.2634  1.1610
  168SAPE  H14Y19035   4.347   1.745   8.636  0.5660 -0.4949  1.4782
  168SAPE  C31519036   4.484   1.883   8.749  0.4379  0.2063  0.3786
  168SAPE  H15X19037   4.408   1.961   8.768  2.3399  1.7477  2.0810
  168SAPE  H15Y19038   4.577   1.934   8.716 -0.6346  1.2519 -1.1579
  168SAPE  C31619039   4.511   1.826   8.885  0.4902  0.6522  0.1085
  168SAPE  H16X19040   4.610   1.777   8.892  0.7355  0.9875 -0.7909
  168SAPE  H16Y19041   4.433   1.753   8.915  2.8113 -1.3814  1.5987
  168SAPE  C31719042   4.501   1.942   8.985 -0.1699  0.2660  0.4136
  168SAPE  H17X19043   4.402   1.988   8.965  0.6628  1.3060 -1.7029
  168SAPE  H17Y19044   4.576   2.023   8.970 -1.6268  1.5531 -0.1514
  168SAPE  C31819045   4.504   1.884   9.126  0.4333 -0.0838  0.4156
  168SAPE  H18X19046   4.610   1.856   9.141  0.1023 -0.5220  2.1528
  168SAPE  H18Y19047   4.433   1.798   9.127 -1.5474  1.4058 -1.2177
  168SAPE  H18Z19048   4.469   1.963   9.196 -1.5193 -1.3858  0.9914
  169SAPE     N19049   4.774   3.576   6.329  0.6021  0.0504  0.3336
  169SAPE   HN119050   4.814   3.537   6.417 -1.1339 -0.6672  0.8498
  169SAPE   HN219051   4.721   3.666   6.337  2.2433  1.2132 -1.0656
  169SAPE   HN319052   4.711   3.502   6.292  0.6301 -0.3413  1.0599
  169SAPE   C1219053   4.877   3.585   6.226 -0.2331  0.1993  0.4586
  169SAPE  H12A19054   4.836   3.622   6.129  0.2030  1.1162  0.6194
  169SAPE  H12B19055   4.926   3.486   6.216 -0.5824  0.1371 -1.0089
  169SAPE   C1119056   4.995   3.678   6.276  1.4845  0.1679 -0.0158
  169SAPE  H11A19057   5.079   3.671   6.204  1.1669  1.6859 -0.5850
  169SAPE  H11B19058   5.036   3.628   6.366  1.1488  0.4985  0.3257
  169SAPE     P19059   5.067   3.929   6.318  0.3273  0.2735  0.1676
  169SAPE   O1319060   5.203   3.873   6.299 -0.3482  0.2374  0.3024
  169SAPE   O1419061   5.030   4.033   6.219  0.0272  0.0655  0.4171
  169SAPE   O1219062   4.956   3.814   6.306 -0.6363 -0.2322 -1.2747
  169SAPE   O1119063   5.047   3.973   6.465  0.2728 -0.0099 -0.1232
  169SAPE    C119064   4.940   3.944   6.556  0.5056  0.2284  0.1221
  169SAPE    HA19065   4.916   4.021   6.633 -2.2373 -0.0600 -0.3405
  169SAPE    HB19066   4.844   3.927   6.502  0.3508 -1.2757  0.8368
  169SAPE    C219067   4.974   3.814   6.636 -0.3751  0.3781 -0.6695
  169SAPE    HS19068   4.971   3.731   6.562 -1.3198 -1.2647  1.1132
  169SAPE   O2119069   4.882   3.803   6.745  0.5414  0.0369 -0.5388
  169SAPE   C2119070   4.755   3.752   6.724  0.2565 -0.2995  0.1095
  169SAPE   O2219071   4.733   3.686   6.625  0.3256  0.2357 -0.1571
  169SAPE   C2219072   4.668   3.786   6.848 -0.4002  0.5838 -0.4877
  169SAPE   H2R19073   4.716   3.865   6.909 -1.1355  2.1749 -1.8739
  169SAPE   H2S19074   4.586   3.842   6.798  0.3439 -0.0851 -2.5756
  169SAPE    C319075   5.123   3.822   6.685  0.1797 -0.1877 -0.7666
  169SAPE    HX19076   5.152   3.928   6.704  0.6155 -0.2350 -1.1386
  169SAPE    HY19077   5.187   3.799   6.596  0.5808  0.3757 -0.6306
  169SAPE   O3119078   5.153   3.745   6.809  0.7309  0.1510 -0.0018
  169SAPE   C3119079   5.116   3.621   6.812  0.4237 -0.2501 -0.6442
  169SAPE   O3219080   5.079   3.553   6.720  0.3023  0.2356 -0.1525
  169SAPE   C3219081   5.145   3.577   6.953  0.6363  0.4006  0.3688
  169SAPE   H2X19082   5.119   3.654   7.028 -0.5452 -1.4994  2.0272
  169SAPE   H2Y19083   5.256   3.576   6.950  0.6419 -1.6548 -1.8044
  169SAPE   C2319084   4.607   3.665   6.917 -0.4583  0.2043 -0.3840
  169SAPE   H3R19085   4.689   3.607   6.965  0.2943 -0.2144 -2.1303
  169SAPE   H3S19086   4.552   3.601   6.844 -1.0899  0.4663 -0.1501
  169SAPE   C2419087   4.514   3.719   7.036 -0.1268  0.3030  0.6418
  169SAPE   H4R19088   4.439   3.782   6.984  0.2149  1.3366  1.3724
  169SAPE   H4S19089   4.576   3.776   7.109 -2.2916  2.9198  0.5715
  169SAPE   C2519090   4.436   3.616   7.107 -0.2231 -0.0053  0.1874
  169SAPE   H5R19091   4.383   3.547   7.040  1.7910 -2.4561  0.9316
  169SAPE   C2619092   4.432   3.580   7.235  0.1981  0.1644 -0.3440
  169SAPE   H6R19093   4.361   3.505   7.274 -1.3470  0.7571 -1.8958
  169SAPE   C2719094   4.508   3.654   7.346 -0.6392  0.0352  0.6755
  169SAPE   H7R19095   4.432   3.669   7.426 -0.7574  0.3461  0.5064
  169SAPE   H7S19096   4.522   3.759   7.314  0.2932 -0.5936 -1.0868
  169SAPE   C2819097   4.637   3.585   7.386 -0.1256 -0.0923 -0.7512
  169SAPE   H8R19098   4.720   3.564   7.318  0.3293  1.3342 -0.6784
  169SAPE   C2919099   4.659   3.548   7.512  0.2075 -0.4801 -0.1145
  169SAPE   H9R19100   4.759   3.507   7.535  0.7050  0.7738  0.0788
  169SAPE  C21019101   4.559   3.560   7.622  0.0696  0.5719 -0.3205
  169SAPE  H10R19102   4.596   3.492   7.702  2.2655 -1.6845 -3.0373
  169SAPE  H10S19103   4.467   3.510   7.586  0.4486  0.1755 -0.7565
  169SAPE  C21119104   4.529   3.693   7.688 -0.5488  0.3254 -0.1876
  169SAPE  H11R19105   4.449   3.751   7.640 -1.5850  1.1595  2.3776
  169SAPE  C21219106   4.587   3.749   7.797 -0.7459  0.8730  0.1253
  169SAPE  H12R19107   4.549   3.845   7.833  1.2109  1.7215  0.0582
  169SAPE  C21319108   4.702   3.688   7.877 -0.2286  0.4908 -1.3291
  169SAPE  H13R19109   4.802   3.726   7.849 -0.4306  1.6004 -0.6243
  169SAPE  H13S19110   4.703   3.577   7.879 -0.5423  0.4763 -1.8018
  169SAPE  C21419111   4.697   3.737   8.023  0.1687 -0.1868 -0.0382
  169SAPE  H14R19112   4.666   3.843   8.023  1.9312  0.3846  0.5095
  169SAPE  C21519113   4.711   3.670   8.141 -0.0378 -0.7511 -0.4171
  169SAPE  H15R19114   4.729   3.739   8.225 -0.5831 -0.4461 -0.5421
  169SAPE  C21619115   4.749   3.527   8.156  0.2196  0.1618 -0.3163
  169SAPE  H16R19116   4.832   3.517   8.229 -0.7324 -0.0680  0.7636
  169SAPE  H16S19117   4.778   3.471   8.064 -0.7406 -0.7772 -0.0628
  169SAPE  C21719118   4.636   3.437   8.219  0.4490 -0.3457  0.1578
  169SAPE  H17R19119   4.539   3.456   8.167  1.1629  0.8619 -0.8002
  169SAPE  H17S19120   4.611   3.471   8.322  0.4072 -3.2178  1.1604
  169SAPE  C21819121   4.688   3.296   8.210 -0.6364  0.0703 -0.3158
  169SAPE  H18R19122   4.765   3.288   8.131 -0.4460  2.7017 -0.4788
  169SAPE  H18S19123   4.612   3.220   8.181 -1.0236  0.7838 -1.2265
  169SAPE  C21919124   4.741   3.236   8.344  0.0951 -0.0737 -0.0036
  169SAPE  H19R19125   4.791   3.139   8.323  1.6869  0.5351  0.7724
  169SAPE  H19S19126   4.648   3.226   8.405 -1.2454 -1.8908 -2.2102
  169SAPE  C22019127   4.841   3.316   8.415  0.0711  0.1722 -0.3086
  169SAPE  H20R19128   4.935   3.334   8.358  0.3248  0.1437  0.0965
  169SAPE  H20S19129   4.854   3.276   8.518  0.2353  1.1200  0.0505
  169SAPE  H20T19130   4.793   3.416   8.430 -1.0584  0.2453 -3.6370
  169SAPE   C3319131   5.087   3.451   7.003 -0.4145 -0.3587 -0.4297
  169SAPE   H3X19132   5.089   3.366   6.932 -1.2408 -0.7612  0.0115
  169SAPE   H3Y19133   4.978   3.460   7.022 -0.1944 -2.4581  2.5630
  169SAPE   C3419134   5.154   3.403   7.136 -0.1541 -0.0715 -0.7382
  169SAPE   H4X19135   5.259   3.368   7.121 -0.1762  0.0692 -1.2356
  169SAPE   H4Y19136   5.106   3.305   7.157  0.4123 -0.0168  1.0727
  169SAPE   C3519137   5.155   3.496   7.262 -0.6185  0.4608 -0.2562
  169SAPE   H5X19138   5.050   3.531   7.273 -0.9286 -0.5885  0.2304
  169SAPE   H5Y19139   5.223   3.581   7.238  1.3491 -1.3283 -1.3048
  169SAPE   C3619140   5.175   3.426   7.399  0.1950  0.0732 -0.5341
  169SAPE   H6X19141   5.282   3.406   7.419  0.2055  0.7052  0.0780
  169SAPE   H6Y19142   5.119   3.330   7.392  1.0306 -0.3726 -1.2643
  169SAPE   C3719143   5.123   3.499   7.523  0.2399  0.8266 -0.3607
  169SAPE   H7X19144   5.027   3.543   7.489  0.7799  2.3642  0.0216
  169SAPE   H7Y19145   5.196   3.576   7.554  2.7504 -1.3820 -0.4345
  169SAPE   C3819146   5.112   3.410   7.656 -0.5370 -0.1847  0.0847
  169SAPE   H8X19147   5.213   3.388   7.696 -0.7685  1.4304  1.7114
  169SAPE   H8Y19148   5.073   3.313   7.619  1.9384 -1.7346  1.2454
  169SAPE   C3919149   5.016   3.472   7.749 -0.4599 -0.2549 -0.2269
  169SAPE   H9X19150   4.911   3.439   7.736 -0.4613 -0.2803 -0.1531
  169SAPE   H9Y19151   5.020   3.582   7.738 -0.7730 -0.2699 -0.4829
  169SAPE  C31019152   5.047   3.425   7.894 -0.4187 -0.9459  0.6567
  169SAPE  H10X19153   4.983   3.487   7.960  2.0272  2.6846 -0.0700
  169SAPE  H10Y19154   5.153   3.450   7.913 -1.0482  0.8775  2.0079
  169SAPE  C31119155   5.035   3.276   7.910 -0.0854 -0.8250 -0.1071
  169SAPE  H11X19156   5.108   3.227   7.842 -0.0711  0.0561 -0.7401
  169SAPE  H11Y19157   4.935   3.230   7.894  0.3455 -3.7333  3.9441
  169SAPE  C31219158   5.061   3.239   8.058  0.4614 -0.5696 -0.5138
  169SAPE  H12X19159   4.992   3.296   8.124  0.9694  0.7701 -1.0955
  169SAPE  H12Y19160   5.155   3.285   8.097 -1.1578  1.6970  0.9850
  169SAPE  C31319161   5.084   3.090   8.084 -0.7046 -0.7757 -1.0256
  169SAPE  H13X19162   5.162   3.059   8.011 -0.4857  0.5669 -1.3815
  169SAPE  H13Y19163   4.991   3.033   8.062 -1.7679  0.8798 -0.9351
  169SAPE  C31419164   5.141   3.050   8.220 -0.5849  0.1258  0.2531
  169SAPE  H14X19165   5.085   3.098   8.303  0.3659  1.5555  0.1187
  169SAPE  H14Y19166   5.245   3.090   8.216 -0.9710  1.1376 -0.0480
  169SAPE  C31519167   5.139   2.898   8.239  0.6334  0.4287  0.2903
  169SAPE  H15X19168   5.142   2.857   8.135 -2.0623  0.5174  0.0981
  169SAPE  H15Y19169   5.038   2.873   8.278  0.6396  0.6182  0.4278
  169SAPE  C31619170   5.240   2.835   8.335  0.3247  0.4092  0.4748
  169SAPE  H16X19171   5.339   2.861   8.292 -0.4213  1.4562 -0.6712
  169SAPE  H16Y19172   5.225   2.725   8.329  2.6371 -0.1439  3.0376
  169SAPE  C31719173   5.216   2.875   8.484  0.2240  0.1718  0.8254
  169SAPE  H17X19174   5.109   2.856   8.508 -0.4237  0.9775 -1.2320
  169SAPE  H17Y19175   5.230   2.984   8.502 -3.7100  1.1311 -0.8045
  169SAPE  C31819176   5.313   2.798   8.571 -0.2845 -0.3433  0.5674
  169SAPE  H18X19177   5.417   2.837   8.575 -0.6169  1.1130 -2.2708
  169SAPE  H18Y19178   5.310   2.691   8.539  2.0224 -0.2099 -0.2618
  169SAPE  H18Z19179   5.265   2.804   8.671 -0.2941 -0.9043  0.5981
  170SAPE     N19180   3.717   1.979   5.955  0.3346 -0.0940 -0.1438
  170SAPE   HN119181   3.654   1.947   5.878  0.1763  0.4543 -0.2456
  170SAPE   HN219182   3.796   1.911   5.955 -0.0886 -0.6564  1.7160
  170SAPE   HN319183   3.670   1.967   6.047 -1.4984  0.0419 -1.0176
  170SAPE   C1219184   3.784   2.111   5.940 -0.3019  0.1678  0.3660
  170SAPE  H12A19185   3.707   2.177   5.896  0.9604  0.4754 -1.4791
  170SAPE  H12B19186   3.835   2.095   5.843 -3.5876  1.2482 -1.7231
  170SAPE   C1119187   3.868   2.160   6.055 -0.4712  0.3786 -0.6763
  170SAPE  H11A19188   3.819   2.173   6.153 -1.3596 -1.6156 -0.7945
  170SAPE  H11B19189   3.922   2.253   6.029 -1.8312  2.1668  2.4139
  170SAPE     P19190   4.076   2.063   6.191 -0.1641  0.0938 -0.1081
  170SAPE   O1319191   4.180   1.960   6.168 -0.7767  0.1821 -0.2940
  170SAPE   O1419192   4.136   2.197   6.218  0.3544  0.1433  0.2500
  170SAPE   O1219193   3.979   2.063   6.069 -0.1587 -0.4258 -0.3000
  170SAPE   O1119194   3.985   2.028   6.310 -0.1627  0.3156 -0.0188
  170SAPE    C119195   3.881   1.925   6.307  0.3295  0.1909 -0.3252
  170SAPE    HA19196   3.785   1.973   6.336 -2.1689 -4.3185 -0.1675
  170SAPE    HB19197   3.866   1.873   6.210 -2.4495  0.5849 -0.1977
  170SAPE    C219198   3.898   1.826   6.429 -0.3949 -0.5849  0.0012
  170SAPE    HS19199   3.854   1.729   6.396  0.8765 -1.3681  0.5290
  170SAPE   O2119200   3.859   1.885   6.554  0.2460  0.0309  0.5396
  170SAPE   C2119201   3.732   1.870   6.574  0.3826 -0.2769 -0.2904
  170SAPE   O2219202   3.659   1.792   6.518 -0.6501  0.3904 -0.0172
  170SAPE   C2219203   3.689   1.976   6.678  0.2937  0.0751  0.2031
  170SAPE   H2R19204   3.725   2.073   6.638  1.0708 -0.9774 -1.7964
  170SAPE   H2S19205   3.579   1.993   6.684  0.9236  5.3281  1.7096
  170SAPE    C319206   4.050   1.784   6.449  0.5391  0.3097  0.0115
  170SAPE    HX19207   4.118   1.869   6.468 -2.6769  2.3896  3.4166
  170SAPE    HY19208   4.081   1.726   6.359 -0.3156  1.0935 -0.8191
  170SAPE   O3119209   4.050   1.683   6.551  0.6618 -0.1595 -0.2072
  170SAPE   C3119210   4.118   1.706   6.667 -0.1515  0.3732 -0.2888
  170SAPE   O3219211   4.204   1.795   6.681  0.0036  0.6351  0.3117
  170SAPE   C3219212   4.067   1.612   6.766  0.7171 -0.2192 -0.5002
  170SAPE   H2X19213   4.111   1.510   6.756  2.6068  0.2862  1.7780
  170SAPE   H2Y19214   3.956   1.603   6.764  0.5213  1.4908  0.7066
  170SAPE   C2319215   3.745   1.957   6.811 -0.0578 -0.2759 -0.3785
  170SAPE   H3R19216   3.703   2.035   6.878  0.9717  0.5515 -0.6658
  170SAPE   H3S19217   3.853   1.985   6.812 -0.8236  3.2545 -1.0226
  170SAPE   C2419218   3.727   1.820   6.878 -0.5973 -0.5199  1.2542
  170SAPE   H4R19219   3.794   1.823   6.967 -0.3455 -3.0657  1.2287
  170SAPE   H4S19220   3.774   1.748   6.807  1.8884  1.7453  0.4484
  170SAPE   C2519221   3.587   1.777   6.915 -0.6528  0.5834 -0.2268
  170SAPE   H5R19222   3.527   1.732   6.835 -1.0031 -0.6326  0.6941
  170SAPE   C2619223   3.538   1.794   7.043 -0.1628 -0.2266 -0.1753
  170SAPE   H6R19224   3.439   1.747   7.056 -0.9119  0.0341 -3.8412
  170SAPE   C2719225   3.610   1.859   7.157 -0.2216  0.0703  0.5843
  170SAPE   H7R19226   3.524   1.881   7.224 -1.1185  1.0271 -0.8134
  170SAPE   H7S19227   3.651   1.955   7.118  0.3896 -0.3049  0.2821
  170SAPE   C2819228   3.716   1.772   7.224  0.1571 -0.4004  0.3063
  170SAPE   H8R19229   3.790   1.733   7.152  0.0445 -1.1561  0.5995
  170SAPE   C2919230   3.722   1.744   7.354  0.1769 -0.1989  0.6323
  170SAPE   H9R19231   3.796   1.669   7.387  1.4775  0.3340 -0.9438
  170SAPE  C21019232   3.622   1.794   7.457 -0.4574  0.5853 -0.4468
  170SAPE  H10R19233   3.617   1.722   7.542 -0.1185 -0.7530 -1.5321
  170SAPE  H10S19234   3.523   1.793   7.406 -0.2155 -0.1542 -0.9142
  170SAPE  C21119235   3.659   1.929   7.511  0.4968 -0.2178  0.1957
  170SAPE  H11R19236   3.705   2.003   7.443  1.3200 -0.6042  0.3102
  170SAPE  C21219237   3.635   1.968   7.637  0.2884 -0.3431  0.1068
  170SAPE  H12R19238   3.645   2.070   7.675 -0.8889  0.4787 -1.6772
  170SAPE  C21319239   3.565   1.884   7.741 -0.4915 -0.0606  0.7882
  170SAPE  H13R19240   3.482   1.824   7.697 -0.8675  0.3759  0.9008
  170SAPE  H13S19241   3.509   1.956   7.804 -0.9617 -0.7717  1.1963
  170SAPE  C21419242   3.658   1.804   7.841  0.6974 -0.0311  0.6301
  170SAPE  H14R19243   3.698   1.707   7.809  1.1516 -0.4336  2.2931
  170SAPE  C21519244   3.716   1.856   7.949 -0.1731 -0.9506 -0.4305
  170SAPE  H15R19245   3.780   1.789   8.008 -0.2446 -1.0247 -0.4362
  170SAPE  C21619246   3.686   1.994   7.997 -0.0381  0.0497 -0.6603
  170SAPE  H16R19247   3.581   1.986   8.030 -0.5795  1.0584 -2.0657
  170SAPE  H16S19248   3.689   2.071   7.917 -1.6749 -0.6691 -1.4538
  170SAPE  C21719249   3.774   2.043   8.116  0.5137 -0.5565 -0.4442
  170SAPE  H17R19250   3.880   2.031   8.084  0.6485  2.1934 -1.2460
  170SAPE  H17S19251   3.747   1.986   8.208 -1.7112 -0.7946 -1.1792
  170SAPE  C21819252   3.742   2.189   8.135  0.0093 -0.2072 -0.0043
  170SAPE  H18R19253   3.637   2.190   8.172 -0.2993 -1.5328 -0.8128
  170SAPE  H18S19254   3.756   2.249   8.043 -0.4948 -1.3888 -0.8750
  170SAPE  C21919255   3.832   2.256   8.238 -0.2637  0.2460  0.5760
  170SAPE  H19R19256   3.812   2.365   8.246  0.4065  0.4065  0.1541
  170SAPE  H19S19257   3.937   2.263   8.201 -0.4459 -2.8273 -0.8553
  170SAPE  C22019258   3.835   2.194   8.376  0.1295 -0.1859  0.0902
  170SAPE  H20R19259   3.903   2.106   8.369 -2.8554 -2.5357 -3.1581
  170SAPE  H20S19260   3.739   2.142   8.398  0.0338 -1.4737 -2.9020
  170SAPE  H20T19261   3.873   2.269   8.450 -1.5334  0.8095 -0.0271
  170SAPE   C3319262   4.099   1.652   6.916 -0.1429  0.1515 -0.5474
  170SAPE   H3X19263   4.058   1.754   6.931 -1.2517 -0.0713 -1.8297
  170SAPE   H3Y19264   4.209   1.652   6.933 -0.4341  0.8039  1.6214
  170SAPE   C3419265   4.013   1.559   7.008  0.4258 -0.0589  0.0558
  170SAPE   H4X19266   4.016   1.455   6.970 -1.9155  0.4515 -1.7904
  170SAPE   H4Y19267   3.904   1.584   7.005  0.4039  0.7343  3.3330
  170SAPE   C3519268   4.063   1.566   7.153 -1.1352 -0.7049 -0.3394
  170SAPE   H5X19269   4.062   1.671   7.189  0.5303 -0.9286  0.4539
  170SAPE   H5Y19270   4.166   1.526   7.144 -0.4822 -0.1357  3.1284
  170SAPE   C3619271   3.997   1.475   7.254  0.3057 -0.0065  0.5401
  170SAPE   H6X19272   4.012   1.369   7.224 -3.6373 -0.0719 -2.0677
  170SAPE   H6Y19273   3.890   1.507   7.260  0.3809 -0.0095  2.5317
  170SAPE   C3719274   4.066   1.485   7.388 -0.3647  0.5391  0.0948
  170SAPE   H7X19275   4.088   1.593   7.403  4.1518 -0.1793  0.0186
  170SAPE   H7Y19276   4.165   1.438   7.375 -0.9994 -0.9864  0.6018
  170SAPE   C3819277   3.977   1.433   7.503 -0.5035 -0.1196 -0.4560
  170SAPE   H8X19278   3.978   1.323   7.523  0.1112  0.0036  0.2300
  170SAPE   H8Y19279   3.877   1.480   7.492 -1.1821 -0.5289  3.0019
  170SAPE   C3919280   4.029   1.488   7.638  0.8411 -0.7151  0.0177
  170SAPE   H9X19281   4.069   1.589   7.615 -1.4881  0.1220 -0.7046
  170SAPE   H9Y19282   4.114   1.431   7.681  0.9892 -1.3419 -1.0836
  170SAPE  C31019283   3.919   1.507   7.742 -0.1230  0.3038  0.7441
  170SAPE  H10X19284   3.848   1.422   7.755 -1.1677  1.0812  0.3619
  170SAPE  H10Y19285   3.859   1.587   7.693  1.0463  0.4833 -0.4459
  170SAPE  C31119286   3.969   1.545   7.876 -0.8376  0.3672 -0.6242
  170SAPE  H11X19287   3.891   1.588   7.942  0.9427  1.8860  0.6236
  170SAPE  H11Y19288   4.041   1.629   7.863 -0.4726  0.2705  0.6031
  170SAPE  C31219289   4.049   1.436   7.951  0.0527  0.4712  0.1440
  170SAPE  H12X19290   4.158   1.449   7.933  0.0860 -0.1058 -0.0952
  170SAPE  H12Y19291   4.023   1.338   7.905 -4.7130  2.2422 -1.5626
  170SAPE  C31319292   4.021   1.421   8.104  0.2139  0.1151  0.1653
  170SAPE  H13X19293   3.915   1.387   8.104  0.5735 -1.1225 -1.3710
  170SAPE  H13Y19294   4.028   1.515   8.163 -1.0701 -0.0812  0.6498
  170SAPE  C31419295   4.103   1.309   8.180  0.1876  0.2349  1.2818
  170SAPE  H14X19296   4.131   1.223   8.116 -0.1309 -1.6146  3.4890
  170SAPE  H14Y19297   4.033   1.277   8.261  1.3430 -0.6306  1.9767
  170SAPE  C31519298   4.236   1.346   8.239 -0.0143 -0.0943 -0.3075
  170SAPE  H15X19299   4.244   1.449   8.279 -2.2469  0.3125 -0.8001
  170SAPE  H15Y19300   4.317   1.334   8.164 -0.2394 -0.5642 -0.4833
  170SAPE  C31619301   4.268   1.251   8.366 -0.3376 -0.4986 -0.1865
  170SAPE  H16X19302   4.204   1.285   8.450  2.2559  0.7210  1.4219
  170SAPE  H16Y19303   4.372   1.275   8.398 -1.2533  2.0344  1.1647
  170SAPE  C31719304   4.267   1.101   8.334  0.9845 -0.6182 -0.8210
  170SAPE  H17X19305   4.354   1.083   8.267  1.1855 -0.2743 -0.6568
  170SAPE  H17Y19306   4.179   1.069   8.275  1.3282  1.0899 -2.3786
  170SAPE  C31819307   4.286   1.023   8.466  0.2875 -0.1611  0.2602
  170SAPE  H18X19308   4.190   1.022   8.523  1.1041  0.3166  1.6917
  170SAPE  H18Y19309   4.368   1.060   8.530  0.0068 -0.5745  0.8585
  170SAPE  H18Z19310   4.304   0.916   8.447  1.6027 -0.7081  3.9069
  171SAPE     N19311   0.847   2.166   6.170  0.0910  0.3961  0.1754
  171SAPE   HN119312   0.786   2.219   6.104  2.0526  2.5314 -0.0398
  171SAPE   HN219313   0.849   2.232   6.251  0.6023 -1.2780  1.5992
  171SAPE   HN319314   0.941   2.163   6.126 -0.7492  1.0131 -1.7601
  171SAPE   C1219315   0.799   2.029   6.201 -0.3586  0.2014 -0.3723
  171SAPE  H12A19316   0.878   1.977   6.259  1.0475  1.9625 -0.6295
  171SAPE  H12B19317   0.797   1.976   6.103 -0.4337 -1.5599  0.5291
  171SAPE   C1119318   0.659   2.033   6.269 -0.3472  0.3990 -0.2723
  171SAPE  H11A19319   0.673   2.074   6.371 -1.6664  1.1326 -0.3599
  171SAPE  H11B19320   0.623   1.929   6.281 -1.5000  0.9317  1.2955
  171SAPE     P19321   0.479   2.207   6.256  0.1542 -0.3827  0.1447
  171SAPE   O1319322   0.552   2.329   6.291 -0.3353 -0.1180  1.0607
  171SAPE   O1419323   0.354   2.222   6.169 -0.2427 -0.0652  0.1850
  171SAPE   O1219324   0.573   2.101   6.186  0.2030  0.3490 -0.0021
  171SAPE   O1119325   0.440   2.145   6.396  0.3905  0.4191 -0.4723
  171SAPE    C119326   0.337   2.038   6.392 -0.1884  0.1190 -0.5034
  171SAPE    HA19327   0.234   2.077   6.376  0.3796  1.1277 -1.9222
  171SAPE    HB19328   0.357   1.962   6.314  1.4208 -0.7818  0.7310
  171SAPE    C219329   0.335   1.952   6.521 -0.3979 -0.1983  0.2600
  171SAPE    HS19330   0.248   1.884   6.510 -1.4894  1.4798 -3.1907
  171SAPE   O2119331   0.318   2.033   6.636 -0.0422 -0.2075  0.0469
  171SAPE   C2119332   0.195   2.072   6.667 -0.8035  0.0025  0.3955
  171SAPE   O2219333   0.104   2.066   6.585  0.4256 -0.5493  0.6218
  171SAPE   C2219334   0.188   2.113   6.817 -1.0338  0.0172 -0.5830
  171SAPE   H2R19335   0.267   2.057   6.872  1.4759  1.6113 -2.3518
  171SAPE   H2S19336   0.221   2.219   6.820 -0.2409 -0.1752 -1.7763
  171SAPE    C319337   0.465   1.871   6.522  0.2442 -0.3260 -0.2196
  171SAPE    HX19338   0.546   1.946   6.515 -0.6060  0.4843 -2.8456
  171SAPE    HY19339   0.471   1.802   6.434  1.8629 -2.3706  1.3850
  171SAPE   O3119340   0.469   1.801   6.641 -0.3460  0.3764 -0.2037
  171SAPE   C3119341   0.539   1.854   6.746 -0.3671 -0.5020 -0.3346
  171SAPE   O3219342   0.618   1.947   6.731  0.2200  0.1475 -0.2205
  171SAPE   C3219343   0.514   1.767   6.860 -0.2870 -0.4674 -0.2057
  171SAPE   H2X19344   0.594   1.690   6.852  1.9967  1.8984 -1.4064
  171SAPE   H2Y19345   0.414   1.718   6.853 -0.7228  0.0504  1.7169
  171SAPE   C2319346   0.040   2.103   6.870  0.4066  1.0175  0.4181
  171SAPE   H3R19347   0.001   2.000   6.857  0.1035  1.2438 -0.5044
  171SAPE   H3S19348  -0.021   2.160   6.797 -0.3827  0.2655  0.4708
  171SAPE   C2419349   0.019   2.148   7.018  0.8554  0.0301 -0.3380
  171SAPE   H4R19350  -0.090   2.153   7.039  0.9857  2.0297  0.0863
  171SAPE   H4S19351   0.039   2.257   7.007 -2.3984  0.6426 -1.1840
  171SAPE   C2519352   0.095   2.061   7.108 -0.0159  0.2609 -0.1819
  171SAPE   H5R19353   0.050   1.964   7.130  3.3486 -1.3106  0.3766
  171SAPE   C2619354   0.199   2.088   7.190  0.9862 -0.5441  0.6662
  171SAPE   H6R19355   0.241   2.005   7.249  0.3742  0.3958  2.4711
  171SAPE   C2719356   0.272   2.221   7.189  0.2958 -0.0746  0.0303
  171SAPE   H7R19357   0.250   2.274   7.284 -0.8967 -0.3861 -0.0628
  171SAPE   H7S19358   0.239   2.286   7.105  1.1070  1.0521  0.5679
  171SAPE   C2819359   0.415   2.195   7.183 -0.7113 -0.4273 -0.3957
  171SAPE   H8R19360   0.451   2.171   7.081 -0.1407  1.4203 -0.6686
  171SAPE   C2919361   0.506   2.213   7.282  0.3359 -0.2004  0.1080
  171SAPE   H9R19362   0.604   2.165   7.271  1.3067  1.6752  0.2009
  171SAPE  C21019363   0.471   2.257   7.424 -0.2610 -0.6218  0.2373
  171SAPE  H10R19364   0.540   2.193   7.484 -3.6312 -4.4827  0.4366
  171SAPE  H10S19365   0.366   2.232   7.449 -0.9761  1.0810 -0.8897
  171SAPE  C21119366   0.509   2.403   7.454 -0.3220  0.3538  0.0038
  171SAPE  H11R19367   0.502   2.473   7.370  3.1335  1.4303  0.4569
  171SAPE  C21219368   0.526   2.449   7.579 -0.2089  0.3872  0.1796
  171SAPE  H12R19369   0.561   2.551   7.599  0.8483  0.0777 -0.0665
  171SAPE  C21319370   0.515   2.371   7.701  0.2288  0.0523 -0.6170
  171SAPE  H13R19371   0.576   2.418   7.782  1.1247 -2.5250  0.3377
  171SAPE  H13S19372   0.542   2.264   7.688 -0.8714 -0.6164  1.8997
  171SAPE  C21419373   0.369   2.355   7.759 -0.1581  0.3635  0.5713
  171SAPE  H14R19374   0.296   2.427   7.719  0.6769 -0.0887 -1.9181
  171SAPE  C21519375   0.332   2.275   7.859  0.4314  0.0345 -0.1068
  171SAPE  H15R19376   0.226   2.275   7.889 -0.1252  0.0693 -1.9831
  171SAPE  C21619377   0.414   2.174   7.935  1.0273 -0.2121 -0.2592
  171SAPE  H16R19378   0.510   2.168   7.879  0.7836 -1.3707 -0.5641
  171SAPE  H16S19379   0.363   2.076   7.934 -0.4553  0.5296 -1.0699
  171SAPE  C21719380   0.428   2.219   8.077  0.6580  0.3290 -0.0966
  171SAPE  H17R19381   0.451   2.328   8.079 -1.9942  0.9738  2.1392
  171SAPE  H17S19382   0.512   2.161   8.120 -1.4008 -1.8427  1.2916
  171SAPE  C21819383   0.296   2.207   8.163  0.1163  0.4086  0.4494
  171SAPE  H18R19384   0.267   2.105   8.197  2.1031  0.5118  2.6644
  171SAPE  H18S19385   0.209   2.229   8.097  0.8655  1.0607 -0.3413
  171SAPE  C21919386   0.296   2.294   8.291  1.0073 -0.0215 -0.2857
  171SAPE  H19R19387   0.206   2.261   8.346  2.1314  0.7159  2.1097
  171SAPE  H19S19388   0.301   2.403   8.267  1.4234 -0.4425 -2.3125
  171SAPE  C22019389   0.408   2.260   8.381  0.0610  0.6771 -0.1688
  171SAPE  H20R19390   0.500   2.313   8.349 -0.9185  1.4756 -1.7699
  171SAPE  H20S19391   0.427   2.150   8.381 -2.3771  0.1764 -1.4818
  171SAPE  H20T19392   0.389   2.292   8.486 -0.2142 -3.3898  1.2092
  171SAPE   C3319393   0.525   1.823   7.007  0.4019 -0.4691 -0.3803
  171SAPE   H3X19394   0.454   1.908   7.015 -0.9872 -1.6774  0.8244
  171SAPE   H3Y19395   0.628   1.864   7.016  0.2375 -0.1114 -0.1100
  171SAPE   C3419396   0.502   1.723   7.117  0.6589 -0.5412 -0.5223
  171SAPE   H4X19397   0.580   1.645   7.130  0.1707 -0.9124  0.2222
  171SAPE   H4Y19398   0.415   1.660   7.090  0.5386 -0.1274 -1.1247
  171SAPE   C3519399   0.478   1.776   7.253 -0.0096 -0.8980  0.3306
  171SAPE   H5X19400   0.430   1.697   7.314 -1.4049 -1.5411 -1.5277
  171SAPE   H5Y19401   0.405   1.857   7.232 -0.8559 -1.8761 -0.5785
  171SAPE   C3619402   0.600   1.834   7.319 -0.5778  0.2061 -0.3524
  171SAPE   H6X19403   0.639   1.923   7.264 -1.8150  0.7141 -0.4242
  171SAPE   H6Y19404   0.679   1.761   7.293 -0.8361  0.2968 -1.4284
  171SAPE   C3719405   0.585   1.856   7.471 -0.1584  0.2071 -0.0870
  171SAPE   H7X19406   0.562   1.760   7.521  2.6683 -0.1482  0.6661
  171SAPE   H7Y19407   0.497   1.922   7.488 -0.2894  0.1856 -0.6356
  171SAPE   C3819408   0.716   1.906   7.534  0.0975  0.5680  0.8418
  171SAPE   H8X19409   0.757   1.999   7.490  1.0556 -0.0267  0.4554
  171SAPE   H8Y19410   0.786   1.820   7.539  0.1345  0.4563 -1.0087
  171SAPE   C3919411   0.681   1.954   7.678  0.5655 -0.0137 -0.6663
  171SAPE   H9X19412   0.623   1.879   7.736  1.3780 -0.5003 -0.4670
  171SAPE   H9Y19413   0.610   2.039   7.663  0.7177  0.7737  2.4821
  171SAPE  C31019414   0.806   2.007   7.763  0.2917  0.3642  0.1301
  171SAPE  H10X19415   0.842   2.106   7.731 -1.8079  1.0268 -0.3482
  171SAPE  H10Y19416   0.886   1.937   7.731 -0.0182  0.6321 -1.3197
  171SAPE  C31119417   0.788   1.997   7.913  0.4011  0.2112 -0.6163
  171SAPE  H11X19418   0.779   1.889   7.937  0.4505  0.2707 -0.3262
  171SAPE  H11Y19419   0.691   2.049   7.931 -0.9460 -2.2782 -0.1385
  171SAPE  C31219420   0.893   2.061   7.987 -0.1867  0.0586 -0.3043
  171SAPE  H12X19421   0.934   2.147   7.930  4.1175  0.6755  3.1457
  171SAPE  H12Y19422   0.979   1.990   7.994 -1.6155 -1.6285  1.1190
  171SAPE  C31319423   0.861   2.111   8.131 -0.1490  0.2946 -0.0922
  171SAPE  H13X19424   0.760   2.157   8.131  0.6945  2.6061 -3.7619
  171SAPE  H13Y19425   0.932   2.190   8.165 -3.0518  2.1843  2.1319
  171SAPE  C31419426   0.892   2.005   8.243  0.1456  0.5661  0.0651
  171SAPE  H14X19427   0.996   1.976   8.214 -1.0240 -2.6008 -1.4687
  171SAPE  H14Y19428   0.833   1.913   8.222 -1.2903  1.9147 -2.2737
  171SAPE  C31519429   0.900   2.063   8.382 -0.2109  0.9534  0.1853
  171SAPE  H15X19430   0.953   2.161   8.379 -1.9808  2.0349  1.9217
  171SAPE  H15Y19431   0.950   1.990   8.449  0.5217  1.3462  0.0821
  171SAPE  C31619432   0.767   2.084   8.448 -0.0320  0.2291 -0.2247
  171SAPE  H16X19433   0.706   2.153   8.386  0.4814  0.5251 -0.4050
  171SAPE  H16Y19434   0.789   2.135   8.544 -4.2084 -0.5061  1.3449
  171SAPE  C31719435   0.680   1.959   8.477 -0.1899 -0.1408 -0.0816
  171SAPE  H17X19436   0.659   1.899   8.386 -0.8069 -0.1701  0.0780
  171SAPE  H17Y19437   0.583   1.992   8.521 -0.8862 -1.7683 -0.3147
  171SAPE  C31819438   0.725   1.866   8.592 -0.2030  0.7878  0.4697
  171SAPE  H18X19439   0.655   1.783   8.614  1.6087 -0.6323  1.1407
  171SAPE  H18Y19440   0.748   1.917   8.688 -1.6089  0.3013  1.0827
  171SAPE  H18Z19441   0.821   1.821   8.558 -1.6235 -4.5930  2.6604
  172SAPE     N19442   5.336   0.480   6.318  0.5746  0.3399  0.2479
  172SAPE   HN119443   5.273   0.556   6.286 -0.9635 -0.2008  1.8661
  172SAPE   HN219444   5.282   0.394   6.342  0.8458  0.5858  1.8167
  172SAPE   HN319445   5.359   0.513   6.413  1.5672 -0.7064  0.3943
  172SAPE   C1219446   5.454   0.450   6.232 -0.4297  0.2275  0.8006
  172SAPE  H12A19447   5.428   0.403   6.135  0.6711  1.0318  0.1009
  172SAPE  H12B19448   5.512   0.375   6.289  0.1673  0.6611  0.7736
  172SAPE   C1119449   5.542   0.574   6.212 -0.2710  0.3595  0.7843
  172SAPE  H11A19450   5.498   0.630   6.127 -2.4844 -1.1031  0.8752
  172SAPE  H11B19451   5.644   0.542   6.182 -1.4506 -0.2203 -3.1722
  172SAPE     P19452   5.598   0.803   6.332  0.4136  0.0095  0.0117
  172SAPE   O1319453   5.592   0.862   6.197  0.1613 -0.0689 -0.4207
  172SAPE   O1419454   5.518   0.866   6.437 -0.1112 -0.0017  0.1440
  172SAPE   O1219455   5.557   0.654   6.329  0.0907 -0.5769  0.5157
  172SAPE   O1119456   5.751   0.789   6.381  0.1395 -0.5102  0.3499
  172SAPE    C119457   5.793   0.708   6.487 -0.6196 -0.2221 -0.1647
  172SAPE    HA19458   5.706   0.668   6.545  0.6490 -0.0730  1.9483
  172SAPE    HB19459   5.852   0.624   6.445  2.0043  0.9055  1.0882
  172SAPE    C219460   5.876   0.781   6.585  0.1851 -0.2621  0.2902
  172SAPE    HS19461   5.948   0.834   6.518 -0.3199  0.8151  0.5812
  172SAPE   O2119462   5.937   0.689   6.668  0.0650  0.7788 -0.2209
  172SAPE   C2119463   6.040   0.722   6.742 -0.4567  0.0426 -0.1713
  172SAPE   O2219464   6.094   0.835   6.748 -0.0898  0.0091 -1.0148
  172SAPE   C2219465   6.097   0.598   6.809 -0.1145  0.0415 -0.5818
  172SAPE   H2R19466   6.048   0.502   6.781 -0.6464  0.8395 -2.6116
  172SAPE   H2S19467   6.198   0.593   6.763  0.1312  0.4469 -0.0918
  172SAPE    C319468   5.798   0.894   6.670  0.6971 -0.3037 -0.1099
  172SAPE    HX19469   5.718   0.942   6.609  0.2753  0.7235  1.2045
  172SAPE    HY19470   5.872   0.972   6.696  1.7265 -1.3678  0.2124
  172SAPE   O3119471   5.741   0.840   6.794  0.2991  0.2267 -0.0283
  172SAPE   C3119472   5.666   0.932   6.859  0.3781  0.5196 -0.3228
  172SAPE   O3219473   5.657   1.047   6.821  0.8380  0.3995  0.0534
  172SAPE   C3219474   5.591   0.870   6.971  0.4562 -0.3371  0.5826
  172SAPE   H2X19475   5.651   0.778   6.991  0.1058 -1.3926 -2.6959
  172SAPE   H2Y19476   5.486   0.843   6.948 -0.1879  0.1941  2.6651
  172SAPE   C2319477   6.102   0.622   6.962  0.3313 -0.1162 -0.0361
  172SAPE   H3R19478   6.162   0.708   6.999  1.7888 -1.2440  0.3135
  172SAPE   H3S19479   6.163   0.540   7.006  0.4458  1.0779  2.1811
  172SAPE   C2419480   5.962   0.627   7.023 -0.7860  0.1903  0.5453
  172SAPE   H4R19481   5.919   0.722   6.985  1.9449  0.6927 -1.5899
  172SAPE   H4S19482   5.966   0.636   7.134  1.2631  1.9521  0.3820
  172SAPE   C2519483   5.880   0.511   6.988  0.9146 -0.1073  0.0383
  172SAPE   H5R19484   5.827   0.521   6.892  0.5778  1.4498  0.3533
  172SAPE   C2619485   5.848   0.401   7.067 -0.2294  1.0585 -0.1722
  172SAPE   H6R19486   5.794   0.315   7.026  0.6157  0.3674  0.1324
  172SAPE   C2719487   5.894   0.390   7.215 -0.1752 -0.3253 -0.1174
  172SAPE   H7R19488   5.962   0.474   7.241 -2.2385  0.5048  3.2744
  172SAPE   H7S19489   5.949   0.295   7.226 -0.8736 -1.0209 -2.2658
  172SAPE   C2819490   5.780   0.394   7.319 -0.1780  0.4740  0.1435
  172SAPE   H8R19491   5.686   0.353   7.279 -0.4316 -0.9452  2.0834
  172SAPE   C2919492   5.781   0.428   7.446 -0.8263  0.7104  0.0437
  172SAPE   H9R19493   5.687   0.409   7.500 -1.6153  2.0696 -0.8060
  172SAPE  C21019494   5.896   0.482   7.521 -0.3905 -0.1667 -1.0070
  172SAPE  H10R19495   5.859   0.583   7.547 -1.0227 -0.3063 -1.3293
  172SAPE  H10S19496   5.986   0.503   7.460  0.7728  2.2287  1.3251
  172SAPE  C21119497   5.930   0.396   7.642 -0.0559  0.3556  0.3534
  172SAPE  H11R19498   5.994   0.312   7.613 -0.9981 -0.2667  0.0526
  172SAPE  C21219499   5.888   0.412   7.774  0.2496  0.3618  0.0878
  172SAPE  H12R19500   5.924   0.338   7.848 -1.9719 -0.8113  0.0898
  172SAPE  C21319501   5.786   0.514   7.827 -1.0685  0.3675  0.0811
  172SAPE  H13R19502   5.770   0.593   7.751  0.0754  0.0563 -0.5040
  172SAPE  H13S19503   5.837   0.559   7.915  0.1846  1.0374 -0.9715
  172SAPE  C21419504   5.656   0.454   7.850 -0.4031 -0.8164 -0.1791
  172SAPE  H14R19505   5.582   0.482   7.773 -1.2752  0.6946  1.1289
  172SAPE  C21519506   5.612   0.387   7.958 -0.9450 -0.2185  0.8551
  172SAPE  H15R19507   5.507   0.356   7.972 -0.2032 -3.1352  0.7183
  172SAPE  C21619508   5.710   0.361   8.070  0.5747 -0.4637 -0.3355
  172SAPE  H16R19509   5.818   0.364   8.045  0.7725  1.7507  0.5562
  172SAPE  H16S19510   5.688   0.258   8.107  0.9362  0.4226  2.5957
  172SAPE  C21719511   5.694   0.460   8.177 -0.1549 -0.5617 -0.5500
  172SAPE  H17R19512   5.609   0.435   8.244 -1.2035 -0.0971 -1.6793
  172SAPE  H17S19513   5.672   0.558   8.130 -0.9361 -1.0575 -1.2410
  172SAPE  C21819514   5.818   0.478   8.272 -0.9797  1.0374  0.5695
  172SAPE  H18R19515   5.900   0.529   8.216  0.2062  0.1948  1.4665
  172SAPE  H18S19516   5.856   0.380   8.309  0.4409  0.1671 -2.7913
  172SAPE  C21919517   5.785   0.554   8.403  0.8665 -0.5125  0.2250
  172SAPE  H19R19518   5.700   0.500   8.449  0.9548 -0.5794  0.3077
  172SAPE  H19S19519   5.738   0.652   8.377 -1.3654 -0.4896  3.7632
  172SAPE  C22019520   5.898   0.560   8.499  0.2702  0.2050  0.3843
  172SAPE  H20R19521   5.939   0.458   8.518  2.0220  0.5356 -1.2523
  172SAPE  H20S19522   5.857   0.588   8.598 -1.0373  3.9313 -1.0330
  172SAPE  H20T19523   5.980   0.623   8.460  0.3440 -1.9113 -3.4229
  172SAPE   C3319524   5.594   0.960   7.092  0.0304 -0.1448  0.6256
  172SAPE   H3X19525   5.507   1.029   7.099 -1.1197 -1.6138  1.5038
  172SAPE   H3Y19526   5.679   1.031   7.089  1.8143 -2.2200 -1.1548
  172SAPE   C3419527   5.616   0.883   7.223 -0.0856 -0.2968 -0.0171
  172SAPE   H4X19528   5.708   0.831   7.189 -0.4793  0.6221 -2.7766
  172SAPE   H4Y19529   5.536   0.807   7.236  0.5342 -0.5849  2.6997
  172SAPE   C3519530   5.634   0.964   7.349 -0.0801  0.5851  0.1622
  172SAPE   H5X19531   5.548   1.035   7.349 -0.8348 -0.2878 -0.9410
  172SAPE   H5Y19532   5.727   1.019   7.326 -0.6773  1.7305  0.3958
  172SAPE   C3619533   5.642   0.872   7.473 -0.3765 -0.9462 -0.0589
  172SAPE   H6X19534   5.739   0.818   7.465  0.3849  0.4973 -1.2479
  172SAPE   H6Y19535   5.554   0.806   7.475 -1.2876  0.2341  0.0675
  172SAPE   C3719536   5.647   0.943   7.604  0.2618  0.1311 -0.4735
  172SAPE   H7X19537   5.551   1.000   7.610  0.2976  0.4382 -2.1615
  172SAPE   H7Y19538   5.714   1.032   7.604 -0.5374  0.7542  0.2063
  172SAPE   C3819539   5.678   0.842   7.715 -0.0451 -0.0106 -0.2862
  172SAPE   H8X19540   5.772   0.783   7.710 -0.8139 -1.2782 -0.1753
  172SAPE   H8Y19541   5.604   0.761   7.725  0.3193 -0.1552  1.6955
  172SAPE   C3919542   5.693   0.910   7.857  1.3302  0.8977  0.2656
  172SAPE   H9X19543   5.765   0.994   7.848 -0.5170  2.5378  0.0517
  172SAPE   H9Y19544   5.740   0.830   7.918  1.2003  0.9358  0.4156
  172SAPE  C31019545   5.559   0.970   7.905 -0.3059  0.1320  0.3288
  172SAPE  H10X19546   5.503   1.024   7.825 -2.3020 -1.0683  0.8398
  172SAPE  H10Y19547   5.605   1.049   7.969 -0.2373 -0.7550  1.4018
  172SAPE  C31119548   5.466   0.874   7.971  0.2399  0.2223 -0.1729
  172SAPE  H11X19549   5.506   0.772   7.953  0.9580  0.1107  1.8794
  172SAPE  H11Y19550   5.363   0.891   7.930  0.1805 -1.0391 -0.5803
  172SAPE  C31219551   5.456   0.880   8.127 -0.3922 -0.6609  0.0591
  172SAPE  H12X19552   5.413   0.785   8.167 -0.7693 -0.5359 -0.0485
  172SAPE  H12Y19553   5.397   0.971   8.148  0.0495  0.2586 -2.4403
  172SAPE  C31319554   5.596   0.892   8.207 -0.1263 -0.1488  0.1230
  172SAPE  H13X19555   5.646   0.975   8.152 -0.2185  0.4566  0.9441
  172SAPE  H13Y19556   5.671   0.810   8.198  2.3116  2.1247 -1.4635
  172SAPE  C31419557   5.574   0.927   8.355 -0.1123 -0.0862 -0.9778
  172SAPE  H14X19558   5.555   0.839   8.420  2.3948  0.7228  1.0094
  172SAPE  H14Y19559   5.482   0.990   8.351 -1.8651 -2.5080 -0.9092
  172SAPE  C31519560   5.691   1.004   8.410 -1.5535  0.9864 -0.4194
  172SAPE  H15X19561   5.711   1.098   8.355  0.6604  1.0189  0.3176
  172SAPE  H15Y19562   5.779   0.938   8.396 -2.6594 -0.3354 -1.3397
  172SAPE  C31619563   5.679   1.041   8.559 -0.2509 -1.1025 -0.9156
  172SAPE  H16X19564   5.657   0.946   8.611  0.7722 -0.3677  0.9251
  172SAPE  H16Y19565   5.580   1.092   8.563 -0.4044 -1.2553 -2.3031
  172SAPE  C31719566   5.796   1.108   8.628 -0.4931  0.0956  0.0547
  172SAPE  H17X19567   5.884   1.043   8.608  0.5352  2.0670 -2.3365
  172SAPE  H17Y19568   5.781   1.096   8.738  0.0514  3.3438  0.5810
  172SAPE  C31819569   5.812   1.256   8.595 -0.0136  0.2022 -0.1640
  172SAPE  H18X19570   5.743   1.326   8.647  0.5349 -0.2937  1.2800
  172SAPE  H18Y19571   5.810   1.271   8.485 -0.2537 -2.1332 -0.5185
  172SAPE  H18Z19572   5.910   1.298   8.627 -0.2131 -0.6602  1.7288
  173SOPE     N19573   0.371   6.579  10.835 -1.0148 -0.1400 -0.4327
  173SOPE   HN119574   0.355   6.501  10.903  0.5477 -0.5213 -0.4564
  173SOPE   HN219575   0.436   6.643  10.885 -3.3936  2.5923 -0.6086
  173SOPE   HN319576   0.284   6.634  10.826 -1.1115 -0.2168 -0.0351
  173SOPE   C1219577   0.429   6.521  10.711 -0.1070 -0.1133 -0.7930
  173SOPE  H12A19578   0.419   6.597  10.632 -0.1505  1.9571  1.1052
  173SOPE  H12B19579   0.360   6.442  10.675 -0.3176 -0.5497  0.5086
  173SOPE   C1119580   0.561   6.448  10.743  0.0223 -0.3207 -0.2726
  173SOPE  H11A19581   0.630   6.518  10.794  0.1035 -1.3219  1.0387
  173SOPE  H11B19582   0.605   6.412  10.648 -0.0025 -2.8987  0.6139
  173SOPE     P19583   0.629   6.218  10.845 -0.2856 -0.1731 -0.0233
  173SOPE   O1319584   0.582   6.103  10.919  0.1460 -0.3634 -0.0700
  173SOPE   O1419585   0.768   6.262  10.877  0.8278  0.2769 -0.1062
  173SOPE   O1219586   0.532   6.342  10.837 -0.4510 -0.5668 -1.0899
  173SOPE   O1119587   0.621   6.181  10.698  0.5510 -0.1218  0.2239
  173SOPE    C119588   0.495   6.132  10.642 -0.1698  0.1602 -1.0116
  173SOPE    HA19589   0.417   6.210  10.654  1.2470  1.4052  0.8804
  173SOPE    HB19590   0.451   6.051  10.704  4.1209 -2.2676 -0.7211
  173SOPE    C219591   0.506   6.080  10.501  0.2452  0.4637 -0.1322
  173SOPE    HS19592   0.599   6.018  10.505  2.1186  2.9721 -2.0632
  173SOPE   O2119593   0.521   6.186  10.411  0.1282  0.0770 -0.0454
  173SOPE   C2119594   0.618   6.175  10.319 -0.4890  0.1289  0.3658
  173SOPE   O2219595   0.689   6.080  10.300  0.3431 -0.0357 -0.0058
  173SOPE   C2219596   0.624   6.296  10.232 -0.0780 -0.2358  0.1201
  173SOPE   H2R19597   0.620   6.383  10.301 -1.2865  0.6963 -1.0882
  173SOPE   H2S19598   0.527   6.304  10.178  0.4499  0.4995 -0.7344
  173SOPE    C319599   0.379   5.989  10.474 -0.2936  0.7050 -0.6040
  173SOPE    HX19600   0.291   6.050  10.505 -0.3103  0.4548 -0.1614
  173SOPE    HY19601   0.385   5.900  10.540 -1.0991 -1.4989 -3.3130
  173SOPE   O3119602   0.369   5.942  10.336  0.1192  0.1470 -0.1477
  173SOPE   C3119603   0.422   5.824  10.312 -0.8000 -0.6130  0.1831
  173SOPE   O3219604   0.465   5.744  10.397 -1.2790 -0.1616  0.2511
  173SOPE   C3219605   0.418   5.785  10.166  0.0019  0.4484 -0.4004
  173SOPE   H2X19606   0.465   5.868  10.109 -1.6696 -0.0008 -2.5680
  173SOPE   H2Y19607   0.311   5.787  10.139  0.4309  1.8123 -2.1882
  173SOPE   C2319608   0.740   6.302  10.130  0.0033 -0.7905  1.0067
  173SOPE   H3R19609   0.753   6.207  10.074 -0.1789  1.1154 -2.5748
  173SOPE   H3S19610   0.830   6.332  10.187 -0.6707  1.1549  1.1546
  173SOPE   C2419611   0.711   6.407  10.016  0.8334 -0.1936 -0.1605
  173SOPE   H4R19612   0.702   6.500  10.075 -2.3993 -1.2860  1.3146
  173SOPE   H4S19613   0.808   6.424   9.964  0.1846  1.2306 -0.9652
  173SOPE   C2519614   0.596   6.379   9.921  0.1184  0.7448  0.1919
  173SOPE   H5R19615   0.496   6.401   9.964 -0.2453  1.3183 -0.8966
  173SOPE   H5S19616   0.600   6.447   9.833 -2.4523 -2.6332 -2.8548
  173SOPE   C2619617   0.605   6.241   9.854  0.2684  0.0644  0.4969
  173SOPE   H6R19618   0.710   6.220   9.826  0.1661 -2.3141  1.5879
  173SOPE   H6S19619   0.565   6.169   9.929 -0.6003 -0.7820 -0.7369
  173SOPE   C2719620   0.524   6.216   9.722  0.1302 -0.7874 -0.1462
  173SOPE   H7R19621   0.518   6.106   9.708  1.8124 -1.2848  2.3650
  173SOPE   H7S19622   0.423   6.260   9.729 -0.0650 -0.6954 -2.5213
  173SOPE   C2819623   0.593   6.275   9.600  0.3061 -0.0925 -0.4023
  173SOPE   H8R19624   0.584   6.385   9.613  0.6939  0.1814 -2.2313
  173SOPE   H8S19625   0.700   6.247   9.600  0.1039 -1.4388  3.1252
  173SOPE   C2919626   0.532   6.235   9.468 -0.0999 -0.0218  0.1169
  173SOPE   H9119627   0.593   6.157   9.422  0.6127 -0.0858  1.1291
  173SOPE  C21019628   0.427   6.293   9.407 -0.0215  0.1890 -0.2458
  173SOPE  H10119629   0.398   6.270   9.303  1.0160 -2.9499  0.0458
  173SOPE  C21119630   0.351   6.407   9.462 -0.6581  0.4884  0.1594
  173SOPE  H11R19631   0.390   6.491   9.400  0.4224 -0.3106 -0.2678
  173SOPE  H11S19632   0.386   6.425   9.566  2.1824 -2.3789 -0.1299
  173SOPE  C21219633   0.197   6.379   9.449 -1.1194 -0.3846  0.2873
  173SOPE  H12R19634   0.179   6.294   9.517  3.5995 -1.8009  0.1311
  173SOPE  H12S19635   0.173   6.355   9.343  1.1563  1.8298 -0.8396
  173SOPE  C21319636   0.111   6.498   9.493 -0.0793  0.3294 -0.8423
  173SOPE  H13R19637   0.008   6.499   9.451 -0.9821 -0.7661  1.2593
  173SOPE  H13S19638   0.167   6.588   9.457  2.1158 -0.3728  0.6434
  173SOPE  C21419639   0.120   6.516   9.644 -0.4526 -0.4246 -0.1960
  173SOPE  H14R19640   0.223   6.547   9.671 -1.5159  1.9975  1.4456
  173SOPE  H14S19641   0.100   6.424   9.702 -0.8396  0.0315  0.4104
  173SOPE  C21519642   0.029   6.629   9.697  0.3970 -0.2062 -0.2256
  173SOPE  H15R19643  -0.070   6.620   9.648 -0.2512 -0.0298  1.0065
  173SOPE  H15S19644   0.067   6.724   9.654 -0.2450  0.0357 -0.2726
  173SOPE  C21619645   0.031   6.625   9.849  0.7322  0.2093  0.1703
  173SOPE  H16R19646   0.123   6.649   9.906 -0.2155 -0.9021  2.2520
  173SOPE  H16S19647   0.017   6.519   9.879 -1.2311 -0.1068 -1.6298
  173SOPE  C21719648  -0.082   6.705   9.918  0.8418  0.4280  0.2445
  173SOPE  H17R19649  -0.179   6.680   9.870  0.2424  1.7164  0.7532
  173SOPE  H17S19650  -0.062   6.813   9.905 -0.1145  0.4158 -1.6315
  173SOPE  C21819651  -0.093   6.678  10.065 -0.3968  0.0929 -0.1286
  173SOPE  H18R19652  -0.121   6.576  10.100  0.2868  0.1146  0.5203
  173SOPE  H18S19653  -0.151   6.758  10.115  0.4807  1.4008 -1.1297
  173SOPE  H18T19654   0.000   6.680  10.126 -1.9051  1.2414  2.2856
  173SOPE   C3319655   0.497   5.656  10.127  0.4269  0.4313 -0.1144
  173SOPE   H3X19656   0.457   5.573  10.189  0.8155  0.7979  0.6398
  173SOPE   H3Y19657   0.606   5.654  10.148  0.9236 -1.1233 -2.3414
  173SOPE   C3419658   0.458   5.618   9.977 -0.3954  0.7475 -0.4961
  173SOPE   H4X19659   0.352   5.640   9.951 -0.4811 -1.3097 -2.1336
  173SOPE   H4Y19660   0.487   5.512   9.960  0.3345  0.4908  1.9178
  173SOPE   C3519661   0.546   5.708   9.891  0.2626  0.1263 -0.6625
  173SOPE   H5X19662   0.655   5.695   9.910  0.1425 -0.1802 -0.1670
  173SOPE   H5Y19663   0.532   5.811   9.930 -1.0528 -0.1368 -0.4230
  173SOPE   C3619664   0.526   5.709   9.745 -0.1513  0.1600 -0.0649
  173SOPE   H6X19665   0.418   5.722   9.723 -0.4103  0.8854  1.5006
  173SOPE   H6Y19666   0.567   5.614   9.705  0.5265  1.1274 -1.7717
  173SOPE   C3719667   0.598   5.820   9.677  0.0610 -0.4985  0.0240
  173SOPE   H7X19668   0.702   5.804   9.714 -0.7295 -0.5105  2.3709
  173SOPE   H7Y19669   0.550   5.913   9.715 -1.3853 -0.1454 -2.4256
  173SOPE   C3819670   0.589   5.818   9.525 -0.0028  0.1839  0.7155
  173SOPE   H8X19671   0.588   5.713   9.489 -0.4843  0.1226  0.8917
  173SOPE   H8Y19672   0.669   5.889   9.497 -1.0064  1.1297  0.1812
  173SOPE   C3919673   0.457   5.873   9.468 -0.4244 -1.3626 -0.4910
  173SOPE   H9X19674   0.448   5.981   9.492  1.2970 -1.7129  2.1972
  173SOPE   H9Y19675   0.374   5.823   9.522 -1.0839  0.7235  0.5367
  173SOPE  C31019676   0.437   5.876   9.319  0.5170  0.4741 -0.6496
  173SOPE  H10X19677   0.506   5.944   9.266  0.5209 -1.3703 -3.1980
  173SOPE  H10Y19678   0.336   5.920   9.302  0.0046 -0.1164  0.7201
  173SOPE  C31119679   0.454   5.738   9.248 -0.2993 -0.9260  0.2512
  173SOPE  H11X19680   0.419   5.662   9.321  2.8811 -3.0063 -0.2136
  173SOPE  H11Y19681   0.562   5.714   9.236  0.6860  2.1808  1.8314
  173SOPE  C31219682   0.380   5.732   9.113  0.1968  0.3666  0.0643
  173SOPE  H12X19683   0.273   5.760   9.119  0.3133  0.8946 -0.1925
  173SOPE  H12Y19684   0.387   5.627   9.079  0.7311 -0.4764  2.5988
  173SOPE  C31319685   0.443   5.830   9.015  1.1994 -0.5360 -0.4557
  173SOPE  H13X19686   0.553   5.830   9.030  0.9978  0.8950  1.3701
  173SOPE  H13Y19687   0.397   5.930   9.032  1.9833  0.2813 -2.8799
  173SOPE  C31419688   0.418   5.798   8.868 -0.4670 -0.2608  0.4013
  173SOPE  H14X19689   0.317   5.760   8.840 -0.2169  0.8069 -2.2015
  173SOPE  H14Y19690   0.493   5.722   8.836  0.3574  1.0814 -0.9465
  173SOPE  C31519691   0.439   5.933   8.793 -0.3864 -0.4092  0.3653
  173SOPE  H15X19692   0.529   5.981   8.838  0.4885 -0.0554 -1.6431
  173SOPE  H15Y19693   0.355   6.003   8.808 -0.0686 -0.3981  2.4532
  173SOPE  C31619694   0.462   5.928   8.639 -0.4050 -0.3120  0.0009
  173SOPE  H16X19695   0.448   6.029   8.595  1.3061  0.2055  0.5285
  173SOPE  H16Y19696   0.381   5.868   8.595  0.6301 -1.0342 -0.9862
  173SOPE  C31719697   0.592   5.870   8.597 -0.4048 -0.4720  0.3633
  173SOPE  H17X19698   0.578   5.856   8.488 -2.9391 -1.1681  0.7093
  173SOPE  H17Y19699   0.605   5.771   8.646 -2.8439 -0.4456  1.2020
  173SOPE  C31819700   0.708   5.965   8.631  0.0249  0.1570  0.2155
  173SOPE  H18X19701   0.673   6.066   8.598 -2.3777  0.4839  3.3259
  173SOPE  H18Y19702   0.803   5.933   8.583 -0.2973  1.2814 -1.2604
  173SOPE  H18Z19703   0.725   5.968   8.740  1.0699  0.1019  0.0646
  174SOPE     N19704   0.043   4.528  10.820  0.4327  1.0500 -0.1876
  174SOPE   HN119705   0.024   4.469  10.903  0.1896  2.4836  0.8218
  174SOPE   HN219706   0.026   4.475  10.732  2.4952  0.0262 -0.0222
  174SOPE   HN319707   0.142   4.559  10.818  0.7731 -0.0181 -0.5271
  174SOPE   C1219708  -0.061   4.643  10.833  0.1215 -0.0757 -0.0553
  174SOPE  H12A19709  -0.066   4.680  10.938  2.7467 -0.6711  0.3410
  174SOPE  H12B19710  -0.160   4.601  10.804 -0.3227 -0.2348  1.5824
  174SOPE   C1119711  -0.017   4.758  10.745 -0.2753 -0.8312 -1.1262
  174SOPE  H11A19712  -0.103   4.823  10.715 -0.3438  0.2015  1.0461
  174SOPE  H11B19713   0.039   4.726  10.655  3.5084  0.2444  0.6303
  174SOPE     P19714   0.232   4.817  10.836  0.0016 -0.2423 -0.0652
  174SOPE   O1319715   0.259   4.677  10.833 -0.4875 -0.4678 -0.1732
  174SOPE   O1419716   0.284   4.891  10.956  0.1642  0.8736 -0.1510
  174SOPE   O1219717   0.070   4.841  10.828 -0.2356 -0.1160  0.1753
  174SOPE   O1119718   0.276   4.878  10.699  0.5636 -0.1959  0.6526
  174SOPE    C119719   0.248   5.019  10.666  0.6539 -0.1236  0.2856
  174SOPE    HA19720   0.341   5.067  10.629 -0.4286  1.2138 -0.8553
  174SOPE    HB19721   0.224   5.072  10.761  3.1457 -3.2914  2.8894
  174SOPE    C219722   0.140   5.039  10.553  0.8998 -0.1466  0.1294
  174SOPE    HS19723   0.047   4.997  10.598  1.4315 -0.0235  1.3856
  174SOPE   O2119724   0.178   4.983  10.430  0.7583  0.7545  0.2028
  174SOPE   C2119725   0.086   4.908  10.374  0.4313 -0.5341 -0.0552
  174SOPE   O2219726  -0.030   4.885  10.411 -0.1871 -0.2296  0.0563
  174SOPE   C2219727   0.137   4.844  10.239 -0.4890 -0.7053  0.0206
  174SOPE   H2R19728   0.234   4.790  10.252  0.2949  0.9210  1.4160
  174SOPE   H2S19729   0.146   4.932  10.172 -2.6295 -0.9924 -0.7046
  174SOPE    C319730   0.116   5.188  10.531  0.0855 -0.0474  0.7957
  174SOPE    HX19731   0.213   5.237  10.509 -0.8700  1.8757  0.6079
  174SOPE    HY19732   0.073   5.234  10.623 -0.6159  0.5744  0.1700
  174SOPE   O3119733   0.039   5.231  10.413 -0.6767  0.2137  0.0732
  174SOPE   C3119734  -0.093   5.217  10.431 -0.8952 -0.1999 -0.6494
  174SOPE   O3219735  -0.149   5.164  10.527 -0.3119  0.6690  0.2144
  174SOPE   C3219736  -0.174   5.285  10.319 -0.1460  0.2294 -0.2977
  174SOPE   H2X19737  -0.108   5.367  10.282 -0.8690  2.7495  3.4666
  174SOPE   H2Y19738  -0.262   5.334  10.367  0.4946  0.5061  0.6241
  174SOPE   C2319739   0.045   4.734  10.178  0.5829 -0.7562  0.3539
  174SOPE   H3R19740  -0.047   4.787  10.147  0.4444 -0.5831  1.0462
  174SOPE   H3S19741   0.008   4.664  10.256 -0.0002 -0.6209  0.2058
  174SOPE   C2419742   0.114   4.656  10.059 -0.6750 -0.0454 -0.2389
  174SOPE   H4R19743   0.194   4.590  10.099 -1.5966 -1.1287 -0.1599
  174SOPE   H4S19744   0.044   4.590  10.004  0.6212 -0.8602 -0.9586
  174SOPE   C2519745   0.172   4.756   9.961 -0.0885  0.3658  0.5876
  174SOPE   H5R19746   0.089   4.827   9.941 -0.1044  0.1644 -0.0660
  174SOPE   H5S19747   0.256   4.810  10.009  2.6257 -1.8279 -1.3218
  174SOPE   C2619748   0.241   4.713   9.825  0.4504  0.3119 -0.0958
  174SOPE   H6R19749   0.157   4.679   9.760  0.6101 -1.7911  0.7202
  174SOPE   H6S19750   0.286   4.802   9.777 -1.1587  0.3839 -1.5817
  174SOPE   C2719751   0.338   4.596   9.839  0.9577 -0.4808 -0.1454
  174SOPE   H7R19752   0.290   4.511   9.891 -1.6891  0.4675 -0.8733
  174SOPE   H7S19753   0.333   4.558   9.735 -1.1721  2.1371 -1.1160
  174SOPE   C2819754   0.485   4.630   9.871 -0.5736 -0.6449 -0.8206
  174SOPE   H8R19755   0.543   4.562   9.805 -0.8074 -2.5507  0.8685
  174SOPE   H8S19756   0.500   4.735   9.837 -3.9252 -0.1066 -0.8924
  174SOPE   C2919757   0.492   4.616  10.023 -0.1208  0.1595 -0.2313
  174SOPE   H9119758   0.431   4.533  10.061 -0.6562  1.1238  1.1051
  174SOPE  C21019759   0.555   4.705  10.103 -1.1709  0.0446  0.4034
  174SOPE  H10119760   0.550   4.691  10.211 -0.9413  0.1517  0.4284
  174SOPE  C21119761   0.640   4.825  10.046  0.5654  0.5792 -0.6185
  174SOPE  H11R19762   0.634   4.902  10.126  2.8927  0.2542 -0.0406
  174SOPE  H11S19763   0.571   4.867   9.970  0.0595  0.7599 -0.0642
  174SOPE  C21219764   0.777   4.776  10.013 -1.2783 -1.0188 -0.3846
  174SOPE  H12R19765   0.775   4.705   9.928 -2.7687  1.0560 -2.2163
  174SOPE  H12S19766   0.826   4.728  10.100  0.9798 -0.2913 -1.1977
  174SOPE  C21319767   0.862   4.914   9.989 -0.5992 -0.6485  0.4360
  174SOPE  H13R19768   0.972   4.900   9.999 -0.0598  1.4538 -1.5578
  174SOPE  H13S19769   0.827   4.988  10.064  1.1053 -1.0391  1.6618
  174SOPE  C21419770   0.829   4.981   9.856 -0.1936 -0.1276  0.4714
  174SOPE  H14R19771   0.874   5.083   9.862 -1.1126  0.2913  0.3400
  174SOPE  H14S19772   0.722   5.001   9.838 -0.0570  0.3170  0.1313
  174SOPE  C21519773   0.890   4.900   9.741  0.5576  0.2995  0.0460
  174SOPE  H15R19774   0.842   4.800   9.732  0.4821  0.4514 -1.5609
  174SOPE  H15S19775   0.998   4.881   9.757  0.2936 -0.4568  1.0358
  174SOPE  C21619776   0.875   4.949   9.602  0.0721  0.5953  0.3533
  174SOPE  H16R19777   0.930   4.890   9.526 -0.0265  0.7254  0.1800
  174SOPE  H16S19778   0.904   5.056   9.596 -1.1495  0.8781 -0.7388
  174SOPE  C21719779   0.736   4.940   9.536  0.1550 -0.6076 -0.0066
  174SOPE  H17R19780   0.671   5.005   9.598  1.5187 -0.7388  1.6367
  174SOPE  H17S19781   0.705   4.834   9.553 -1.1812 -0.0899  0.9484
  174SOPE  C21819782   0.731   4.978   9.387  0.2705  0.4549  0.2389
  174SOPE  H18R19783   0.736   5.088   9.368  0.2408  0.3302 -0.5287
  174SOPE  H18S19784   0.629   4.948   9.354 -0.0532 -1.2352  2.5347
  174SOPE  H18T19785   0.806   4.930   9.321 -2.0477 -0.0891 -2.1911
  174SOPE   C3319786  -0.216   5.201  10.198 -0.5949  0.0737  0.1768
  174SOPE   H3X19787  -0.278   5.265  10.133  1.7837  1.5437 -0.7606
  174SOPE   H3Y19788  -0.276   5.110  10.222  0.3178 -1.1271 -1.8686
  174SOPE   C3419789  -0.099   5.152  10.106  0.1351 -0.6369 -0.7108
  174SOPE   H4X19790  -0.027   5.076  10.145  0.6141 -0.2346 -0.8125
  174SOPE   H4Y19791  -0.031   5.238  10.090  1.9375 -2.2672 -2.5139
  174SOPE   C3519792  -0.149   5.112   9.959 -0.0387 -0.0573 -0.9092
  174SOPE   H5X19793  -0.218   5.192   9.923  0.5555  0.5002 -0.8362
  174SOPE   H5Y19794  -0.201   5.014   9.959 -1.4333  0.5386  2.3336
  174SOPE   C3619795  -0.028   5.091   9.866  0.6741 -0.2708 -0.5521
  174SOPE   H6X19796   0.038   5.019   9.919 -1.9697 -1.2812  1.5900
  174SOPE   H6Y19797   0.033   5.183   9.851  0.1748  0.1917  0.1491
  174SOPE   C3719798  -0.075   5.040   9.733  0.2114  1.1134 -0.2552
  174SOPE   H7X19799  -0.141   5.102   9.669 -1.3419  0.2877  0.4913
  174SOPE   H7Y19800  -0.136   4.947   9.738 -0.1684  1.3645 -0.2400
  174SOPE   C3819801   0.049   4.997   9.649  0.0539  0.5875 -0.0748
  174SOPE   H8X19802   0.109   4.932   9.715  0.7063  0.2984 -0.9412
  174SOPE   H8Y19803   0.100   5.092   9.622  1.7047  0.3112  1.8391
  174SOPE   C3919804   0.005   4.928   9.525 -0.0563 -0.1972  0.3700
  174SOPE   H9X19805  -0.079   4.992   9.492 -0.9824 -0.1124  2.7325
  174SOPE   H9Y19806  -0.039   4.826   9.532 -0.6616 -0.1695 -2.1491
  174SOPE  C31019807   0.123   4.913   9.418  0.2496 -0.1471  0.0278
  174SOPE  H10X19808   0.145   5.012   9.373  3.2341 -1.4194 -1.6153
  174SOPE  H10Y19809   0.090   4.839   9.341  1.7729  0.2220 -1.0399
  174SOPE  C31119810   0.251   4.859   9.484 -0.4200  0.1243 -0.7344
  174SOPE  H11X19811   0.234   4.760   9.531 -0.6929 -0.1820 -1.4553
  174SOPE  H11Y19812   0.282   4.924   9.568 -0.2939 -1.1337  0.2251
  174SOPE  C31219813   0.367   4.839   9.392 -0.1294 -0.2625  0.5327
  174SOPE  H12X19814   0.458   4.835   9.457  0.2923  0.2467 -0.0096
  174SOPE  H12Y19815   0.386   4.929   9.330 -0.1839  1.0311  2.3256
  174SOPE  C31319816   0.357   4.711   9.298  0.4807  0.5691  0.3322
  174SOPE  H13X19817   0.429   4.712   9.214  1.8655  2.5839  1.4383
  174SOPE  H13Y19818   0.257   4.691   9.255  0.1034 -0.1878  1.5035
  174SOPE  C31419819   0.397   4.588   9.372 -0.5433  0.1435 -0.4195
  174SOPE  H14X19820   0.332   4.578   9.461 -0.3706 -0.3184 -0.3420
  174SOPE  H14Y19821   0.503   4.585   9.407 -0.2996 -0.0103 -1.1389
  174SOPE  C31519822   0.387   4.459   9.282 -0.6924  0.5475  0.0079
  174SOPE  H15X19823   0.278   4.447   9.264 -1.1665  1.5875  1.8958
  174SOPE  H15Y19824   0.441   4.377   9.335  2.0754  1.5968 -1.0008
  174SOPE  C31619825   0.464   4.471   9.150  0.3088  0.2899 -0.1773
  174SOPE  H16X19826   0.565   4.508   9.178 -0.4632  1.4364  1.1710
  174SOPE  H16Y19827   0.417   4.534   9.072  0.8927  2.0261  0.8191
  174SOPE  C31719828   0.479   4.336   9.074 -0.5541 -0.2283 -0.0937
  174SOPE  H17X19829   0.385   4.300   9.027 -0.2720 -1.0725 -0.0302
  174SOPE  H17Y19830   0.527   4.263   9.143  1.9973  1.4264  0.0118
  174SOPE  C31819831   0.586   4.346   8.972 -0.2042 -0.1078 -0.2922
  174SOPE  H18X19832   0.691   4.344   9.007 -0.3312  0.3506  0.1228
  174SOPE  H18Y19833   0.566   4.434   8.908 -0.7722 -0.2887 -0.3706
  174SOPE  H18Z19834   0.580   4.261   8.901  1.0173 -0.8223  0.4329
  175SOPE     N19835   3.803   6.400  10.849  0.9692 -0.0244 -0.0702
  175SOPE   HN119836   3.897   6.438  10.871  1.1986 -0.1466 -0.8220
  175SOPE   HN219837   3.770   6.408  10.750 -0.6883 -2.2687  0.1985
  175SOPE   HN319838   3.726   6.442  10.904  0.7634  0.8477 -1.0022
  175SOPE   C1219839   3.794   6.249  10.889  0.4889 -1.0318 -0.1531
  175SOPE  H12A19840   3.819   6.249  10.997 -2.4315 -0.5959  0.5861
  175SOPE  H12B19841   3.874   6.188  10.841  0.1923 -1.6213  0.1050
  175SOPE   C1119842   3.659   6.185  10.857 -0.3822 -0.4053  0.1640
  175SOPE  H11A19843   3.579   6.231  10.918  0.3908 -0.6839  1.4435
  175SOPE  H11B19844   3.666   6.075  10.876 -0.5054 -0.2599  1.1011
  175SOPE     P19845   3.635   6.091  10.615 -0.2487 -0.2533 -0.1621
  175SOPE   O1319846   3.539   5.991  10.652  0.7350  0.0286 -0.0537
  175SOPE   O1419847   3.775   6.044  10.597  0.5511 -0.4683 -0.3531
  175SOPE   O1219848   3.625   6.213  10.721 -1.0981 -0.4208 -0.2253
  175SOPE   O1119849   3.583   6.164  10.484  0.5127 -0.5140  0.5426
  175SOPE    C119850   3.672   6.247  10.415  1.5380 -0.4579  0.3703
  175SOPE    HA19851   3.773   6.260  10.459  0.9404  1.2837  1.3172
  175SOPE    HB19852   3.631   6.351  10.413  1.4092 -0.5074  0.4744
  175SOPE    C219853   3.683   6.204  10.264 -0.0275  0.5432  0.2237
  175SOPE    HS19854   3.761   6.267  10.216 -0.8045  0.9737 -0.4865
  175SOPE   O2119855   3.549   6.215  10.206  0.3145 -0.0101 -0.3182
  175SOPE   C2119856   3.551   6.244  10.073 -0.3530 -0.3948 -0.8205
  175SOPE   O2219857   3.655   6.262  10.013  0.1963 -0.3643  0.3189
  175SOPE   C2219858   3.407   6.244  10.020 -0.1201  0.2929  0.1324
  175SOPE   H2R19859   3.344   6.298  10.094 -3.0908 -1.2679 -1.0598
  175SOPE   H2S19860   3.376   6.137  10.026  1.4611 -0.2835 -1.2157
  175SOPE    C319861   3.735   6.050  10.268  0.7024 -0.2994 -0.5986
  175SOPE    HX19862   3.649   5.984  10.290  0.5181  1.0020  3.3256
  175SOPE    HY19863   3.802   6.039  10.356  1.5400 -1.6197 -1.3729
  175SOPE   O3119864   3.812   6.007  10.156 -0.3413 -0.5841 -0.3971
  175SOPE   C3119865   3.741   5.940  10.071  0.7122  0.5452  0.3449
  175SOPE   O3219866   3.634   5.886  10.085  0.0501  0.0823 -0.6020
  175SOPE   C3219867   3.810   5.953   9.940  0.3249  0.2415  0.0913
  175SOPE   H2X19868   3.898   5.887   9.953 -1.3474 -1.9907  0.8383
  175SOPE   H2Y19869   3.843   6.058   9.930  1.8939 -0.2719 -0.4981
  175SOPE   C2319870   3.381   6.297   9.876 -0.3874  0.4322  0.9391
  175SOPE   H3R19871   3.433   6.394   9.858  0.7588 -0.6343 -2.2269
  175SOPE   H3S19872   3.272   6.316   9.876 -0.8158 -1.7372  2.7327
  175SOPE   C2419873   3.403   6.196   9.760 -0.3616  0.0985 -0.2451
  175SOPE   H4R19874   3.513   6.179   9.755 -0.3533  0.4814 -1.7576
  175SOPE   H4S19875   3.344   6.102   9.764  2.3298 -1.7248 -0.6671
  175SOPE   C2519876   3.363   6.258   9.623  0.0508  0.3807  0.4056
  175SOPE   H5R19877   3.264   6.308   9.625  0.3472  0.9751  0.6654
  175SOPE   H5S19878   3.432   6.342   9.599 -0.1463 -0.3876 -3.4313
  175SOPE   C2619879   3.381   6.158   9.503 -0.0636  0.0326  0.5248
  175SOPE   H6R19880   3.484   6.116   9.501 -0.2764 -0.4685 -1.7264
  175SOPE   H6S19881   3.305   6.078   9.512  0.5180 -0.4521  1.2806
  175SOPE   C2719882   3.375   6.235   9.370 -0.0256  0.1422  0.3571
  175SOPE   H7R19883   3.279   6.285   9.344 -0.3262 -0.9035 -0.5974
  175SOPE   H7S19884   3.456   6.310   9.384 -1.9415  2.8582 -1.9478
  175SOPE   C2819885   3.421   6.152   9.244  0.5494 -0.0202 -0.9767
  175SOPE   H8R19886   3.524   6.113   9.259 -0.1909 -2.5629 -1.9956
  175SOPE   H8S19887   3.350   6.067   9.237  1.3372 -0.9692  1.6604
  175SOPE   C2919888   3.436   6.239   9.123 -0.2556  0.2514  0.1863
  175SOPE   H9119889   3.468   6.343   9.139  0.1335  0.1205  0.2693
  175SOPE  C21019890   3.405   6.199   9.002 -0.0583  0.1492 -0.4237
  175SOPE  H10119891   3.407   6.271   8.919 -1.5387 -2.4579 -2.9160
  175SOPE  C21119892   3.345   6.063   8.965 -0.5040 -0.0709  0.6952
  175SOPE  H11R19893   3.241   6.075   8.927 -0.1702 -0.3002 -0.3352
  175SOPE  H11S19894   3.327   5.996   9.051  2.2726  0.0017  1.4263
  175SOPE  C21219895   3.421   5.978   8.862 -0.5555  0.4797  0.1487
  175SOPE  H12R19896   3.380   5.875   8.850  3.6439 -1.2535 -1.5373
  175SOPE  H12S19897   3.522   5.964   8.907 -0.5046  0.9420  0.1779
  175SOPE  C21319898   3.434   6.042   8.718 -0.5212  0.4081 -0.3554
  175SOPE  H13R19899   3.515   5.987   8.666 -0.7994 -2.0859  1.6229
  175SOPE  H13S19900   3.461   6.149   8.734  0.7874  0.0571 -0.1224
  175SOPE  C21419901   3.307   6.025   8.634  0.5230 -0.2782  0.2217
  175SOPE  H14R19902   3.224   6.090   8.670 -0.1566 -1.8407  1.6324
  175SOPE  H14S19903   3.264   5.923   8.642 -1.6315  0.5888  0.3714
  175SOPE  C21519904   3.329   6.074   8.489  1.1010  0.5104 -0.1863
  175SOPE  H15R19905   3.393   6.005   8.431  0.8180  0.4797 -0.4676
  175SOPE  H15S19906   3.388   6.166   8.510  0.8491  0.7873 -0.6735
  175SOPE  C21619907   3.204   6.102   8.401 -0.5281  0.7217 -0.6492
  175SOPE  H16R19908   3.232   6.168   8.316  1.1875  0.4380 -0.3300
  175SOPE  H16S19909   3.131   6.163   8.459 -1.2839  1.2068 -2.0606
  175SOPE  C21719910   3.141   5.968   8.359 -0.5894 -0.5976 -0.6677
  175SOPE  H17R19911   3.111   5.911   8.450  1.7042  0.3934  0.7902
  175SOPE  H17S19912   3.205   5.896   8.304 -0.4634 -0.7062 -0.3840
  175SOPE  C21819913   3.018   5.992   8.273  0.2802  0.2554 -0.3918
  175SOPE  H18R19914   3.051   6.051   8.184  0.2960  1.0471  0.1279
  175SOPE  H18S19915   2.938   6.041   8.333 -1.0828 -2.5087  0.2016
  175SOPE  H18T19916   2.969   5.897   8.240 -0.9844  1.7321 -3.1969
  175SOPE   C3319917   3.726   5.904   9.817 -0.1012  0.1382 -0.4371
  175SOPE   H3X19918   3.635   5.964   9.798 -0.2768  0.3720  1.0679
  175SOPE   H3Y19919   3.691   5.800   9.833  0.7841 -0.6835 -3.2051
  175SOPE   C3419920   3.812   5.906   9.684 -0.4412  0.2323  0.4587
  175SOPE   H4X19921   3.746   5.854   9.610 -0.5564 -0.2278  0.8818
  175SOPE   H4Y19922   3.905   5.845   9.688  1.1061  2.3462 -0.9382
  175SOPE   C3519923   3.845   6.043   9.629  0.4791 -0.1629 -0.4178
  175SOPE   H5X19924   3.922   6.091   9.693  0.2935  0.0709 -0.3658
  175SOPE   H5Y19925   3.761   6.116   9.634  1.0888  0.4978  2.6022
  175SOPE   C3619926   3.907   6.047   9.492  0.6375 -0.6285  0.1991
  175SOPE   H6X19927   3.995   5.981   9.488  2.7671  1.8931  2.0124
  175SOPE   H6Y19928   3.955   6.147   9.491 -0.8887  0.1631  1.1081
  175SOPE   C3719929   3.806   6.021   9.388  0.0716 -0.1864 -0.0380
  175SOPE   H7X19930   3.717   6.079   9.419  0.6796 -0.5340  2.5951
  175SOPE   H7Y19931   3.776   5.916   9.407 -2.2113  0.3508 -0.4132
  175SOPE   C3819932   3.859   6.064   9.253  0.2624 -0.1134  0.2104
  175SOPE   H8X19933   3.888   6.170   9.266  0.9599 -0.4960  1.9145
  175SOPE   H8Y19934   3.771   6.066   9.184 -0.1164 -0.3444  0.6801
  175SOPE   C3919935   3.978   5.978   9.199  0.3648 -0.3159 -0.2711
  175SOPE   H9X19936   3.955   5.870   9.208  1.3544 -0.5847 -0.7962
  175SOPE   H9Y19937   4.070   5.996   9.259  0.2966  2.5267 -0.8702
  175SOPE  C31019938   4.025   6.018   9.063 -0.1919 -0.4946  0.4315
  175SOPE  H10X19939   4.039   6.128   9.069 -1.7551 -0.1497 -1.2570
  175SOPE  H10Y19940   3.937   6.005   8.996 -0.6361 -1.7656  1.2301
  175SOPE  C31119941   4.153   5.942   9.009 -0.0881  0.2319 -0.1302
  175SOPE  H11X19942   4.125   5.836   9.025 -0.6021  0.5757  1.3733
  175SOPE  H11Y19943   4.239   5.963   9.076 -1.2017 -1.7213  2.0535
  175SOPE  C31219944   4.197   5.972   8.858  0.2850  0.8021  0.3285
  175SOPE  H12X19945   4.113   5.950   8.790  0.3568  0.4477  0.3506
  175SOPE  H12Y19946   4.280   5.905   8.825 -0.3136  0.8101 -1.2570
  175SOPE  C31319947   4.242   6.116   8.825  0.8487  0.2634 -1.1885
  175SOPE  H13X19948   4.329   6.140   8.890  0.5672 -1.0480 -0.2863
  175SOPE  H13Y19949   4.154   6.179   8.852  0.5788 -0.4272 -0.4397
  175SOPE  C31419950   4.275   6.152   8.679  0.5774  0.0598 -0.8843
  175SOPE  H14X19951   4.187   6.128   8.616 -1.0810 -0.9704  1.6528
  175SOPE  H14Y19952   4.374   6.106   8.657  1.4526 -1.0304  4.1253
  175SOPE  C31519953   4.305   6.303   8.677 -0.8122  0.1957 -0.0263
  175SOPE  H15X19954   4.344   6.326   8.576  0.4203 -2.0654 -0.1349
  175SOPE  H15Y19955   4.389   6.317   8.748 -0.0845 -3.6915  0.1126
  175SOPE  C31619956   4.183   6.389   8.708 -1.1223  0.5584  0.2268
  175SOPE  H16X19957   4.137   6.368   8.807  1.1255 -1.1856  1.0071
  175SOPE  H16Y19958   4.106   6.384   8.628 -0.8345  3.0338 -0.2626
  175SOPE  C31719959   4.224   6.535   8.715  0.2454  0.2481 -0.7990
  175SOPE  H17X19960   4.133   6.596   8.731 -1.0878 -1.6771 -0.7239
  175SOPE  H17Y19961   4.266   6.588   8.627 -2.1391  3.1764 -0.3372
  175SOPE  C31819962   4.318   6.569   8.834  0.3153  0.6741  0.2462
  175SOPE  H18X19963   4.342   6.677   8.836 -0.2042  0.8140 -0.5171
  175SOPE  H18Y19964   4.407   6.507   8.807  0.8140  1.2301  0.5819
  175SOPE  H18Z19965   4.283   6.527   8.930 -1.4502  3.1874  0.7817
  176SOPE     N19966   0.964   5.665  10.889  0.1451 -0.0436 -0.4636
  176SOPE   HN119967   0.944   5.563  10.897 -0.6895  0.1181 -0.3601
  176SOPE   HN219968   0.885   5.709  10.940 -0.4600  0.2252 -1.5914
  176SOPE   HN319969   0.962   5.696  10.790  0.5555 -1.0459 -0.7944
  176SOPE   C1219970   1.090   5.717  10.952  0.1606 -0.6595 -0.2362
  176SOPE  H12A19971   1.115   5.638  11.025 -0.7078 -0.5291  0.2172
  176SOPE  H12B19972   1.074   5.816  11.000  1.8655  0.2129 -1.3713
  176SOPE   C1119973   1.197   5.731  10.840  0.1358  0.0619 -0.2096
  176SOPE  H11A19974   1.300   5.750  10.878  0.3623  2.4176 -1.7945
  176SOPE  H11B19975   1.185   5.824  10.780 -1.0027 -0.2842 -0.5330
  176SOPE     P19976   1.312   5.503  10.780  0.5205  0.2333  0.1116
  176SOPE   O1319977   1.283   5.430  10.906  0.3107  0.1765  0.4562
  176SOPE   O1419978   1.444   5.563  10.766 -0.1022  0.0636 -0.2301
  176SOPE   O1219979   1.202   5.616  10.754  0.0800 -0.2050 -0.5191
  176SOPE   O1119980   1.287   5.415  10.657  0.5891  0.1356 -0.0713
  176SOPE    C119981   1.160   5.391  10.604 -0.2419 -1.2977 -0.1073
  176SOPE    HA19982   1.140   5.447  10.510  2.1583 -0.2020 -0.0324
  176SOPE    HB19983   1.082   5.415  10.679 -1.3265  0.9033 -1.8120
  176SOPE    C219984   1.145   5.238  10.568 -0.4681 -0.7913 -0.2136
  176SOPE    HS19985   1.187   5.180  10.652 -0.2243 -0.5033 -0.1353
  176SOPE   O2119986   1.227   5.217  10.446 -0.5203 -0.2479 -0.9102
  176SOPE   C2119987   1.243   5.097  10.408 -0.0012 -0.2775  0.4545
  176SOPE   O2219988   1.211   4.996  10.472 -0.0810 -0.0640  0.1659
  176SOPE   C2219989   1.316   5.101  10.276 -0.3844 -0.3262  0.1403
  176SOPE   H2R19990   1.374   5.010  10.251  1.0415  0.0515  1.8226
  176SOPE   H2S19991   1.391   5.184  10.270  0.6038 -1.1864  0.2227
  176SOPE    C319992   1.000   5.192  10.537 -0.2972 -0.2291 -0.0376
  176SOPE    HX19993   0.945   5.217  10.631 -0.7343 -0.4419 -0.2346
  176SOPE    HY19994   0.992   5.082  10.520  1.1271 -0.1701 -1.2441
  176SOPE   O3119995   0.955   5.279  10.430 -0.3325  0.4068  0.0013
  176SOPE   C3119996   0.918   5.228  10.317 -0.3398 -0.1721  0.6525
  176SOPE   O3219997   0.908   5.112  10.291 -0.0245  0.2247 -0.4563
  176SOPE   C3219998   0.896   5.338  10.219 -0.6999 -0.6158 -0.4049
  176SOPE   H2X19999   0.999   5.378  10.206 -1.0118  0.8870  1.3237
  176SOPE   H2Y20000   0.832   5.421  10.256 -1.7295 -1.5139 -0.1170
  176SOPE   C2320001   1.225   5.122  10.155  0.3658 -0.4387  0.0494
  176SOPE   H3R20002   1.189   5.227  10.163  0.5069 -0.5370  4.3879
  176SOPE   H3S20003   1.136   5.059  10.176 -0.0373 -0.3285 -1.2612
  176SOPE   C2420004   1.297   5.082  10.023 -0.3394  0.1317 -0.7659
  176SOPE   H4R20005   1.391   5.140  10.011  0.4203 -1.4532 -3.4904
  176SOPE   H4S20006   1.322   4.974  10.034  0.3083  0.3430 -0.0938
  176SOPE   C2520007   1.214   5.082   9.895  0.2051  0.0971 -0.3845
  176SOPE   H5R20008   1.156   4.987   9.897  1.1684 -0.5327 -1.4797
  176SOPE   H5S20009   1.147   5.170   9.887  2.0897  1.4578 -2.4570
  176SOPE   C2620010   1.296   5.095   9.772  0.3603 -0.2233  0.3094
  176SOPE   H6R20011   1.360   5.186   9.784 -1.8044  1.2876  1.0182
  176SOPE   H6S20012   1.366   5.010   9.760  0.3187 -0.7870  3.2889
  176SOPE   C2720013   1.206   5.112   9.649  0.1314 -0.1175 -0.3440
  176SOPE   H7R20014   1.130   5.031   9.639 -0.6916  0.6256 -0.2978
  176SOPE   H7S20015   1.141   5.199   9.673  0.7356  0.1282  0.4205
  176SOPE   C2820016   1.281   5.145   9.515 -0.1157 -0.0367 -0.1554
  176SOPE   H8R20017   1.369   5.209   9.539  0.0926 -0.2544 -0.3340
  176SOPE   H8S20018   1.323   5.053   9.470 -0.5401  0.0596 -0.7550
  176SOPE   C2920019   1.183   5.212   9.422 -1.0372  0.3529  0.0511
  176SOPE   H9120020   1.135   5.301   9.465  0.1832  1.6532 -1.1830
  176SOPE  C21020021   1.174   5.183   9.291 -0.3804  0.1919 -0.8344
  176SOPE  H10120022   1.094   5.229   9.231 -0.6733  1.9402  0.8069
  176SOPE  C21120023   1.251   5.078   9.219 -0.6772 -0.2042  0.3790
  176SOPE  H11R20024   1.235   4.975   9.257  2.1548 -0.8207  0.1173
  176SOPE  H11S20025   1.360   5.101   9.226 -0.5359 -0.3151 -1.1405
  176SOPE  C21220026   1.199   5.077   9.074  0.6449  0.4691  0.3803
  176SOPE  H12R20027   1.266   5.011   9.014  1.4237  0.8122  0.8570
  176SOPE  H12S20028   1.213   5.177   9.028 -0.1998 -0.8941 -3.1712
  176SOPE  C21320029   1.058   5.029   9.053 -0.0529  0.0772 -0.3570
  176SOPE  H13R20030   1.030   5.052   8.948 -0.0381  1.1171 -0.1419
  176SOPE  H13S20031   0.989   5.087   9.118  0.6671 -0.6463  1.1040
  176SOPE  C21420032   1.034   4.874   9.073  0.2410 -0.0752 -0.4679
  176SOPE  H14R20033   1.005   4.858   9.179  1.4529 -2.1999 -0.4101
  176SOPE  H14S20034   1.129   4.822   9.048  0.8112  0.2667  0.8952
  176SOPE  C21520035   0.918   4.821   8.985 -0.6685 -0.3344  1.3297
  176SOPE  H15R20036   0.903   4.713   9.005  1.1718 -1.2846 -1.8706
  176SOPE  H15S20037   0.943   4.839   8.879 -0.9690 -0.1449  1.2890
  176SOPE  C21620038   0.791   4.901   9.012  0.8932 -0.5773  0.0396
  176SOPE  H16R20039   0.794   5.009   8.985 -3.2833 -0.3058  0.0444
  176SOPE  H16S20040   0.778   4.908   9.122  0.8091  0.4482 -0.0282
  176SOPE  C21720041   0.664   4.840   8.947  0.8357 -0.5643  0.2140
  176SOPE  H17R20042   0.653   4.736   8.985 -3.3004  0.2450  1.7404
  176SOPE  H17S20043   0.679   4.831   8.838  0.2299 -0.1624  0.0918
  176SOPE  C21820044   0.538   4.912   8.988 -0.7820 -0.4686  0.0100
  176SOPE  H18R20045   0.527   4.899   9.097  0.5936  0.7721  0.3230
  176SOPE  H18S20046   0.460   4.854   8.934  0.9498 -1.9539 -1.0417
  176SOPE  H18T20047   0.530   5.020   8.963 -2.3848 -0.2135  1.4538
  176SOPE   C3320048   0.843   5.284  10.083 -0.3728  0.6358 -0.1632
  176SOPE   H3X20049   0.756   5.218  10.103  0.2472 -0.0727  0.2490
  176SOPE   H3Y20050   0.923   5.219  10.040 -0.1422  0.5102  0.4454
  176SOPE   C3420051   0.810   5.386   9.976 -0.1203 -0.6126  0.0073
  176SOPE   H4X20052   0.748   5.464  10.026  0.8350 -0.6908  1.3686
  176SOPE   H4Y20053   0.746   5.337   9.900  1.5981 -0.1188 -1.8412
  176SOPE   C3520054   0.940   5.452   9.917 -0.4566  0.6496 -0.3058
  176SOPE   H5X20055   1.015   5.371   9.906 -1.5354  0.0055 -3.9725
  176SOPE   H5Y20056   0.979   5.524   9.993  2.3455 -1.8277  0.8137
  176SOPE   C3620057   0.915   5.519   9.788 -0.0650 -0.2557 -0.4846
  176SOPE   H6X20058   1.010   5.570   9.762  0.5846 -0.6204  1.0739
  176SOPE   H6Y20059   0.833   5.593   9.791 -1.0341 -1.2782 -0.9381
  176SOPE   C3720060   0.884   5.424   9.669  0.5953  0.6162  0.0445
  176SOPE   H7X20061   0.780   5.383   9.671  0.8191 -0.1325 -1.7038
  176SOPE   H7Y20062   0.954   5.338   9.661  0.8988  0.7901  0.7391
  176SOPE   C3820063   0.906   5.493   9.533 -0.5658 -0.0944 -0.3641
  176SOPE   H8X20064   1.012   5.522   9.524 -0.5818 -0.2805 -1.3104
  176SOPE   H8Y20065   0.846   5.587   9.541 -2.2879 -1.1685 -0.0275
  176SOPE   C3920066   0.836   5.416   9.420  0.0821 -0.5569  0.2699
  176SOPE   H9X20067   0.725   5.413   9.421  0.0902 -1.7686 -0.4006
  176SOPE   H9Y20068   0.862   5.307   9.419 -2.5547 -1.2660  1.1443
  176SOPE  C31020069   0.885   5.477   9.290 -0.7194  0.0937  0.1936
  176SOPE  H10X20070   0.996   5.475   9.290 -0.6710 -1.6165  2.4684
  176SOPE  H10Y20071   0.858   5.584   9.286  1.8235  0.7988  0.5200
  176SOPE  C31120072   0.837   5.413   9.165 -0.0010  0.1165  0.0334
  176SOPE  H11X20073   0.728   5.432   9.158 -0.0914 -0.4179 -0.0611
  176SOPE  H11Y20074   0.848   5.302   9.161 -1.1594 -0.0870  1.5603
  176SOPE  C31220075   0.904   5.469   9.042  0.4798  0.2765 -0.2827
  176SOPE  H12X20076   1.011   5.442   9.036  0.0410 -1.1611 -3.0798
  176SOPE  H12Y20077   0.885   5.578   9.037  1.7361  0.5016 -0.3042
  176SOPE  C31320078   0.844   5.407   8.908 -0.2741  0.1469 -0.9632
  176SOPE  H13X20079   0.836   5.297   8.923  0.4674  0.3460  1.2361
  176SOPE  H13Y20080   0.924   5.430   8.835 -0.3194  0.6095 -0.8683
  176SOPE  C31420081   0.710   5.459   8.853 -0.4962 -0.2614 -0.0355
  176SOPE  H14X20082   0.697   5.569   8.860  1.5539 -0.0494  1.5851
  176SOPE  H14Y20083   0.624   5.420   8.912 -0.2472 -0.3389  0.2802
  176SOPE  C31520084   0.689   5.412   8.711  0.6167  1.1275 -0.4363
  176SOPE  H15X20085   0.678   5.302   8.722 -0.3109  1.3936  1.8927
  176SOPE  H15Y20086   0.773   5.442   8.645 -0.3581  0.9565 -1.7826
  176SOPE  C31620087   0.558   5.455   8.654 -0.0102  0.0390  0.5241
  176SOPE  H16X20088   0.546   5.566   8.651  0.6474  0.1764  1.9862
  176SOPE  H16Y20089   0.467   5.429   8.713 -0.1771  1.1988  0.8132
  176SOPE  C31720090   0.532   5.401   8.510  0.3028  0.0706  0.0806
  176SOPE  H17X20091   0.506   5.293   8.519 -1.4532  0.2070 -2.4397
  176SOPE  H17Y20092   0.614   5.414   8.437  0.6350 -0.0674  0.4214
  176SOPE  C31820093   0.402   5.451   8.446  0.7844  0.0907 -0.0129
  176SOPE  H18X20094   0.409   5.562   8.446  1.3448  0.0977 -2.4258
  176SOPE  H18Y20095   0.313   5.426   8.508  2.2350 -2.3442  1.2365
  176SOPE  H18Z20096   0.387   5.408   8.345  0.2225 -0.7033  0.3969
  177SOPE     N20097   2.318   3.412  10.953  0.8194 -0.1762 -0.6210
  177SOPE   HN120098   2.368   3.458  11.032 -0.8209  0.3949  0.1347
  177SOPE   HN220099   2.377   3.341  10.906  0.5654 -0.7946 -0.0317
  177SOPE   HN320100   2.295   3.481  10.879 -1.6153 -1.3892 -1.1012
  177SOPE   C1220101   2.177   3.365  10.992 -0.1849 -0.1090 -0.0694
  177SOPE  H12A20102   2.120   3.374  10.897  0.4074  0.8068 -0.3569
  177SOPE  H12B20103   2.139   3.431  11.072 -0.2610  0.6285 -0.6951
  177SOPE   C1120104   2.183   3.222  11.041 -0.5033  0.3136  0.1649
  177SOPE  H11A20105   2.076   3.194  11.057 -0.4928  0.8862  1.3139
  177SOPE  H11B20106   2.225   3.221  11.144  1.1310 -1.4895 -0.4443
  177SOPE     P20107   2.186   3.025  10.873 -0.1415  0.5316  0.1695
  177SOPE   O1320108   2.090   2.945  10.957 -0.3987  0.4432 -0.8248
  177SOPE   O1420109   2.279   2.941  10.786 -0.2160  0.3193 -0.4432
  177SOPE   O1220110   2.265   3.134  10.957  0.8522 -0.1277 -0.5665
  177SOPE   O1120111   2.091   3.120  10.789  0.2572 -0.0466 -0.2842
  177SOPE    C120112   2.134   3.196  10.674 -0.0209 -0.7473  0.8490
  177SOPE    HA20113   2.241   3.224  10.681 -0.2444  0.1660  0.7062
  177SOPE    HB20114   2.081   3.294  10.674 -0.5580 -0.8932 -2.5953
  177SOPE    C220115   2.103   3.141  10.525 -0.5908 -0.3133 -0.2036
  177SOPE    HS20116   2.202   3.114  10.483 -1.0007 -0.4176 -1.1184
  177SOPE   O2120117   2.030   3.238  10.450 -0.4960 -0.0872 -0.3175
  177SOPE   C2120118   2.113   3.335  10.411  0.0873  0.4209  0.1682
  177SOPE   O2220119   2.233   3.342  10.428  1.0294  0.3502  0.2359
  177SOPE   C2220120   2.035   3.426  10.314  0.2217 -0.3892  0.5094
  177SOPE   H2R20121   2.111   3.485  10.256  1.9139 -1.9856  1.0196
  177SOPE   H2S20122   1.982   3.491  10.387  1.5016 -1.0304  2.0679
  177SOPE    C320123   2.011   3.021  10.525  0.2271 -0.4564  0.7250
  177SOPE    HX20124   1.912   3.047  10.570 -0.0666 -0.5051  0.1204
  177SOPE    HY20125   2.060   2.946  10.591 -0.2165 -1.9513 -0.5795
  177SOPE   O3120126   1.987   2.969  10.396 -0.3194 -0.6084 -0.0167
  177SOPE   C3120127   2.071   2.873  10.350 -0.1573  0.4861  0.0339
  177SOPE   O3220128   2.170   2.838  10.406 -0.2525 -0.1623 -0.0261
  177SOPE   C3220129   2.006   2.807  10.232 -0.0873 -0.5704 -0.3253
  177SOPE   H2X20130   1.992   2.698  10.252 -0.4920 -0.3584  0.5634
  177SOPE   H2Y20131   2.086   2.808  10.155  1.5590 -0.9108  1.2963
  177SOPE   C2320132   1.932   3.356  10.212  0.0018  0.2410  0.3432
  177SOPE   H3R20133   1.876   3.436  10.159  1.0171  0.2892 -0.6854
  177SOPE   H3S20134   1.855   3.300  10.269 -1.0839  0.3700 -0.9483
  177SOPE   C2420135   1.999   3.272  10.105 -0.4439  0.1483 -0.3531
  177SOPE   H4R20136   2.058   3.195  10.159  1.1947  0.9659 -0.8914
  177SOPE   H4S20137   1.921   3.207  10.060  0.7149 -0.6951 -1.2064
  177SOPE   C2520138   2.088   3.347  10.000 -0.6043 -0.5054 -0.3515
  177SOPE   H5R20139   2.160   3.404  10.062 -0.7369 -0.7431  0.0252
  177SOPE   H5S20140   2.148   3.277   9.938  2.0936 -0.8285  2.4096
  177SOPE   C2620141   2.012   3.439   9.899  0.6878  1.0062  0.2273
  177SOPE   H6R20142   1.922   3.481   9.949 -0.6842 -1.0285 -0.4188
  177SOPE   H6S20143   2.079   3.525   9.876 -0.1279  1.5419 -0.1983
  177SOPE   C2720144   1.977   3.373   9.768 -0.8001 -0.1738  0.8176
  177SOPE   H7R20145   2.064   3.376   9.700 -1.9452  0.0982 -0.6973
  177SOPE   H7S20146   1.940   3.268   9.771  0.2416 -0.5648  0.3727
  177SOPE   C2820147   1.871   3.447   9.684  0.7838 -0.0810 -0.4143
  177SOPE   H8R20148   1.776   3.473   9.736 -0.2299 -4.8137  0.5453
  177SOPE   H8S20149   1.925   3.540   9.656  0.0115 -0.0210 -1.7840
  177SOPE   C2920150   1.841   3.368   9.551 -0.2065 -0.4228 -0.5696
  177SOPE   H9120151   1.798   3.269   9.570  0.9514 -0.5621  1.5368
  177SOPE  C21020152   1.876   3.412   9.428  0.0674 -0.1137 -0.2949
  177SOPE  H10120153   1.846   3.350   9.342  0.5136 -1.9772  0.8421
  177SOPE  C21120154   1.947   3.542   9.393 -0.4475 -0.5272  0.6322
  177SOPE  H11R20155   2.056   3.525   9.398 -0.5213 -1.3046 -0.0761
  177SOPE  H11S20156   1.917   3.620   9.467 -1.9951  0.0180 -0.5202
  177SOPE  C21220157   1.906   3.594   9.253  0.4880  0.1331 -0.0036
  177SOPE  H12R20158   1.921   3.511   9.181  1.2570 -2.6795  3.1696
  177SOPE  H12S20159   1.989   3.667   9.236  1.7633 -1.1220  0.5874
  177SOPE  C21320160   1.763   3.655   9.259 -0.2320 -0.6093 -0.6294
  177SOPE  H13R20161   1.770   3.730   9.341  3.3504 -3.0539  1.5497
  177SOPE  H13S20162   1.686   3.584   9.297  2.1604 -2.4769  0.9914
  177SOPE  C21420163   1.732   3.733   9.135 -0.3521 -0.0826  0.6639
  177SOPE  H14R20164   1.623   3.738   9.114 -0.1998 -0.0327 -0.1488
  177SOPE  H14S20165   1.778   3.673   9.053  0.1711  0.2610  0.7022
  177SOPE  C21520166   1.804   3.873   9.136  0.6362 -0.4127  0.0945
  177SOPE  H15R20167   1.914   3.860   9.138  1.1709  2.9532 -1.5894
  177SOPE  H15S20168   1.780   3.934   9.226  1.4696 -0.7846  0.5801
  177SOPE  C21620169   1.783   3.959   9.013 -0.3731  0.4696 -0.3445
  177SOPE  H16R20170   1.681   4.003   9.004 -0.8662 -0.6490 -0.4022
  177SOPE  H16S20171   1.783   3.895   8.922  0.3559 -1.2873  0.8344
  177SOPE  C21720172   1.894   4.070   8.988 -0.4468  0.0001  0.4267
  177SOPE  H17R20173   1.859   4.145   9.062  0.0943 -0.7204  1.4209
  177SOPE  H17S20174   1.883   4.112   8.885  0.6290 -1.2698 -0.2493
  177SOPE  C21820175   2.040   4.030   9.019 -0.1228 -0.2216  0.5481
  177SOPE  H18R20176   2.076   3.954   8.947 -0.9224 -0.2392  0.1571
  177SOPE  H18S20177   2.034   4.007   9.127 -0.7055 -0.7531  0.4005
  177SOPE  H18T20178   2.107   4.118   9.001 -0.2199  0.0299  1.3790
  177SOPE   C3320179   1.882   2.876  10.183  0.5897 -0.0716  0.1906
  177SOPE   H3X20180   1.894   2.986  10.173  0.0216  0.3521  3.1797
  177SOPE   H3Y20181   1.794   2.857  10.249  0.1419 -0.5826 -0.5398
  177SOPE   C3420182   1.840   2.831  10.043 -0.4749  0.9620  0.4832
  177SOPE   H4X20183   1.730   2.832  10.029 -0.3392 -1.3038 -1.1964
  177SOPE   H4Y20184   1.870   2.725  10.029  0.2219  1.3536 -1.3277
  177SOPE   C3520185   1.914   2.914   9.932  0.6835 -0.2692  0.2645
  177SOPE   H5X20186   2.024   2.905   9.950  0.5689  0.5684  1.4882
  177SOPE   H5Y20187   1.873   3.016   9.950  0.5584 -0.6385  2.1622
  177SOPE   C3620188   1.888   2.865   9.793 -0.6382 -0.0000 -0.0460
  177SOPE   H6X20189   1.778   2.865   9.779 -0.6696  0.6066  0.1705
  177SOPE   H6Y20190   1.919   2.759   9.782 -2.0145 -0.5366  0.9191
  177SOPE   C3720191   1.958   2.945   9.683  0.9322  0.0836 -0.1153
  177SOPE   H7X20192   2.062   2.967   9.715  0.2507  2.3048  0.8244
  177SOPE   H7Y20193   1.911   3.046   9.683  0.8096  0.0279 -0.4552
  177SOPE   C3820194   1.931   2.884   9.542  0.1118 -0.6525 -0.4533
  177SOPE   H8X20195   1.829   2.839   9.537  0.3795 -1.2005 -1.0759
  177SOPE   H8Y20196   2.018   2.820   9.520  0.8454 -0.0854  0.6834
  177SOPE   C3920197   1.932   2.990   9.432  0.2636 -0.1706 -0.4061
  177SOPE   H9X20198   2.012   3.062   9.459 -0.3860  1.4399 -2.4779
  177SOPE   H9Y20199   1.836   3.044   9.440 -1.7698 -3.6059  0.4487
  177SOPE  C31020200   1.950   2.939   9.292  0.5132  0.1698  0.0685
  177SOPE  H10X20201   1.889   2.846   9.292  0.9147 -0.2014  2.7573
  177SOPE  H10Y20202   2.050   2.899   9.262  0.0158  1.4827 -3.8438
  177SOPE  C31120203   1.900   3.025   9.179  0.0555 -0.2052  0.6705
  177SOPE  H11X20204   1.962   3.117   9.170 -0.4495  0.2106  1.3310
  177SOPE  H11Y20205   1.793   3.052   9.194 -0.1893 -1.3310  0.9696
  177SOPE  C31220206   1.905   2.960   9.044  0.0633  0.0024  0.0870
  177SOPE  H12X20207   1.844   2.868   9.057 -1.6386  1.0012 -0.5528
  177SOPE  H12Y20208   2.003   2.922   9.007 -0.9306 -0.5147 -2.1763
  177SOPE  C31320209   1.847   3.053   8.943  0.0007 -0.1345 -0.0756
  177SOPE  H13X20210   1.913   3.141   8.928  1.0435 -0.8826  0.0272
  177SOPE  H13Y20211   1.753   3.094   8.987  0.3804 -0.0607  0.6959
  177SOPE  C31420212   1.812   2.977   8.817  0.0165 -0.0421 -0.1934
  177SOPE  H14X20213   1.755   3.051   8.757 -0.6773  0.1926  0.7263
  177SOPE  H14Y20214   1.756   2.882   8.830  0.2901 -0.3459 -1.1920
  177SOPE  C31520215   1.939   2.935   8.738  0.2899  0.5894  0.7372
  177SOPE  H15X20216   1.910   2.887   8.642 -2.0455 -0.4050  1.8486
  177SOPE  H15Y20217   1.997   2.858   8.793  0.5248 -1.0281 -1.6246
  177SOPE  C31620218   2.021   3.052   8.686 -0.7870 -0.1436 -0.4478
  177SOPE  H16X20219   2.079   3.112   8.759  2.2896 -1.5252 -1.6109
  177SOPE  H16Y20220   1.957   3.123   8.629 -1.2516  0.4676  0.8159
  177SOPE  C31720221   2.132   3.003   8.596  0.2699  0.0858  0.3826
  177SOPE  H17X20222   2.077   2.948   8.517  0.7143  0.7337 -0.3837
  177SOPE  H17Y20223   2.198   2.942   8.662 -0.9898  1.0321  2.6211
  177SOPE  C31820224   2.197   3.121   8.521 -0.2324  0.6401 -0.9313
  177SOPE  H18X20225   2.122   3.173   8.459 -3.6068 -0.6751  1.7267
  177SOPE  H18Y20226   2.284   3.086   8.461 -1.8768 -0.7952 -2.6023
  177SOPE  H18Z20227   2.237   3.194   8.595 -0.5406  1.0482 -1.1666
  178SOPE     N20228   5.466   0.191  10.608  0.1556  0.8487  0.3533
  178SOPE   HN120229   5.500   0.207  10.511 -0.7330 -1.1296 -0.3426
  178SOPE   HN220230   5.424   0.096  10.615 -0.9075  1.4025  2.1624
  178SOPE   HN320231   5.386   0.250  10.640 -1.8427 -2.2347  1.4904
  178SOPE   C1220232   5.570   0.198  10.710  0.0411  0.2306 -0.4499
  178SOPE  H12A20233   5.651   0.140  10.661 -1.1025 -0.7622 -1.2229
  178SOPE  H12B20234   5.530   0.152  10.803 -1.7763 -0.7381 -1.6532
  178SOPE   C1120235   5.602   0.344  10.739  0.0336 -0.5386  0.6806
  178SOPE  H11A20236   5.656   0.355  10.836 -1.1956  0.9593  1.2491
  178SOPE  H11B20237   5.506   0.400  10.737 -0.9516 -2.1422  1.5032
  178SOPE     P20238   5.726   0.536  10.628  0.3127 -0.0178  0.2941
  178SOPE   O1320239   5.788   0.568  10.760 -0.1520  0.4640  0.0442
  178SOPE   O1420240   5.610   0.624  10.595  0.4996 -0.1382  0.0371
  178SOPE   O1220241   5.676   0.387  10.623  0.0474  0.2345 -0.3203
  178SOPE   O1120242   5.829   0.552  10.515  0.6733 -0.2631  0.3339
  178SOPE    C120243   5.821   0.462  10.405  0.1428 -0.3189 -0.0770
  178SOPE    HA20244   5.811   0.520  10.311  0.6630  0.9793  0.6440
  178SOPE    HB20245   5.734   0.393  10.406 -0.7358  0.7663  1.1733
  178SOPE    C220246   5.948   0.373  10.385  0.5475 -0.0426 -0.0370
  178SOPE    HS20247   5.983   0.333  10.483  1.4788  0.0550 -0.3175
  178SOPE   O2120248   6.057   0.454  10.323  0.2611 -0.3758 -0.1961
  178SOPE   C2120249   6.151   0.500  10.404  0.2650 -0.4402  0.2062
  178SOPE   O2220250   6.163   0.473  10.523 -0.1500 -0.3676  0.3159
  178SOPE   C2220251   6.234   0.597  10.315 -0.8623  0.4467 -0.3188
  178SOPE   H2R20252   6.243   0.684  10.384  0.4485 -0.1011  0.2448
  178SOPE   H2S20253   6.176   0.626  10.225  0.6552 -1.1113 -1.8562
  178SOPE    C320254   5.925   0.251  10.286 -0.1935  0.1703  0.6206
  178SOPE    HX20255   5.828   0.213  10.327 -0.1500 -0.6097  0.0324
  178SOPE    HY20256   6.007   0.177  10.286  0.3522  0.7732  0.6461
  178SOPE   O3120257   5.898   0.284  10.147 -0.0428  0.0314 -0.3039
  178SOPE   C3120258   6.005   0.288  10.069  0.0266 -0.3142 -0.2702
  178SOPE   O3220259   6.117   0.250  10.094  0.2447  0.1334 -0.1574
  178SOPE   C3220260   5.960   0.359   9.939  0.2515  0.3042  0.5034
  178SOPE   H2X20261   5.996   0.464   9.945 -2.1420  1.1739  0.6481
  178SOPE   H2Y20262   5.849   0.353   9.932  0.1714  1.3732  0.6427
  178SOPE   C2320263   6.370   0.549  10.269 -0.0235  0.1727 -0.1247
  178SOPE   H3R20264   6.430   0.521  10.358  0.5309  0.8089 -0.2988
  178SOPE   H3S20265   6.424   0.631  10.217  0.6434 -0.0760  0.1649
  178SOPE   C2420266   6.354   0.435  10.159  0.6338 -0.1877 -0.1531
  178SOPE   H4R20267   6.309   0.345  10.205  1.6531 -1.7261 -2.0161
  178SOPE   H4S20268   6.285   0.480  10.085  0.0469 -2.3343 -0.9873
  178SOPE   C2520269   6.486   0.407  10.094 -0.1881  0.2687 -0.4982
  178SOPE   H5R20270   6.520   0.501  10.046 -2.4926 -0.7501 -4.5474
  178SOPE   H5S20271   6.555   0.388  10.180 -0.5673 -0.6790 -0.3906
  178SOPE   C2620272   6.481   0.292   9.990  0.5680 -0.0685  0.1837
  178SOPE   H6R20273   6.577   0.237   9.978  0.5063 -0.2412  0.4668
  178SOPE   H6S20274   6.404   0.221  10.026  0.8150  0.6055  2.1430
  178SOPE   C2720275   6.444   0.360   9.857  1.0845  0.2119 -0.0822
  178SOPE   H7R20276   6.353   0.422   9.869  0.7630 -0.6872  2.7440
  178SOPE   H7S20277   6.536   0.420   9.836  2.9379 -2.3521  0.1370
  178SOPE   C2820278   6.414   0.257   9.742 -0.3063  0.0355 -0.7628
  178SOPE   H8R20279   6.443   0.156   9.779  1.1156  0.5725 -0.3728
  178SOPE   H8S20280   6.303   0.259   9.736 -0.4564 -0.2673  1.1376
  178SOPE   C2920281   6.459   0.301   9.606 -0.2696  0.5985  0.6293
  178SOPE   H9120282   6.456   0.408   9.584  0.8657 -0.0223 -3.4475
  178SOPE  C21020283   6.498   0.222   9.502  1.0141  0.2544 -0.2130
  178SOPE  H10120284   6.523   0.264   9.403  2.2825 -1.0328 -0.4740
  178SOPE  C21120285   6.509   0.068   9.501  0.7511  0.6299 -0.3031
  178SOPE  H11R20286   6.460   0.010   9.582  2.2047 -1.3246 -0.7471
  178SOPE  H11S20287   6.618   0.044   9.499  0.4383 -0.8249 -0.7596
  178SOPE  C21220288   6.447   0.011   9.366 -0.0215 -0.8756 -0.3803
  178SOPE  H12R20289   6.471   0.072   9.276 -0.9394 -0.8477 -0.6164
  178SOPE  H12S20290   6.337   0.002   9.368 -0.1150  0.2213  0.6519
  178SOPE  C21320291   6.497  -0.130   9.345 -0.7964  0.3976 -0.1263
  178SOPE  H13R20292   6.449  -0.187   9.427 -4.4801  1.9350 -0.9921
  178SOPE  H13S20293   6.608  -0.139   9.347 -0.8702 -1.5316 -1.5455
  178SOPE  C21420294   6.443  -0.186   9.208 -0.2391  0.2784  0.0192
  178SOPE  H14R20295   6.443  -0.116   9.121 -1.3609 -1.2858 -1.2977
  178SOPE  H14S20296   6.345  -0.235   9.225  0.8257 -2.3160 -0.7393
  178SOPE  C21520297   6.528  -0.309   9.174  0.0938 -0.0020  0.8718
  178SOPE  H15R20298   6.550  -0.363   9.269  1.3629  0.9545  1.1568
  178SOPE  H15S20299   6.623  -0.268   9.132 -0.6033  2.0384  1.1537
  178SOPE  C21620300   6.460  -0.393   9.063  0.6276 -0.5051  0.1051
  178SOPE  H16R20301   6.368  -0.422   9.117 -0.9907  1.7689 -1.2177
  178SOPE  H16S20302   6.517  -0.486   9.044 -0.9179 -1.7636  1.3561
  178SOPE  C21720303   6.418  -0.306   8.936 -0.0489  0.0870 -0.7118
  178SOPE  H17R20304   6.504  -0.244   8.905 -0.5390  0.5352 -1.1956
  178SOPE  H17S20305   6.333  -0.245   8.974 -0.4223 -0.3318 -0.8521
  178SOPE  C21820306   6.367  -0.393   8.824  0.2612 -0.0984  0.6236
  178SOPE  H18R20307   6.258  -0.412   8.840  0.5482 -1.7288  0.8350
  178SOPE  H18S20308   6.419  -0.491   8.822 -0.9968 -0.7933  0.2790
  178SOPE  H18T20309   6.380  -0.341   8.727  3.3035  0.8178  1.4280
  178SOPE   C3320310   6.019   0.287   9.815  0.0581  0.0019  0.6974
  178SOPE   H3X20311   5.984   0.182   9.806 -1.0236  0.2814  1.4465
  178SOPE   H3Y20312   6.126   0.301   9.841  0.1879  1.2198 -0.3845
  178SOPE   C3420313   5.989   0.356   9.680 -0.3422 -0.5975  0.6700
  178SOPE   H4X20314   6.014   0.464   9.686  0.5013 -0.5026 -2.7498
  178SOPE   H4Y20315   5.879   0.351   9.666 -0.3789  1.8710 -0.2990
  178SOPE   C3520316   6.057   0.278   9.561  0.1812 -0.4679 -0.0891
  178SOPE   H5X20317   6.018   0.174   9.555 -1.5864  0.1963 -0.6968
  178SOPE   H5Y20318   6.166   0.270   9.582  0.0526 -1.8327  0.1591
  178SOPE   C3620319   6.037   0.349   9.430  0.3651 -0.2356 -0.1675
  178SOPE   H6X20320   6.084   0.450   9.433 -1.6098  0.7356 -0.2130
  178SOPE   H6Y20321   5.927   0.364   9.420  0.3656 -0.9944 -1.5004
  178SOPE   C3720322   6.090   0.268   9.310  0.2335 -0.0116  0.4301
  178SOPE   H7X20323   6.020   0.181   9.303 -1.1799  0.8836  2.4578
  178SOPE   H7Y20324   6.194   0.235   9.329  0.4895 -0.2991 -1.3188
  178SOPE   C3820325   6.094   0.350   9.176 -0.7609 -0.5444  0.4547
  178SOPE   H8X20326   6.160   0.438   9.190 -0.8180 -0.2350 -1.0175
  178SOPE   H8Y20327   5.994   0.392   9.151  0.3589  1.5995 -0.6840
  178SOPE   C3920328   6.143   0.268   9.053 -0.4375 -0.7430 -0.2363
  178SOPE   H9X20329   6.061   0.200   9.022 -1.9271  0.6434  0.5611
  178SOPE   H9Y20330   6.226   0.201   9.086 -0.3131 -0.6309 -0.3183
  178SOPE  C31020331   6.189   0.356   8.934 -0.9684  0.5161  0.2150
  178SOPE  H10X20332   6.275   0.418   8.968 -0.5816 -0.3648  0.8912
  178SOPE  H10Y20333   6.105   0.415   8.890 -0.5212 -0.0440 -1.4861
  178SOPE  C31120334   6.231   0.268   8.814  0.7520 -0.1374 -0.2713
  178SOPE  H11X20335   6.222   0.335   8.726  2.9984  0.2971 -0.2335
  178SOPE  H11Y20336   6.156   0.187   8.814 -0.1787  0.6921 -1.3952
  178SOPE  C31220337   6.371   0.210   8.829 -0.8890  0.6379  0.7073
  178SOPE  H12X20338   6.356   0.137   8.911 -1.2852 -0.7306 -0.5358
  178SOPE  H12Y20339   6.447   0.283   8.863 -0.7907  0.3831  1.0388
  178SOPE  C31320340   6.426   0.156   8.701  0.0469 -0.8253  0.1291
  178SOPE  H13X20341   6.408   0.225   8.615 -2.2158 -1.2121  0.2405
  178SOPE  H13Y20342   6.369   0.066   8.669 -0.2858 -0.1443 -1.2911
  178SOPE  C31420343   6.575   0.129   8.707  0.1056 -0.0653 -0.0976
  178SOPE  H14X20344   6.595   0.063   8.794 -1.5165 -1.2800 -0.5943
  178SOPE  H14Y20345   6.631   0.225   8.706  1.1840 -0.6593  0.7442
  178SOPE  C31520346   6.633   0.051   8.581  0.3288  0.2475  0.6021
  178SOPE  H15X20347   6.577  -0.045   8.577  1.3051 -0.3083 -0.2853
  178SOPE  H15Y20348   6.741   0.028   8.594  0.2554 -0.6614 -0.2234
  178SOPE  C31620349   6.595   0.106   8.441 -0.0113  0.2975 -0.2548
  178SOPE  H16X20350   6.484   0.105   8.429 -0.0287  0.3925 -0.1005
  178SOPE  H16Y20351   6.654   0.035   8.380  3.5385  3.9089 -1.4709
  178SOPE  C31720352   6.637   0.254   8.404  0.3373  0.9171 -0.4691
  178SOPE  H17X20353   6.600   0.320   8.485  0.5116  0.5735 -0.1058
  178SOPE  H17Y20354   6.597   0.294   8.308 -0.5002 -2.3574 -1.6257
  178SOPE  C31820355   6.785   0.260   8.390 -0.6637  0.1761 -0.5108
  178SOPE  H18X20356   6.818   0.361   8.358 -2.0407  1.1993  1.1359
  178SOPE  H18Y20357   6.815   0.184   8.314 -2.0933 -1.0738  0.1128
  178SOPE  H18Z20358   6.844   0.236   8.481  1.3767  1.3436 -1.4560
  179SOPE     N20359   4.368   2.972   6.132 -0.2938  0.1529  1.2341
  179SOPE   HN120360   4.378   2.901   6.056 -0.6526  2.1993 -0.8526
  179SOPE   HN220361   4.294   3.041   6.109  1.7298  1.9361 -0.3076
  179SOPE   HN320362   4.459   3.019   6.152  0.4634 -0.7283  0.0142
  179SOPE   C1220363   4.314   2.916   6.266  0.1808  0.1733  0.4110
  179SOPE  H12A20364   4.406   2.904   6.327  0.0354 -0.3336  0.5382
  179SOPE  H12B20365   4.280   2.814   6.238  0.8776 -0.1347  0.6619
  179SOPE   C1120366   4.201   3.003   6.320 -0.4564 -0.3186 -0.2396
  179SOPE  H11A20367   4.153   2.948   6.403 -0.1393  0.8198  0.7223
  179SOPE  H11B20368   4.130   3.018   6.236 -0.0249  0.7633 -0.4276
  179SOPE     P20369   4.155   3.253   6.383  0.0846 -0.1785 -0.1831
  179SOPE   O1320370   4.167   3.317   6.256 -0.1649  0.3284 -0.2969
  179SOPE   O1420371   4.199   3.331   6.499 -0.8256 -0.5516  0.1742
  179SOPE   O1220372   4.246   3.127   6.369  0.0225 -0.4229  0.6394
  179SOPE   O1120373   4.011   3.208   6.414  0.0461 -0.0341 -0.1273
  179SOPE    C120374   3.941   3.133   6.509 -0.0419 -0.2367 -0.4170
  179SOPE    HA20375   4.020   3.076   6.562  2.6164  2.5597 -1.0443
  179SOPE    HB20376   3.875   3.068   6.448 -2.1648  3.0276 -1.8752
  179SOPE    C220377   3.860   3.227   6.602  0.0818  0.1703 -0.0038
  179SOPE    HS20378   3.812   3.304   6.538 -2.0181 -1.1093 -0.0626
  179SOPE   O2120379   3.949   3.285   6.700 -0.1256 -0.5776 -0.5835
  179SOPE   C2120380   3.927   3.409   6.722 -0.1749 -0.0480 -0.2447
  179SOPE   O2220381   3.832   3.475   6.695 -0.6954 -0.3043  0.3265
  179SOPE   C2220382   4.052   3.456   6.803  0.7983  0.3104 -0.4932
  179SOPE   H2R20383   4.142   3.436   6.742  2.7748 -0.3274  2.4313
  179SOPE   H2S20384   4.068   3.383   6.885  0.6129 -0.4927 -1.1600
  179SOPE    C320385   3.759   3.138   6.666 -0.2076  0.1355  0.0323
  179SOPE    HX20386   3.703   3.076   6.593  0.4998  0.3075 -0.6793
  179SOPE    HY20387   3.697   3.209   6.725  0.4919 -0.0940  1.0553
  179SOPE   O3120388   3.829   3.044   6.755  1.0642  0.3303  0.7606
  179SOPE   C3120389   3.755   2.993   6.852  0.1270 -0.1499 -0.3710
  179SOPE   O3220390   3.641   3.028   6.877 -0.2053 -0.4985 -0.2825
  179SOPE   C3220391   3.846   2.902   6.932  0.2938 -0.8041 -0.4999
  179SOPE   H2X20392   3.937   2.962   6.953  0.0185 -0.8001  0.7864
  179SOPE   H2Y20393   3.875   2.816   6.868  0.6916 -0.2564 -1.0661
  179SOPE   C2320394   4.039   3.597   6.858  0.3768 -0.0664  0.1088
  179SOPE   H3R20395   4.004   3.666   6.779 -2.1178  1.2874  2.2547
  179SOPE   H3S20396   4.141   3.639   6.875 -0.3522  2.8059 -1.8990
  179SOPE   C2420397   3.963   3.621   6.988  0.1220 -0.1294  0.3677
  179SOPE   H4R20398   3.932   3.727   6.994 -2.4254 -0.8042  0.1646
  179SOPE   H4S20399   3.867   3.565   6.987 -1.3324  2.1374  2.2292
  179SOPE   C2520400   4.052   3.587   7.110 -0.3798  0.1971 -0.0913
  179SOPE   H5R20401   4.079   3.479   7.108  2.5272  0.8291  0.3725
  179SOPE   H5S20402   4.148   3.642   7.112 -0.0243 -0.4203 -0.1607
  179SOPE   C2620403   3.972   3.629   7.236 -0.2433  0.0781  0.3248
  179SOPE   H6R20404   3.992   3.738   7.248 -0.9326  0.2172  0.2043
  179SOPE   H6S20405   3.864   3.629   7.212  0.0507 -0.7428 -1.0745
  179SOPE   C2720406   4.008   3.549   7.363 -0.5470  0.4263  1.7145
  179SOPE   H7R20407   3.980   3.445   7.333  2.9230 -0.3191  0.6108
  179SOPE   H7S20408   4.118   3.556   7.367 -0.3533  0.0931 -1.1201
  179SOPE   C2820409   3.943   3.599   7.492  0.7987  0.1113 -0.0715
  179SOPE   H8R20410   3.991   3.548   7.578 -1.2051 -1.1718  0.3620
  179SOPE   H8S20411   3.958   3.709   7.496 -2.3387  0.6541 -0.6844
  179SOPE   C2920412   3.792   3.568   7.498 -0.0716 -0.0421  0.5070
  179SOPE   H9120413   3.726   3.609   7.420 -1.6966 -0.6694  1.4989
  179SOPE  C21020414   3.728   3.511   7.602 -0.4510 -0.2576 -0.2661
  179SOPE  H10120415   3.619   3.512   7.614 -0.2627  1.0114  1.7124
  179SOPE  C21120416   3.796   3.464   7.733 -0.0757 -0.1975 -0.4672
  179SOPE  H11R20417   3.835   3.548   7.794  1.1364 -0.4435 -0.8698
  179SOPE  H11S20418   3.887   3.406   7.707  1.3981  1.0340  1.6381
  179SOPE  C21220419   3.718   3.362   7.812  0.3897  0.1451  0.2105
  179SOPE  H12R20420   3.778   3.321   7.897 -1.7133 -0.4723  1.4745
  179SOPE  H12S20421   3.696   3.278   7.742 -2.1907  1.8426 -1.1845
  179SOPE  C21320422   3.594   3.418   7.881  0.5261 -0.0336  0.6543
  179SOPE  H13R20423   3.542   3.334   7.932  1.2672 -0.3210  0.9585
  179SOPE  H13S20424   3.523   3.468   7.812  1.9672  0.7858 -0.2921
  179SOPE  C21420425   3.631   3.517   7.999 -0.2313  0.5577 -0.7427
  179SOPE  H14R20426   3.692   3.602   7.964 -0.3101  0.8961 -0.0692
  179SOPE  H14S20427   3.688   3.456   8.073 -0.7506 -2.2570 -2.5152
  179SOPE  C21520428   3.503   3.574   8.066  0.1533  0.6577  0.4860
  179SOPE  H15R20429   3.421   3.601   7.995 -1.5079 -0.4007  1.9037
  179SOPE  H15S20430   3.536   3.661   8.126  1.6784 -0.2728  1.0411
  179SOPE  C21620431   3.428   3.484   8.160  0.2958 -0.1400 -0.2354
  179SOPE  H16R20432   3.510   3.439   8.221 -1.2380 -1.2001  1.1236
  179SOPE  H16S20433   3.380   3.410   8.093 -0.1739 -1.8775  1.8973
  179SOPE  C21720434   3.337   3.554   8.265 -0.1976 -0.1325  0.4877
  179SOPE  H17R20435   3.279   3.637   8.218 -0.3140  0.0067  0.8702
  179SOPE  H17S20436   3.408   3.609   8.330  1.8514 -0.9583 -0.9445
  179SOPE  C21820437   3.259   3.451   8.353  0.1252  0.6176 -0.0525
  179SOPE  H18R20438   3.336   3.393   8.408 -0.6008  0.2606  0.5939
  179SOPE  H18S20439   3.180   3.396   8.300 -0.5941  0.1265  1.4791
  179SOPE  H18T20440   3.195   3.495   8.433 -1.9243  0.2595 -1.4324
  179SOPE   C3320441   3.779   2.847   7.061 -0.9944  0.0422  0.4280
  179SOPE   H3X20442   3.688   2.789   7.035 -0.3791 -2.5204  3.4623
  179SOPE   H3Y20443   3.754   2.922   7.139  1.3233  0.9077  0.4343
  179SOPE   C3420444   3.875   2.747   7.125 -0.8425 -0.6776 -0.5079
  179SOPE   H4X20445   3.981   2.778   7.135 -0.7676 -1.3490  1.1287
  179SOPE   H4Y20446   3.871   2.655   7.063 -3.6153 -0.3007 -1.0107
  179SOPE   C3520447   3.835   2.728   7.273 -0.0794  0.0686 -0.0464
  179SOPE   H5X20448   3.727   2.703   7.266  0.6581 -3.7688 -0.0064
  179SOPE   H5Y20449   3.841   2.830   7.316 -0.9657  0.7893 -1.5468
  179SOPE   C3620450   3.923   2.633   7.347 -0.4929 -0.0201 -0.2204
  179SOPE   H6X20451   4.026   2.656   7.312 -2.0751  3.3963 -3.2754
  179SOPE   H6Y20452   3.889   2.534   7.309  1.0104  0.1414 -2.1079
  179SOPE   C3720453   3.914   2.638   7.501 -0.1413 -0.1549 -0.4494
  179SOPE   H7X20454   3.953   2.561   7.570 -0.9400  0.6711  0.9840
  179SOPE   H7Y20455   3.804   2.639   7.520  0.2373 -0.3572  2.1548
  179SOPE   C3820456   3.975   2.771   7.553  0.2686  0.4398  0.0203
  179SOPE   H8X20457   3.928   2.864   7.516  2.3058  1.2827 -0.5613
  179SOPE   H8Y20458   4.079   2.768   7.514  0.7398 -0.4147  1.2446
  179SOPE   C3920459   3.975   2.797   7.708  0.1211 -0.4195  0.6300
  179SOPE   H9X20460   4.071   2.759   7.751  0.7474  2.3773  1.9297
  179SOPE   H9Y20461   3.889   2.742   7.752  0.3948 -1.7693 -0.4465
  179SOPE  C31020462   3.950   2.942   7.758  0.4851  0.2937 -0.1203
  179SOPE  H10X20463   3.851   2.978   7.724 -0.2370 -0.9611  0.5860
  179SOPE  H10Y20464   4.022   3.021   7.727 -0.1642  0.1817 -2.0321
  179SOPE  C31120465   3.956   2.947   7.913 -0.1555 -0.1743 -0.2876
  179SOPE  H11X20466   4.061   2.939   7.948 -0.2682 -0.3174  0.0217
  179SOPE  H11Y20467   3.917   2.849   7.947 -0.1449  0.2995  1.1546
  179SOPE  C31220468   3.889   3.072   7.969 -0.4205  0.1279  0.2446
  179SOPE  H12X20469   3.783   3.070   7.934  0.5709 -0.5543 -3.0747
  179SOPE  H12Y20470   3.943   3.164   7.937  1.8021 -0.8849  0.8992
  179SOPE  C31320471   3.877   3.069   8.123  0.0314 -0.1756 -0.6392
  179SOPE  H13X20472   3.978   3.055   8.165  0.0514  2.5120  0.4140
  179SOPE  H13Y20473   3.837   2.970   8.154  2.7825 -0.8574  1.0369
  179SOPE  C31420474   3.810   3.194   8.177 -0.5816 -1.1033  0.8635
  179SOPE  H14X20475   3.713   3.198   8.122 -0.2961 -0.6765  0.3789
  179SOPE  H14Y20476   3.865   3.283   8.139 -1.6661  0.4622  2.7718
  179SOPE  C31520477   3.792   3.204   8.330  0.2094 -0.1046 -0.1513
  179SOPE  H15X20478   3.720   3.122   8.349  0.3136 -0.7704 -2.3512
  179SOPE  H15Y20479   3.735   3.293   8.365  3.0271  1.1572  1.6501
  179SOPE  C31620480   3.917   3.191   8.417  0.5320 -0.6286 -0.5521
  179SOPE  H16X20481   4.006   3.257   8.407  2.1482 -2.1065  2.6678
  179SOPE  H16Y20482   3.951   3.089   8.391 -0.9261 -1.0564 -0.8500
  179SOPE  C31720483   3.890   3.188   8.572  0.4201 -0.2502 -0.0556
  179SOPE  H17X20484   3.856   3.287   8.607 -1.6720 -1.4573  1.5358
  179SOPE  H17Y20485   3.981   3.154   8.627 -0.1270  0.4866  1.3413
  179SOPE  C31820486   3.777   3.096   8.609  0.8755  0.0469 -0.0668
  179SOPE  H18X20487   3.787   2.993   8.569 -1.4407 -0.0874 -0.4171
  179SOPE  H18Y20488   3.687   3.138   8.561  0.0138 -2.4723 -0.7814
  179SOPE  H18Z20489   3.755   3.082   8.717 -0.0993 -1.5512 -0.4465
  180SOPE     N20490   2.466   3.541   6.564  0.2829 -0.4723  0.2236
  180SOPE   HN120491   2.399   3.507   6.636  1.0258 -0.9075  0.7288
  180SOPE   HN220492   2.453   3.644   6.561 -2.6685 -0.7985 -0.8053
  180SOPE   HN320493   2.438   3.511   6.469  3.5265 -1.1678 -0.6479
  180SOPE   C1220494   2.604   3.490   6.589 -0.0128 -0.1331 -0.3429
  180SOPE  H12A20495   2.590   3.429   6.681 -0.7819  0.3394 -0.1338
  180SOPE  H12B20496   2.670   3.578   6.603  1.6116 -1.2164 -0.9410
  180SOPE   C1120497   2.655   3.401   6.478 -0.0410 -0.3015  0.3643
  180SOPE  H11A20498   2.590   3.313   6.461 -0.3659  0.1200 -0.6565
  180SOPE  H11B20499   2.754   3.364   6.512 -0.1668 -0.3917  0.6328
  180SOPE     P20500   2.784   3.484   6.262 -0.7662  0.0234 -0.2608
  180SOPE   O1320501   2.747   3.589   6.168 -0.4550 -0.1291  0.1257
  180SOPE   O1420502   2.814   3.351   6.209 -0.1951 -0.4986 -0.0191
  180SOPE   O1220503   2.660   3.470   6.353 -0.2799 -0.1592 -0.5955
  180SOPE   O1120504   2.907   3.524   6.357  0.6994 -0.2245 -0.2633
  180SOPE    C120505   2.934   3.650   6.411 -0.3321  1.1309  0.3749
  180SOPE    HA20506   2.838   3.707   6.413 -1.0042  0.3191 -3.1612
  180SOPE    HB20507   3.013   3.704   6.355  0.1430 -0.8199 -0.9270
  180SOPE    C220508   2.978   3.651   6.561  0.2828  0.5302  0.9231
  180SOPE    HS20509   3.089   3.645   6.559  0.3111 -1.1891  3.6670
  180SOPE   O2120510   2.911   3.548   6.638 -0.5387 -0.1708  0.3157
  180SOPE   C2120511   2.995   3.471   6.708 -0.5233  0.3710  0.2578
  180SOPE   O2220512   3.116   3.472   6.694 -1.1218 -0.0985  0.1540
  180SOPE   C2220513   2.919   3.381   6.797  0.3052  0.4480 -0.4053
  180SOPE   H2R20514   2.868   3.308   6.730 -0.9378  2.6765 -2.0333
  180SOPE   H2S20515   2.844   3.439   6.854 -0.6837  0.9915 -2.1564
  180SOPE    C320516   2.947   3.793   6.617 -0.2699 -0.3409  0.4304
  180SOPE    HX20517   2.839   3.812   6.637  0.0105 -0.0265  1.7473
  180SOPE    HY20518   2.984   3.854   6.532 -4.3568  1.2631 -0.4366
  180SOPE   O3120519   3.026   3.823   6.735 -0.2623 -0.2682  0.6102
  180SOPE   C3120520   2.963   3.796   6.845 -0.7160  0.2052 -0.4328
  180SOPE   O3220521   2.867   3.724   6.856 -0.7553  0.0070  0.7000
  180SOPE   C3220522   3.047   3.860   6.960 -0.0728 -0.3608  0.1863
  180SOPE   H2X20523   2.988   3.927   7.026  2.6644 -1.1466  3.7410
  180SOPE   H2Y20524   3.125   3.922   6.911  0.2867 -1.5464 -0.7769
  180SOPE   C2320525   3.012   3.313   6.901 -0.2270  0.6198  0.2320
  180SOPE   H3R20526   3.061   3.390   6.963  1.4365  0.5157 -0.8827
  180SOPE   H3S20527   3.092   3.253   6.852 -0.5382 -1.4993  2.1354
  180SOPE   C2420528   2.932   3.236   7.006 -0.8772  0.4691  0.0570
  180SOPE   H4R20529   2.889   3.306   7.081 -2.0464 -0.3105  0.1483
  180SOPE   H4S20530   2.856   3.175   6.952 -0.0282 -0.3971 -0.1771
  180SOPE   C2520531   3.012   3.129   7.086 -0.2017  0.2760  0.3455
  180SOPE   H5R20532   3.065   3.075   7.005  0.0618  0.9331  0.0732
  180SOPE   H5S20533   3.094   3.174   7.146 -0.9292 -0.2407  1.7862
  180SOPE   C2620534   2.905   3.044   7.161 -0.2346  0.2976 -0.4894
  180SOPE   H6R20535   2.944   3.011   7.259 -1.0061  1.7051  0.3160
  180SOPE   H6S20536   2.823   3.114   7.187 -1.0593 -0.7399 -0.2314
  180SOPE   C2720537   2.841   2.926   7.092 -0.9980  0.4628  0.4506
  180SOPE   H7R20538   2.761   2.874   7.149  0.2090 -0.9817  0.9144
  180SOPE   H7S20539   2.796   2.938   6.991 -1.0941 -1.0588  0.2819
  180SOPE   C2820540   2.958   2.819   7.086 -0.0177  0.4568  0.0146
  180SOPE   H8R20541   3.033   2.873   7.023  0.4574 -0.3932 -0.1706
  180SOPE   H8S20542   2.998   2.789   7.185  0.7685  0.7887 -0.1939
  180SOPE   C2920543   2.914   2.701   7.004  0.4832  0.5643 -0.4476
  180SOPE   H9120544   2.914   2.723   6.896 -0.2626 -0.7020 -0.7294
  180SOPE  C21020545   2.888   2.578   7.043 -0.5356  0.0061  0.0575
  180SOPE  H10120546   2.876   2.501   6.965  0.3280 -0.0044 -0.0745
  180SOPE  C21120547   2.879   2.538   7.187 -0.1674  0.1139  0.7681
  180SOPE  H11R20548   2.777   2.555   7.230 -1.2053  1.2586 -1.9531
  180SOPE  H11S20549   2.954   2.589   7.251  0.0214  0.2334  0.4529
  180SOPE  C21220550   2.911   2.386   7.205 -0.2161  0.0555 -0.2715
  180SOPE  H12R20551   3.017   2.366   7.230 -0.0457  1.7101  0.4237
  180SOPE  H12S20552   2.882   2.325   7.117 -0.3143 -1.5887  0.8550
  180SOPE  C21320553   2.845   2.323   7.328 -0.0965 -0.2779  0.2098
  180SOPE  H13R20554   2.738   2.350   7.320  0.4481  1.4475 -1.8699
  180SOPE  H13S20555   2.889   2.376   7.415  1.7095 -0.0528 -0.7902
  180SOPE  C21420556   2.860   2.169   7.333 -0.3937  0.6715 -0.0801
  180SOPE  H14R20557   2.970   2.160   7.350 -0.8115 -0.6102  2.4328
  180SOPE  H14S20558   2.841   2.130   7.231 -0.2137  1.4758 -0.4324
  180SOPE  C21520559   2.780   2.101   7.442  0.1407 -0.3472 -0.2112
  180SOPE  H15R20560   2.794   1.991   7.433 -1.8612 -0.5701 -1.0102
  180SOPE  H15S20561   2.672   2.112   7.423 -0.2791 -1.3496  1.3651
  180SOPE  C21620562   2.816   2.152   7.584 -0.0548  0.3967  0.2381
  180SOPE  H16R20563   2.798   2.262   7.589  0.5202  0.4470  1.9338
  180SOPE  H16S20564   2.927   2.143   7.587  0.1925  0.2249 -3.9407
  180SOPE  C21720565   2.764   2.063   7.697  0.1843  0.3036 -1.0849
  180SOPE  H17R20566   2.793   1.957   7.680  0.2161  0.2616 -0.7643
  180SOPE  H17S20567   2.654   2.067   7.683  0.1030  1.4039 -0.2160
  180SOPE  C21820568   2.813   2.106   7.831 -1.2041  0.5157 -0.1484
  180SOPE  H18R20569   2.753   2.061   7.912 -1.6439 -2.0227 -1.7806
  180SOPE  H18S20570   2.814   2.217   7.843 -1.5391  0.2428  3.7061
  180SOPE  H18T20571   2.916   2.063   7.838 -1.3282  0.4887  2.4438
  180SOPE   C3320572   3.129   3.754   7.055 -0.1623  0.3287  0.6609
  180SOPE   H3X20573   3.197   3.822   7.110  0.1441  0.2844  0.3429
  180SOPE   H3Y20574   3.190   3.676   7.005 -2.0888 -1.5759  1.1288
  180SOPE   C3420575   3.032   3.682   7.146 -0.5027 -0.3225 -0.4669
  180SOPE   H4X20576   2.960   3.611   7.098  0.3175 -0.8836 -0.8935
  180SOPE   H4Y20577   2.974   3.762   7.197  0.4808 -0.2302  0.5350
  180SOPE   C3520578   3.105   3.598   7.259 -0.3036 -0.4384  0.1874
  180SOPE   H5X20579   3.164   3.657   7.332 -2.3390 -0.0356  1.6148
  180SOPE   H5Y20580   3.177   3.534   7.204  0.2939 -0.2545  0.7527
  180SOPE   C3620581   3.010   3.505   7.331  0.5941  0.0676  0.2664
  180SOPE   H6X20582   2.952   3.445   7.258 -1.7502  2.0371  0.3704
  180SOPE   H6Y20583   2.938   3.563   7.392  0.0612 -1.5126  1.2044
  180SOPE   C3720584   3.090   3.410   7.425  0.1364 -0.4827  0.0905
  180SOPE   H7X20585   3.137   3.328   7.367  1.1336  0.1586 -0.0393
  180SOPE   H7Y20586   3.016   3.360   7.490  0.6233 -1.9508 -0.4558
  180SOPE   C3820587   3.192   3.470   7.527 -0.4311  0.3015  0.2488
  180SOPE   H8X20588   3.278   3.514   7.472 -0.8394  1.9990  0.9163
  180SOPE   H8Y20589   3.251   3.384   7.565  1.6640  0.6587 -1.9746
  180SOPE   C3920590   3.143   3.564   7.638  0.1572  0.1701  0.7654
  180SOPE   H9X20591   3.050   3.614   7.606 -0.0792 -0.5204  0.3765
  180SOPE   H9Y20592   3.223   3.640   7.654  0.3181 -0.4138  3.2951
  180SOPE  C31020593   3.127   3.502   7.777 -0.4497 -0.1139 -0.1260
  180SOPE  H10X20594   3.224   3.460   7.812 -0.0486 -0.1090 -1.1821
  180SOPE  H10Y20595   3.058   3.418   7.755 -0.1912 -0.2612 -0.3970
  180SOPE  C31120596   3.060   3.589   7.874  0.5514  0.3927 -0.2611
  180SOPE  H11X20597   2.952   3.594   7.848  0.2303  0.9751  1.0792
  180SOPE  H11Y20598   3.099   3.692   7.865 -0.1500  0.7338  0.4219
  180SOPE  C31220599   3.067   3.538   8.022 -0.0490  0.4443  0.3284
  180SOPE  H12X20600   3.171   3.507   8.046 -1.3652 -3.1861  2.0924
  180SOPE  H12Y20601   3.004   3.447   8.027  0.7243 -0.1099  0.0367
  180SOPE  C31320602   3.010   3.644   8.124 -0.4758  1.2564  0.7800
  180SOPE  H13X20603   2.940   3.708   8.068  1.0758  0.1915 -2.6153
  180SOPE  H13Y20604   3.100   3.703   8.154  0.1862 -0.1689  1.7249
  180SOPE  C31420605   2.938   3.572   8.240  0.4264 -0.1619 -0.0148
  180SOPE  H14X20606   3.006   3.491   8.276  1.0172  0.2830 -0.1104
  180SOPE  H14Y20607   2.847   3.517   8.210 -0.8236  2.2642 -0.9282
  180SOPE  C31520608   2.907   3.666   8.350  0.7478 -0.1813 -0.2840
  180SOPE  H15X20609   2.819   3.727   8.321  0.8882 -0.6329 -1.7280
  180SOPE  H15Y20610   2.981   3.744   8.378 -1.6488  2.0831  0.1294
  180SOPE  C31620611   2.874   3.597   8.477  0.6216 -0.2838  0.4063
  180SOPE  H16X20612   2.952   3.534   8.526  0.2993 -1.3856 -0.4789
  180SOPE  H16Y20613   2.802   3.516   8.455  0.7219 -0.4987  0.8485
  180SOPE  C31720614   2.801   3.684   8.580 -0.1238 -0.4620  0.1673
  180SOPE  H17X20615   2.761   3.619   8.661  1.8108 -0.5630  1.0959
  180SOPE  H17Y20616   2.710   3.734   8.540 -0.8977 -1.0186  1.1916
  180SOPE  C31820617   2.885   3.807   8.641 -0.4550 -0.4080  0.0893
  180SOPE  H18X20618   2.975   3.765   8.691  0.3072  1.2582  0.1693
  180SOPE  H18Y20619   2.825   3.858   8.720 -1.2438  0.1592 -0.8643
  180SOPE  H18Z20620   2.918   3.883   8.568 -1.1315 -0.0024  0.1965
  181SOPE     N20621   3.355   1.058   5.708 -0.4527  0.2319  0.0087
  181SOPE   HN120622   3.267   1.092   5.751 -0.7252 -3.1075  2.4978
  181SOPE   HN220623   3.427   1.112   5.759 -0.7227  1.1191 -0.5272
  181SOPE   HN320624   3.378   1.082   5.609  0.1341 -1.9241 -0.4348
  181SOPE   C1220625   3.383   0.902   5.726  0.3752 -0.0877 -0.5059
  181SOPE  H12A20626   3.493   0.899   5.718  0.4177 -1.8454  0.1977
  181SOPE  H12B20627   3.337   0.846   5.641 -0.9326  2.6780 -1.7473
  181SOPE   C1120628   3.341   0.847   5.864  0.0388 -0.3178  0.0221
  181SOPE  H11A20629   3.346   0.737   5.868 -0.6862 -0.3479  0.0835
  181SOPE  H11B20630   3.235   0.875   5.883  0.5952  2.6836 -0.7010
  181SOPE     P20631   3.535   0.841   6.044  0.3889  0.0853 -0.4217
  181SOPE   O1320632   3.599   0.932   6.143  0.9409 -0.0776  0.0614
  181SOPE   O1420633   3.621   0.767   5.949 -0.7626 -0.2527 -0.0686
  181SOPE   O1220634   3.418   0.914   5.967 -0.0049  0.0576 -0.2249
  181SOPE   O1120635   3.456   0.741   6.128 -0.0789 -0.0627 -0.1002
  181SOPE    C120636   3.352   0.776   6.223 -0.2293 -0.1361  0.2716
  181SOPE    HA20637   3.279   0.693   6.215 -0.3548 -0.0128  0.1160
  181SOPE    HB20638   3.296   0.869   6.200 -0.3423 -0.2608  0.0421
  181SOPE    C220639   3.406   0.773   6.375  0.7626  1.0505 -0.2310
  181SOPE    HS20640   3.452   0.869   6.406  3.4653 -0.1716 -0.1977
  181SOPE   O2120641   3.497   0.658   6.390  0.3247  0.2891  0.9352
  181SOPE   C2120642   3.614   0.691   6.457  0.5007 -0.0642 -0.8533
  181SOPE   O2220643   3.634   0.795   6.513 -0.5172 -0.1255  0.9029
  181SOPE   C2220644   3.714   0.581   6.452  0.1119  0.1678  0.2216
  181SOPE   H2R20645   3.775   0.604   6.362  0.0984 -0.3541  0.0789
  181SOPE   H2S20646   3.668   0.480   6.460 -0.0018  0.1049 -1.0226
  181SOPE    C320647   3.297   0.752   6.490 -0.3234  0.2350 -0.0002
  181SOPE    HX20648   3.233   0.662   6.479 -1.0836  1.0694 -4.7426
  181SOPE    HY20649   3.217   0.828   6.473  1.1017  1.7157 -0.4087
  181SOPE   O3120650   3.359   0.759   6.624 -0.0664 -0.1286 -0.1481
  181SOPE   C3120651   3.366   0.876   6.684  0.1114  0.4478  0.6553
  181SOPE   O3220652   3.338   0.982   6.626  0.0832  0.6886 -0.3826
  181SOPE   C3220653   3.427   0.852   6.817  0.2862  0.0397 -0.0986
  181SOPE   H2X20654   3.476   0.752   6.823 -2.5265 -1.6837 -2.9067
  181SOPE   H2Y20655   3.346   0.852   6.894 -0.0595 -1.8126 -0.4102
  181SOPE   C2320656   3.806   0.589   6.574 -0.3845 -0.3004 -0.5167
  181SOPE   H3R20657   3.832   0.691   6.611 -0.0653 -0.6752  0.3141
  181SOPE   H3S20658   3.905   0.547   6.548 -0.3368 -2.7303  2.9113
  181SOPE   C2420659   3.760   0.523   6.703  0.4957  0.5095 -0.3270
  181SOPE   H4R20660   3.662   0.570   6.727  1.0702  1.1236  0.8971
  181SOPE   H4S20661   3.745   0.416   6.678  2.5743 -0.0212  0.4676
  181SOPE   C2520662   3.849   0.546   6.826 -0.4596 -0.1199 -0.5474
  181SOPE   H5R20663   3.940   0.484   6.832  0.2865  1.0193  0.6212
  181SOPE   H5S20664   3.885   0.649   6.805 -0.9578 -0.2933 -2.4238
  181SOPE   C2620665   3.769   0.548   6.963 -0.5951  0.1257  0.2870
  181SOPE   H6R20666   3.682   0.616   6.950 -1.4514 -1.1026 -0.6918
  181SOPE   H6S20667   3.741   0.444   6.990  0.2111  0.2923  1.8876
  181SOPE   C2720668   3.849   0.601   7.080 -0.8039  0.5376 -0.4496
  181SOPE   H7R20669   3.950   0.556   7.073  0.8963  3.7237  1.2636
  181SOPE   H7S20670   3.865   0.711   7.068  1.9952  0.4459  1.3773
  181SOPE   C2820671   3.780   0.560   7.200 -0.2196 -0.3565 -0.1714
  181SOPE   H8R20672   3.683   0.614   7.196 -1.2743 -1.9075  2.2111
  181SOPE   H8S20673   3.757   0.452   7.193 -1.4474 -0.2899  2.0877
  181SOPE   C2920674   3.854   0.601   7.322  0.8136  0.4683 -0.6675
  181SOPE   H9120675   3.850   0.708   7.348 -1.5962  0.4792 -0.8403
  181SOPE  C21020676   3.942   0.522   7.387  0.3435  0.5040 -0.0915
  181SOPE  H10120677   3.992   0.574   7.470 -0.4310 -1.9791  2.0645
  181SOPE  C21120678   3.973   0.379   7.368  0.1195  0.6783  0.6074
  181SOPE  H11R20679   4.081   0.357   7.375  0.0640 -0.3161 -1.0843
  181SOPE  H11S20680   3.947   0.350   7.264  0.0990 -1.5649  1.1855
  181SOPE  C21220681   3.907   0.274   7.466  1.1300  0.0056 -0.0641
  181SOPE  H12R20682   3.926   0.172   7.427 -0.8111 -0.4829  0.1924
  181SOPE  H12S20683   3.796   0.280   7.458  1.1388  0.4892  0.1568
  181SOPE  C21320684   3.972   0.277   7.602  0.2409  0.2131 -0.0462
  181SOPE  H13R20685   4.011   0.380   7.615 -0.6222  0.6217 -0.5820
  181SOPE  H13S20686   4.064   0.215   7.602  0.9459  1.2268  0.7863
  181SOPE  C21420687   3.881   0.237   7.711 -0.4627 -0.4338  0.1600
  181SOPE  H14R20688   3.884   0.128   7.733 -0.8650 -0.4953 -0.0799
  181SOPE  H14S20689   3.775   0.259   7.689 -0.8948 -2.6301 -0.2239
  181SOPE  C21520690   3.914   0.313   7.844 -0.5595 -0.8219  0.4144
  181SOPE  H15R20691   3.850   0.279   7.928 -0.4118  0.9339  1.2924
  181SOPE  H15S20692   3.898   0.418   7.813  0.3764 -0.9732 -0.6488
  181SOPE  C21620693   4.065   0.314   7.889 -0.2523  0.2784 -0.3931
  181SOPE  H16R20694   4.123   0.376   7.818 -1.5921 -0.5763 -2.3163
  181SOPE  H16S20695   4.099   0.209   7.895 -0.3558 -0.1819 -4.8619
  181SOPE  C21720696   4.079   0.368   8.036  0.2345  0.3643 -0.6247
  181SOPE  H17R20697   4.008   0.308   8.097 -2.2973  0.2239 -3.4869
  181SOPE  H17S20698   4.030   0.467   8.042 -3.0184 -1.2096  2.1987
  181SOPE  C21820699   4.219   0.360   8.099 -0.1845  0.7416 -0.7242
  181SOPE  H18R20700   4.214   0.379   8.208  1.8370 -3.5080  0.3325
  181SOPE  H18S20701   4.298   0.415   8.044 -0.0855 -0.6863 -2.1209
  181SOPE  H18T20702   4.255   0.255   8.097  0.5578  0.9726 -0.0503
  181SOPE   C3320703   3.525   0.968   6.850 -0.0258 -0.2852  0.0499
  181SOPE   H3X20704   3.470   1.064   6.858  2.1176  0.9500  0.4991
  181SOPE   H3Y20705   3.591   0.984   6.762  0.6381 -1.7053  0.2653
  181SOPE   C3420706   3.598   0.950   6.980  0.0431  0.0631 -0.4579
  181SOPE   H4X20707   3.649   1.048   6.992 -0.0795 -0.1732  2.6791
  181SOPE   H4Y20708   3.662   0.859   6.989 -1.2214 -0.7350  0.7939
  181SOPE   C3520709   3.510   0.939   7.109 -0.1473 -0.1798 -0.1979
  181SOPE   H5X20710   3.453   0.844   7.100 -0.1931 -0.0651 -1.2600
  181SOPE   H5Y20711   3.431   1.018   7.110 -0.6993 -0.6964 -1.4138
  181SOPE   C3620712   3.594   0.937   7.237 -0.0323  0.2783  0.4507
  181SOPE   H6X20713   3.640   1.038   7.243 -0.5467  0.6974 -1.6783
  181SOPE   H6Y20714   3.677   0.863   7.231 -0.1628 -0.0886  2.4973
  181SOPE   C3720715   3.505   0.932   7.369  0.5543 -0.0228 -0.5096
  181SOPE   H7X20716   3.442   0.841   7.371  2.6307 -1.6107  3.5473
  181SOPE   H7Y20717   3.445   1.025   7.362 -1.6694 -1.5006 -3.2705
  181SOPE   C3820718   3.600   0.936   7.489 -0.2063  0.6870 -0.8466
  181SOPE   H8X20719   3.652   1.034   7.481 -0.7741  1.3272  2.0439
  181SOPE   H8Y20720   3.671   0.852   7.472 -1.6563 -1.2333  1.8316
  181SOPE   C3920721   3.529   0.909   7.622 -0.2879  0.5590 -0.2564
  181SOPE   H9X20722   3.477   0.811   7.611 -0.1181  0.1410  2.0822
  181SOPE   H9Y20723   3.461   0.992   7.648 -0.1568  0.0258  1.9634
  181SOPE  C31020724   3.624   0.877   7.739 -0.9645 -0.0552  0.2318
  181SOPE  H10X20725   3.709   0.947   7.728 -1.8099  1.0093  0.3429
  181SOPE  H10Y20726   3.666   0.774   7.737  2.1110  1.1265 -0.6277
  181SOPE  C31120727   3.564   0.889   7.883  0.5286 -0.1757  0.0156
  181SOPE  H11X20728   3.541   0.993   7.911  1.9597 -0.3660  2.1207
  181SOPE  H11Y20729   3.633   0.838   7.954  0.0995  0.0549  0.6015
  181SOPE  C31220730   3.430   0.813   7.904  0.0905 -0.2771 -0.2004
  181SOPE  H12X20731   3.431   0.708   7.867 -2.2970 -0.0839 -0.9997
  181SOPE  H12Y20732   3.366   0.855   7.823  1.2822 -1.4708 -1.8090
  181SOPE  C31320733   3.387   0.810   8.052 -0.9932 -0.7420 -0.2245
  181SOPE  H13X20734   3.367   0.917   8.070  0.7566 -0.3050 -0.6477
  181SOPE  H13Y20735   3.472   0.761   8.105 -1.4818 -1.1686  0.1864
  181SOPE  C31420736   3.263   0.718   8.062 -0.1724 -1.0297 -0.5378
  181SOPE  H14X20737   3.292   0.644   7.984  2.3538  0.9101 -1.6156
  181SOPE  H14Y20738   3.164   0.760   8.033 -0.1485 -1.1653 -0.8156
  181SOPE  C31520739   3.247   0.660   8.203  0.4651  0.1749  0.0282
  181SOPE  H15X20740   3.248   0.746   8.273 -0.5723  0.1996  0.0221
  181SOPE  H15Y20741   3.335   0.596   8.228 -0.5671 -1.8323 -1.2008
  181SOPE  C31620742   3.118   0.573   8.220 -0.7527  0.5611  0.4276
  181SOPE  H16X20743   3.038   0.636   8.178  0.7015  1.8689 -0.4897
  181SOPE  H16Y20744   3.097   0.541   8.324 -1.4616 -2.3826 -0.5371
  181SOPE  C31720745   3.126   0.447   8.128 -0.6834 -0.0523 -0.1840
  181SOPE  H17X20746   3.221   0.395   8.151 -1.3316 -0.3892  2.0344
  181SOPE  H17Y20747   3.132   0.481   8.022 -0.2617 -2.3367 -0.9345
  181SOPE  C31820748   3.015   0.345   8.145 -0.5425  0.4456  0.3850
  181SOPE  H18X20749   3.050   0.247   8.104 -1.2095  0.2578  0.2516
  181SOPE  H18Y20750   2.917   0.378   8.105 -0.9077 -0.5360  0.4281
  181SOPE  H18Z20751   3.004   0.338   8.255  1.2622 -1.5752  0.5116
  182SOPE     N20752   2.487   3.704   6.195 -0.4328 -0.5528  0.3086
  182SOPE   HN120753   2.418   3.641   6.240 -2.6107  0.6372 -1.1826
  182SOPE   HN220754   2.568   3.650   6.159  0.3564  0.9691 -0.2959
  182SOPE   HN320755   2.535   3.771   6.258 -0.6431  0.1535 -0.2708
  182SOPE   C1220756   2.409   3.761   6.079 -0.8413  0.2303 -0.8618
  182SOPE  H12A20757   2.414   3.680   6.003  0.9052 -0.6799  0.1572
  182SOPE  H12B20758   2.465   3.854   6.051 -2.6880  1.3794 -0.9217
  182SOPE   C1120759   2.265   3.804   6.126 -1.0638 -0.1225 -0.0366
  182SOPE  H11A20760   2.219   3.709   6.161 -0.8530 -0.9368 -1.8050
  182SOPE  H11B20761   2.212   3.842   6.036  2.6091  0.9966 -1.9460
  182SOPE     P20762   2.175   3.933   6.321 -0.0111  0.1540 -0.2714
  182SOPE   O1320763   2.059   3.994   6.253  0.0918 -0.3646  0.2804
  182SOPE   O1420764   2.230   4.006   6.437  0.0991 -0.3702 -0.0852
  182SOPE   O1220765   2.287   3.907   6.225  0.4638  0.4919 -0.3230
  182SOPE   O1120766   2.127   3.798   6.375  0.0069 -0.4123 -0.0178
  182SOPE    C120767   1.989   3.762   6.398 -0.0854 -1.1437 -0.2282
  182SOPE    HA20768   1.947   3.711   6.308 -2.9005 -0.9395  0.8485
  182SOPE    HB20769   1.922   3.851   6.398  1.6816  0.2416 -0.9342
  182SOPE    C220770   1.973   3.672   6.524 -0.0012 -0.0207  0.6978
  182SOPE    HS20771   1.866   3.654   6.549 -0.9820  3.2687 -0.5574
  182SOPE   O2120772   2.036   3.744   6.634  0.1448  0.6413  0.1755
  182SOPE   C2120773   1.984   3.851   6.678  0.7728 -0.2322 -0.5610
  182SOPE   O2220774   1.877   3.903   6.650 -0.0901 -0.3635  0.2043
  182SOPE   C2220775   2.087   3.907   6.774  0.6555 -0.5834 -0.3259
  182SOPE   H2R20776   2.158   3.967   6.713 -0.4810 -0.9872 -2.1283
  182SOPE   H2S20777   2.130   3.821   6.829 -0.5682 -1.1641 -0.2440
  182SOPE    C320778   2.059   3.540   6.498 -0.4023 -0.2551 -0.0762
  182SOPE    HX20779   2.166   3.554   6.471 -0.3399 -3.1406 -1.7470
  182SOPE    HY20780   2.009   3.503   6.406  0.6610  1.9093 -1.6215
  182SOPE   O3120781   2.035   3.450   6.606  0.3906  0.6567  0.1010
  182SOPE   C3120782   2.137   3.447   6.698  0.2047 -0.9345  0.4485
  182SOPE   O3220783   2.234   3.520   6.702  0.2143 -0.5121 -0.4070
  182SOPE   C3220784   2.090   3.359   6.810  0.6208  0.4371 -0.2365
  182SOPE   H2X20785   2.145   3.263   6.801  2.5691  1.3301  1.3640
  182SOPE   H2Y20786   1.980   3.350   6.805  0.6161  0.9461 -1.2921
  182SOPE   C2320787   2.020   4.012   6.873 -0.1885 -0.5371 -0.5155
  182SOPE   H3R20788   1.919   3.977   6.904 -0.6573  1.4421  0.3738
  182SOPE   H3S20789   2.006   4.111   6.825  2.6772  0.5668  0.7321
  182SOPE   C2420790   2.095   4.038   6.999 -0.2195  0.8533 -0.0418
  182SOPE   H4R20791   2.157   3.951   7.029 -2.9031 -1.0808  0.3485
  182SOPE   H4S20792   2.165   4.117   6.966 -1.5065  0.9009 -3.0088
  182SOPE   C2520793   2.009   4.061   7.130 -0.0526  0.2335 -0.4814
  182SOPE   H5R20794   1.943   4.147   7.102 -0.6641  0.8654  2.6128
  182SOPE   H5S20795   1.953   3.967   7.148 -0.4430  0.6495  0.5756
  182SOPE   C2620796   2.092   4.099   7.248  0.9690 -0.4674 -0.4545
  182SOPE   H6R20797   2.178   4.029   7.251  2.2019  0.9890 -0.3667
  182SOPE   H6S20798   2.140   4.198   7.230 -1.7809  1.3922  1.5685
  182SOPE   C2720799   2.003   4.109   7.375  0.3689 -0.3048  0.4325
  182SOPE   H7R20800   1.907   4.161   7.355  0.2365 -0.3229  0.9881
  182SOPE   H7S20801   1.976   4.003   7.391 -0.2223 -0.6033 -2.1712
  182SOPE   C2820802   2.079   4.167   7.499 -0.5551  0.2336  0.0770
  182SOPE   H8R20803   2.150   4.084   7.523 -0.0831  0.7824  0.6196
  182SOPE   H8S20804   2.149   4.250   7.473  0.3538 -0.5438 -0.0468
  182SOPE   C2920805   1.983   4.205   7.609 -0.2506 -0.3816  0.0627
  182SOPE   H9120806   1.896   4.259   7.568  0.6758  0.5918 -0.6872
  182SOPE  C21020807   1.988   4.163   7.742 -0.0316  0.0180  0.2849
  182SOPE  H10120808   1.918   4.212   7.811 -0.7678 -0.3657 -0.1802
  182SOPE  C21120809   2.105   4.086   7.798 -0.4372 -0.4465  0.2551
  182SOPE  H11R20810   2.198   4.117   7.744 -1.0713 -0.1039 -0.6594
  182SOPE  H11S20811   2.087   3.979   7.777 -1.8501  0.1055 -1.6455
  182SOPE  C21220812   2.129   4.110   7.944 -0.3884  0.4938  0.4165
  182SOPE  H12R20813   2.143   4.219   7.963 -1.7428  1.3158 -2.6057
  182SOPE  H12S20814   2.231   4.067   7.955 -0.0468  0.1491 -2.9078
  182SOPE  C21320815   2.032   4.049   8.046  0.1004 -0.0188 -0.5906
  182SOPE  H13R20816   2.015   3.943   8.016  0.0954  0.1937 -1.3727
  182SOPE  H13S20817   1.938   4.105   8.026  1.1140  1.1942 -2.1838
  182SOPE  C21420818   2.091   4.047   8.191 -0.3133 -0.0275  0.1353
  182SOPE  H14R20819   2.109   4.149   8.232  1.8594 -0.4577  0.3536
  182SOPE  H14S20820   2.192   4.002   8.181  0.7735  1.7270  2.2037
  182SOPE  C21520821   2.013   3.957   8.285  0.3413  1.0286  0.0529
  182SOPE  H15R20822   2.023   3.852   8.249 -0.4855  1.2863 -1.0050
  182SOPE  H15S20823   1.905   3.985   8.287 -0.0554 -0.4116  0.1041
  182SOPE  C21620824   2.040   3.969   8.437  0.0541 -0.2055 -0.0917
  182SOPE  H16R20825   2.146   3.972   8.469 -0.1892  1.0121  0.6448
  182SOPE  H16S20826   1.995   3.879   8.485 -2.7537  1.1423  0.0120
  182SOPE  C21720827   1.990   4.107   8.489  0.6715 -0.3987  0.0033
  182SOPE  H17R20828   1.882   4.084   8.480  0.7538 -0.3193 -1.6292
  182SOPE  H17S20829   2.001   4.177   8.403 -1.2237  0.2593  0.2611
  182SOPE  C21820830   2.029   4.147   8.624 -0.4051 -0.4935 -0.2434
  182SOPE  H18R20831   2.134   4.182   8.629 -1.0216  1.4010  0.3660
  182SOPE  H18S20832   2.011   4.062   8.693 -1.8456  1.1968  1.6242
  182SOPE  H18T20833   1.956   4.223   8.661  0.8494  1.0875 -0.8684
  182SOPE   C3320834   2.122   3.415   6.953 -0.2524 -0.6400 -0.0077
  182SOPE   H3X20835   2.052   3.500   6.963 -1.6324 -1.3467 -2.5858
  182SOPE   H3Y20836   2.225   3.455   6.956 -0.5545  0.0881  1.6384
  182SOPE   C3420837   2.103   3.309   7.053  0.5504 -0.3425  0.0452
  182SOPE   H4X20838   2.160   3.215   7.034 -1.6044 -1.5685 -0.7744
  182SOPE   H4Y20839   1.998   3.274   7.052 -0.0585  1.3015  1.6651
  182SOPE   C3520840   2.141   3.343   7.196 -0.1223 -1.2425  0.0631
  182SOPE   H5X20841   2.064   3.411   7.239  1.0263 -0.1974  0.5376
  182SOPE   H5Y20842   2.237   3.399   7.195  0.2359 -1.8521 -0.3116
  182SOPE   C3620843   2.165   3.238   7.303  0.3340  0.7340 -0.1099
  182SOPE   H6X20844   2.250   3.180   7.261 -0.1921 -0.7330  0.7848
  182SOPE   H6Y20845   2.081   3.166   7.307  0.6878  0.1568 -1.9685
  182SOPE   C3720846   2.196   3.313   7.432  0.1008  0.7395 -0.2063
  182SOPE   H7X20847   2.106   3.378   7.441 -0.1293  0.4961 -0.7224
  182SOPE   H7Y20848   2.286   3.379   7.435  0.8405 -0.2423 -0.0645
  182SOPE   C3820849   2.202   3.234   7.561  0.4634 -0.4650  0.9964
  182SOPE   H8X20850   2.284   3.159   7.555  1.5737  0.8553 -1.6140
  182SOPE   H8Y20851   2.107   3.179   7.577  0.2705 -0.4302 -0.0072
  182SOPE   C3920852   2.224   3.331   7.683 -0.2858 -0.1876 -0.2279
  182SOPE   H9X20853   2.154   3.416   7.668  1.8589  1.4592 -1.5941
  182SOPE   H9Y20854   2.330   3.364   7.681  0.0231 -1.1907 -1.1473
  182SOPE  C31020855   2.197   3.243   7.808  0.2608  0.4382  0.3787
  182SOPE  H10X20856   2.250   3.145   7.801 -1.3583 -0.6226  2.0845
  182SOPE  H10Y20857   2.087   3.228   7.816 -0.1859  2.4254 -1.3795
  182SOPE  C31120858   2.255   3.300   7.939  0.7458 -0.3818  0.4393
  182SOPE  H11X20859   2.211   3.399   7.965  1.7629 -0.2984  2.0045
  182SOPE  H11Y20860   2.365   3.317   7.939  0.5389  1.3000 -0.7836
  182SOPE  C31220861   2.210   3.211   8.052 -1.2142  0.1140  0.8325
  182SOPE  H12X20862   2.099   3.214   8.060 -1.1025  2.3474  2.3166
  182SOPE  H12Y20863   2.246   3.242   8.152 -0.4970  0.7899  0.3746
  182SOPE  C31320864   2.270   3.068   8.037 -0.4907 -0.7057 -0.1847
  182SOPE  H13X20865   2.380   3.071   8.021  0.0008  3.1834  2.4995
  182SOPE  H13Y20866   2.236   3.018   7.944  0.6318 -2.4391  0.2861
  182SOPE  C31420867   2.230   2.990   8.166 -0.6646 -0.4533  0.3346
  182SOPE  H14X20868   2.128   3.011   8.205 -1.0474  0.0005 -0.8814
  182SOPE  H14Y20869   2.295   3.030   8.247  0.0882  2.5053 -1.5918
  182SOPE  C31520870   2.266   2.836   8.155 -0.1938 -0.0530 -0.1751
  182SOPE  H15X20871   2.263   2.790   8.054  0.7111  2.2373 -1.3152
  182SOPE  H15Y20872   2.182   2.782   8.205  0.2445 -0.9433 -0.3892
  182SOPE  C31620873   2.399   2.789   8.227  0.2265  0.2938 -0.3481
  182SOPE  H16X20874   2.366   2.699   8.284 -1.7695  0.4711 -1.1255
  182SOPE  H16Y20875   2.421   2.867   8.303  0.6830  0.5073 -0.6946
  182SOPE  C31720876   2.519   2.761   8.147  0.4784 -0.0612  0.3550
  182SOPE  H17X20877   2.522   2.853   8.085  0.1798 -0.4236 -0.1969
  182SOPE  H17Y20878   2.518   2.666   8.090  0.0333 -0.2579  0.6870
  182SOPE  C31820879   2.644   2.777   8.233  0.1370  0.6618 -0.3302
  182SOPE  H18X20880   2.642   2.874   8.288  1.4470 -0.6046  2.1654
  182SOPE  H18Y20881   2.738   2.762   8.176  1.0170  3.1962  0.3254
  182SOPE  H18Z20882   2.637   2.699   8.313 -0.6530  0.4539 -0.5920
  183SOPE     N20883   5.124   1.165   6.340  0.3845 -0.8927  0.0350
  183SOPE   HN120884   5.108   1.106   6.256  4.0536 -2.1858  0.0571
  183SOPE   HN220885   5.046   1.231   6.358  0.9320 -0.8733  2.8368
  183SOPE   HN320886   5.210   1.222   6.330  0.0764 -0.1404  1.3707
  183SOPE   C1220887   5.135   1.075   6.454  0.4129 -0.0871 -0.2500
  183SOPE  H12A20888   5.032   1.064   6.494 -0.0631 -1.2213 -1.6930
  183SOPE  H12B20889   5.204   1.115   6.531  0.4637  0.8829 -0.7772
  183SOPE   C1120890   5.178   0.937   6.404  0.0537  0.5121 -0.0583
  183SOPE  H11A20891   5.172   0.862   6.486 -0.8960 -0.0675 -0.6397
  183SOPE  H11B20892   5.287   0.943   6.383  0.1634  1.2858  0.6747
  183SOPE     P20893   5.072   0.744   6.270  0.1179  0.0695 -0.4703
  183SOPE   O1320894   5.192   0.674   6.221  0.8474 -0.8811 -0.1866
  183SOPE   O1420895   4.959   0.748   6.180 -0.5681  0.1810  1.2132
  183SOPE   O1220896   5.101   0.896   6.293 -0.4278 -0.2386 -0.0386
  183SOPE   O1120897   5.027   0.691   6.412 -0.3780  0.7705  0.2678
  183SOPE    C120898   4.889   0.722   6.453 -0.0732  0.7232 -0.1137
  183SOPE    HA20899   4.829   0.628   6.454  0.9824  0.0049 -1.3729
  183SOPE    HB20900   4.827   0.786   6.387 -0.7213  0.0231 -0.1966
  183SOPE    C220901   4.880   0.789   6.593 -0.1449 -0.3332  0.0138
  183SOPE    HS20902   4.945   0.879   6.596 -0.8121  0.1397  0.6592
  183SOPE   O2120903   4.928   0.695   6.694  0.3389 -0.0959 -0.0939
  183SOPE   C2120904   4.974   0.753   6.805 -0.3597 -0.0746  0.9487
  183SOPE   O2220905   5.010   0.868   6.817 -0.1968  0.0627 -0.4150
  183SOPE   C2220906   4.986   0.649   6.912 -0.8316  0.0815 -0.1670
  183SOPE   H2R20907   5.064   0.581   6.871 -1.8249 -0.0365 -1.9513
  183SOPE   H2S20908   4.888   0.597   6.919 -0.0302 -1.5125 -0.4399
  183SOPE    C320909   4.746   0.851   6.641 -0.7385 -0.6894 -0.5724
  183SOPE    HX20910   4.712   0.928   6.569 -3.6996 -2.4858 -1.2439
  183SOPE    HY20911   4.759   0.911   6.734 -0.0322 -0.8082 -0.5846
  183SOPE   O3120912   4.645   0.744   6.637 -0.5669  0.0554 -0.6101
  183SOPE   C3120913   4.607   0.708   6.759 -0.3675 -0.0498  0.0351
  183SOPE   O3220914   4.644   0.764   6.864 -0.1348 -0.1683  0.2618
  183SOPE   C3220915   4.520   0.586   6.746 -0.3956  0.2568 -0.0645
  183SOPE   H2X20916   4.572   0.516   6.677 -1.3837 -0.3134 -0.2426
  183SOPE   H2Y20917   4.436   0.616   6.679  0.6215 -0.6859 -1.8326
  183SOPE   C2320918   5.032   0.717   7.046  0.6483  0.4181 -0.9291
  183SOPE   H3R20919   4.997   0.821   7.060 -0.4615  0.1041 -1.2604
  183SOPE   H3S20920   5.140   0.737   7.029  0.7213 -0.8980 -2.2400
  183SOPE   C2420921   5.010   0.640   7.175  0.0391  0.0896  0.5856
  183SOPE   H4R20922   5.060   0.541   7.181  3.4200  1.2916 -3.0260
  183SOPE   H4S20923   5.045   0.698   7.263  0.0471 -0.4362  0.9355
  183SOPE   C2520924   4.853   0.632   7.191  0.1415  0.1877 -0.1716
  183SOPE   H5R20925   4.798   0.728   7.176 -0.3566  0.2448  1.7602
  183SOPE   H5S20926   4.822   0.554   7.119 -0.3285 -0.2684  0.5069
  183SOPE   C2620927   4.806   0.578   7.329 -1.0133  0.8734 -0.2455
  183SOPE   H6R20928   4.698   0.555   7.314 -0.8368 -0.1368  0.0185
  183SOPE   H6S20929   4.858   0.484   7.356 -1.6700  0.5603 -0.0508
  183SOPE   C2720930   4.829   0.690   7.441 -0.0806 -0.0564 -0.3600
  183SOPE   H7R20931   4.929   0.684   7.488 -1.4457 -0.6850  2.7370
  183SOPE   H7S20932   4.815   0.783   7.383 -2.6425 -0.4102 -0.4515
  183SOPE   C2820933   4.723   0.692   7.550  0.8130  0.1943 -0.5975
  183SOPE   H8R20934   4.740   0.782   7.613  1.5577 -0.0930 -0.3719
  183SOPE   H8S20935   4.620   0.699   7.509  0.8462  0.7145 -0.5987
  183SOPE   C2920936   4.744   0.556   7.621 -0.6114  0.9006  0.3372
  183SOPE   H9120937   4.799   0.479   7.564  0.3733  2.8666 -1.5049
  183SOPE  C21020938   4.705   0.528   7.746  0.6914  0.4612 -0.0800
  183SOPE  H10120939   4.730   0.429   7.787 -0.0582  0.2975 -0.0149
  183SOPE  C21120940   4.638   0.617   7.845  0.0944 -0.4926  0.3663
  183SOPE  H11R20941   4.532   0.589   7.867 -0.3467 -0.2724 -1.3346
  183SOPE  H11S20942   4.639   0.723   7.812 -0.9948 -0.4462  0.4451
  183SOPE  C21220943   4.697   0.609   7.988 -0.6251 -0.5143 -0.3095
  183SOPE  H12R20944   4.804   0.639   7.982 -1.2612  1.7868 -1.1859
  183SOPE  H12S20945   4.682   0.504   8.022 -2.8779 -0.9733 -2.4279
  183SOPE  C21320946   4.633   0.702   8.092 -0.0502  0.3377  0.3833
  183SOPE  H13R20947   4.527   0.670   8.099  0.0083  0.4035  1.7410
  183SOPE  H13S20948   4.639   0.805   8.052  0.8065  0.7631  1.5672
  183SOPE  C21420949   4.690   0.691   8.233 -0.5838 -0.6738  0.0204
  183SOPE  H14R20950   4.621   0.745   8.301 -0.9189 -1.6383  0.4718
  183SOPE  H14S20951   4.794   0.731   8.230 -0.0524 -1.9979  0.1070
  183SOPE  C21520952   4.709   0.549   8.294  0.5471 -0.6042  0.1143
  183SOPE  H15R20953   4.781   0.487   8.237  1.4097 -0.3585  0.9034
  183SOPE  H15S20954   4.612   0.496   8.287  0.1518  0.3007 -2.2201
  183SOPE  C21620955   4.755   0.569   8.435  0.6865 -0.6118  0.4408
  183SOPE  H16R20956   4.689   0.640   8.491  0.9358 -0.0900  0.0775
  183SOPE  H16S20957   4.851   0.624   8.430  0.4000  0.0541  1.7161
  183SOPE  C21720958   4.782   0.438   8.516 -0.5174  0.7381  0.0430
  183SOPE  H17R20959   4.840   0.459   8.608 -0.0151 -1.1925  0.1942
  183SOPE  H17S20960   4.847   0.370   8.457  0.0522  0.9746  0.3964
  183SOPE  C21820961   4.658   0.366   8.560  0.2243 -0.0824 -0.8078
  183SOPE  H18R20962   4.668   0.272   8.620 -0.2489 -0.3648 -1.1634
  183SOPE  H18S20963   4.608   0.320   8.472 -1.5012 -0.4953  0.3401
  183SOPE  H18T20964   4.587   0.432   8.614  1.0802  1.2203 -1.2491
  183SOPE   C3320965   4.483   0.503   6.868  0.3152  0.3764  0.3101
  183SOPE   H3X20966   4.574   0.458   6.912  0.3678  0.7589  0.5988
  183SOPE   H3Y20967   4.406   0.429   6.837 -0.5458  0.8935  1.1716
  183SOPE   C3420968   4.421   0.586   6.979  0.7942  0.1255 -0.3876
  183SOPE   H4X20969   4.336   0.641   6.934  3.0786  4.8935  0.4312
  183SOPE   H4Y20970   4.481   0.663   7.032  0.2712  0.6072 -0.4873
  183SOPE   C3520971   4.378   0.504   7.104 -0.0689  0.5392 -0.7478
  183SOPE   H5X20972   4.452   0.425   7.129 -0.3854 -0.1193 -1.7914
  183SOPE   H5Y20973   4.281   0.455   7.082 -0.2845  1.0221 -0.8940
  183SOPE   C3620974   4.366   0.590   7.236 -0.2072  0.1546 -0.0577
  183SOPE   H6X20975   4.283   0.660   7.210 -0.2042  0.8224  1.6368
  183SOPE   H6Y20976   4.454   0.656   7.238 -0.9887  1.2429 -0.6042
  183SOPE   C3720977   4.354   0.512   7.363 -0.0810  0.0924 -0.4472
  183SOPE   H7X20978   4.449   0.466   7.396  0.2407  0.6559 -0.5844
  183SOPE   H7Y20979   4.275   0.437   7.340 -1.5360  0.9355  1.5110
  183SOPE   C3820980   4.300   0.596   7.482 -0.2531 -0.1107 -0.4263
  183SOPE   H8X20981   4.199   0.631   7.452 -2.0013 -5.6266 -2.1486
  183SOPE   H8Y20982   4.364   0.685   7.500  0.7538 -0.7813 -0.5773
  183SOPE   C3920983   4.281   0.512   7.605  0.2322 -0.1583 -0.0287
  183SOPE   H9X20984   4.381   0.479   7.639  1.0995  0.2398 -2.0748
  183SOPE   H9Y20985   4.210   0.428   7.589 -3.2573  1.8912  2.8851
  183SOPE  C31020986   4.229   0.581   7.732 -0.1250  0.7232 -0.5507
  183SOPE  H10X20987   4.305   0.662   7.735  1.8294 -1.0251 -1.1170
  183SOPE  H10Y20988   4.260   0.520   7.819  0.1989  0.8883 -0.5487
  183SOPE  C31120989   4.084   0.636   7.738 -0.0263  0.1167  0.2212
  183SOPE  H11X20990   4.007   0.557   7.729  0.5400 -0.2484 -2.6296
  183SOPE  H11Y20991   4.080   0.702   7.648 -1.3939 -2.1688 -1.5223
  183SOPE  C31220992   4.066   0.722   7.858  0.2225  0.2990  0.4138
  183SOPE  H12X20993   4.152   0.793   7.858  0.1320  0.6159 -3.8122
  183SOPE  H12Y20994   4.079   0.670   7.956  0.2028 -1.4251 -0.4656
  183SOPE  C31320995   3.939   0.810   7.856  0.4487  0.0751 -0.2916
  183SOPE  H13X20996   3.851   0.746   7.875 -0.4036  1.5300  0.8883
  183SOPE  H13Y20997   3.923   0.866   7.761  1.6813  1.7100  0.4086
  183SOPE  C31420998   3.934   0.918   7.963  0.0731 -0.5652 -0.2089
  183SOPE  H14X20999   3.840   0.977   7.964 -0.9478 -2.0829  2.2189
  183SOPE  H14Y21000   4.024   0.979   7.937  1.2433 -2.2849 -0.3440
  183SOPE  C31521001   3.953   0.861   8.105 -0.4327  0.3456 -0.4071
  183SOPE  H15X21002   4.058   0.825   8.111  0.4850  3.0898  3.7875
  183SOPE  H15Y21003   3.899   0.765   8.117  1.3014 -0.7553 -0.9457
  183SOPE  C31621004   3.926   0.965   8.212 -0.4640 -0.1548  0.7949
  183SOPE  H16X21005   3.820   0.997   8.203 -0.7605 -0.5190  2.6150
  183SOPE  H16Y21006   3.994   1.049   8.188 -1.3417  0.0163 -1.3338
  183SOPE  C31721007   3.958   0.915   8.351  0.4277  0.5584 -0.5300
  183SOPE  H17X21008   4.068   0.904   8.362  0.3857  0.4483 -0.2080
  183SOPE  H17Y21009   3.904   0.819   8.365  0.2350  0.9319  1.6337
  183SOPE  C31821010   3.901   1.006   8.465 -0.5672 -0.5608  0.1151
  183SOPE  H18X21011   3.923   1.114   8.455  0.4793 -0.9413 -2.1407
  183SOPE  H18Y21012   3.938   0.974   8.565  0.0536  1.7367  0.6729
  183SOPE  H18Z21013   3.792   0.988   8.470 -0.8494  0.6523 -1.1469
  184SOPE     N21014   5.215   6.705   6.254  0.0123  0.0457 -0.3397
  184SOPE   HN121015   5.186   6.661   6.165  2.4372  0.7789 -1.6036
  184SOPE   HN221016   5.279   6.636   6.299  1.4125 -0.5045 -2.9872
  184SOPE   HN321017   5.129   6.729   6.307  0.7943 -0.7160  1.3896
  184SOPE   C1221018   5.293   6.829   6.209  0.5969  0.3498 -0.9482
  184SOPE  H12A21019   5.395   6.808   6.172  1.1659  2.3528 -0.6479
  184SOPE  H12B21020   5.314   6.884   6.303  1.1949 -1.5300  0.0574
  184SOPE   C1121021   5.202   6.907   6.108 -0.6349  0.2876 -0.1590
  184SOPE  H11A21022   5.194   6.859   6.008  0.7308 -0.9944  0.3134
  184SOPE  H11B21023   5.250   7.008   6.100  0.0143  0.1630  1.6107
  184SOPE     P21024   5.028   7.048   6.241 -0.1803 -0.0598 -0.2062
  184SOPE   O1321025   4.954   7.126   6.138  0.6617  0.3956  0.6842
  184SOPE   O1421026   5.151   7.104   6.307  0.2539  0.0559  0.3428
  184SOPE   O1221027   5.068   6.916   6.163  0.0048 -0.3641  0.1969
  184SOPE   O1121028   4.928   6.981   6.340 -0.4191 -0.4969 -0.8638
  184SOPE    C121029   4.847   7.052   6.438 -0.2540  0.3301  0.4848
  184SOPE    HA21030   4.768   6.982   6.472 -1.3903  0.8490 -0.9447
  184SOPE    HB21031   4.790   7.138   6.396 -0.9390 -1.6655 -3.0669
  184SOPE    C221032   4.924   7.107   6.561 -0.0180 -0.3148 -0.6084
  184SOPE    HS21033   4.971   7.198   6.516  3.0199 -0.4278  2.0341
  184SOPE   O2121034   5.021   7.012   6.602 -0.1374 -0.4846 -0.1729
  184SOPE   C2121035   5.125   7.063   6.665 -0.7999  0.0881  0.5928
  184SOPE   O2221036   5.149   7.184   6.678  0.2030  0.9324 -0.0401
  184SOPE   C2221037   5.209   6.946   6.731  0.4062 -0.3326 -0.0363
  184SOPE   H2R21038   5.282   6.990   6.803  0.6629  0.9135 -1.0245
  184SOPE   H2S21039   5.263   6.895   6.649  0.6504  0.9905 -0.7144
  184SOPE    C321040   4.826   7.155   6.679 -0.4092 -0.4281 -0.3122
  184SOPE    HX21041   4.733   7.201   6.640 -1.0235  0.5754  2.1677
  184SOPE    HY21042   4.874   7.239   6.735  0.4034 -1.5173  0.6793
  184SOPE   O3121043   4.809   7.061   6.788 -0.3331  0.4002 -0.3255
  184SOPE   C3121044   4.701   6.979   6.775 -0.2733  0.2705 -0.0826
  184SOPE   O3221045   4.622   6.979   6.684 -0.2329 -0.5987 -0.1968
  184SOPE   C3221046   4.669   6.905   6.906 -0.4793 -0.3483 -0.1628
  184SOPE   H2X21047   4.759   6.840   6.914 -0.6877 -0.5439  0.7017
  184SOPE   H2Y21048   4.576   6.846   6.893 -0.2762 -1.2646  2.1016
  184SOPE   C2321049   5.116   6.830   6.786 -0.0899 -0.3151 -0.1250
  184SOPE   H3R21050   5.085   6.779   6.692  0.9450  0.5696 -0.9760
  184SOPE   H3S21051   5.029   6.870   6.842  0.8924 -2.0990  2.9724
  184SOPE   C2421052   5.175   6.738   6.893  0.1688 -0.7570  0.2644
  184SOPE   H4R21053   5.100   6.673   6.941 -0.8262 -0.2819 -0.6125
  184SOPE   H4S21054   5.254   6.675   6.847  1.7312  0.4023  1.2115
  184SOPE   C2521055   5.250   6.810   7.006  0.4543 -0.1652  0.4516
  184SOPE   H5R21056   5.284   6.738   7.084  0.5738 -1.7004 -0.9655
  184SOPE   H5S21057   5.344   6.851   6.964 -0.5069  1.2322 -0.4072
  184SOPE   C2621058   5.167   6.924   7.071 -0.6456  0.6837 -0.2773
  184SOPE   H6R21059   5.234   6.982   7.139 -1.7235  0.6011  0.8881
  184SOPE   H6S21060   5.130   7.003   7.003  0.9565  0.4865 -1.4475
  184SOPE   C2721061   5.052   6.866   7.152  0.9103  0.1978 -0.4992
  184SOPE   H7R21062   4.971   6.844   7.079 -1.2049  2.2572  1.0745
  184SOPE   H7S21063   5.082   6.774   7.206 -1.5877 -0.0415  0.6013
  184SOPE   C2821064   4.983   6.960   7.254 -0.2066  0.5233  0.7137
  184SOPE   H8R21065   4.925   7.035   7.197  0.1503 -1.0622 -1.8760
  184SOPE   H8S21066   4.908   6.897   7.307  0.4218  1.0320  2.2576
  184SOPE   C2921067   5.072   7.025   7.352 -0.0354 -0.1232 -0.0269
  184SOPE   H9121068   5.136   7.105   7.312  0.2756  0.2559  1.1767
  184SOPE  C21021069   5.089   7.001   7.475 -0.0844  0.0609 -0.0593
  184SOPE  H10121070   5.151   7.060   7.545 -0.3884 -2.8073  2.8650
  184SOPE  C21121071   5.015   6.891   7.550 -0.1847  0.3110  0.4395
  184SOPE  H11R21072   4.992   6.804   7.485  1.0538 -0.7768  1.4029
  184SOPE  H11S21073   4.918   6.931   7.588  0.6354  0.5971  2.3532
  184SOPE  C21221074   5.099   6.827   7.669 -0.6045 -0.1110  0.5013
  184SOPE  H12R21075   5.193   6.787   7.625 -0.2401  0.1253  1.0446
  184SOPE  H12S21076   5.036   6.741   7.700 -0.8129 -0.2789 -0.3678
  184SOPE  C21321077   5.118   6.915   7.783 -0.1226  0.3346 -0.1057
  184SOPE  H13R21078   5.023   6.952   7.827 -0.3750 -0.1831 -0.2033
  184SOPE  H13S21079   5.182   7.004   7.767 -0.4829  0.3606 -1.5499
  184SOPE  C21421080   5.194   6.834   7.890  0.2747  0.3239 -0.5396
  184SOPE  H14R21081   5.288   6.794   7.849 -0.3479 -0.9635 -0.7805
  184SOPE  H14S21082   5.136   6.746   7.928 -0.7642  1.3105  0.2453
  184SOPE  C21521083   5.235   6.928   8.015  0.3900  0.8105 -0.5742
  184SOPE  H15R21084   5.143   6.960   8.068 -1.3655 -2.9205 -1.0193
  184SOPE  H15S21085   5.288   7.008   7.959  1.8807  0.6773  0.6071
  184SOPE  C21621086   5.330   6.857   8.103  0.1519 -0.1038 -0.1842
  184SOPE  H16R21087   5.410   6.798   8.054  1.0695  1.3633 -0.5290
  184SOPE  H16S21088   5.268   6.779   8.151  0.4929 -0.8754 -0.9785
  184SOPE  C21721089   5.394   6.950   8.210  0.3202 -0.2837  0.4387
  184SOPE  H17R21090   5.301   6.980   8.263 -0.5999 -2.7407  0.3361
  184SOPE  H17S21091   5.423   7.050   8.171 -0.9966  0.5779  1.5819
  184SOPE  C21821092   5.492   6.879   8.293 -1.1579  0.2374 -0.4400
  184SOPE  H18R21093   5.531   6.948   8.370 -0.7817 -0.0486 -0.3687
  184SOPE  H18S21094   5.576   6.835   8.235 -2.3932 -3.3614  0.2501
  184SOPE  H18T21095   5.444   6.794   8.346  0.5019  0.1825  1.1026
  184SOPE   C3321096   4.658   6.988   7.035  0.1612 -0.4438  0.6111
  184SOPE   H3X21097   4.583   7.068   7.017  0.7046 -0.1589 -0.5022
  184SOPE   H3Y21098   4.761   7.029   7.051  0.1829  0.6616 -1.9117
  184SOPE   C3421099   4.617   6.904   7.157 -0.7690 -0.6668  0.4917
  184SOPE   H4X21100   4.687   6.820   7.176 -1.4742 -1.4979 -0.4830
  184SOPE   H4Y21101   4.519   6.860   7.128 -1.1051  0.6398 -0.4225
  184SOPE   C3521102   4.599   6.998   7.278 -0.6063  0.7698  0.4204
  184SOPE   H5X21103   4.507   7.058   7.262 -0.5162  0.7723 -0.1078
  184SOPE   H5Y21104   4.684   7.069   7.274 -0.3046  0.3855 -0.3117
  184SOPE   C3621105   4.583   6.923   7.413  0.5567  0.9196  0.1352
  184SOPE   H6X21106   4.674   6.861   7.428  0.1865  0.2331 -0.4019
  184SOPE   H6Y21107   4.494   6.857   7.408  1.3849 -0.1576 -2.9654
  184SOPE   C3721108   4.575   7.007   7.534 -0.4833  0.6569  0.3082
  184SOPE   H7X21109   4.480   7.064   7.547  0.4630  2.1623  0.9144
  184SOPE   H7Y21110   4.666   7.069   7.548 -1.0192  1.8331 -1.0809
  184SOPE   C3821111   4.582   6.908   7.648  0.0500  0.1360  0.4243
  184SOPE   H8X21112   4.662   6.835   7.624 -1.0698 -0.5299 -1.5016
  184SOPE   H8Y21113   4.494   6.840   7.644  2.3823 -3.0663 -1.3312
  184SOPE   C3921114   4.598   6.967   7.783 -0.5497  0.0097 -0.1546
  184SOPE   H9X21115   4.521   6.915   7.845 -0.9837 -1.5974 -1.9544
  184SOPE   H9Y21116   4.581   7.076   7.794  0.7867  0.3360 -1.1004
  184SOPE  C31021117   4.737   6.933   7.833 -0.1144  1.1390 -0.0286
  184SOPE  H10X21118   4.814   6.984   7.771 -0.8305  1.6144 -0.5448
  184SOPE  H10Y21119   4.759   6.824   7.826  1.8406  1.5270 -0.4865
  184SOPE  C31121120   4.763   6.977   7.975 -0.5089  0.4924 -0.6647
  184SOPE  H11X21121   4.664   6.997   8.021 -0.9911  0.5775 -1.7134
  184SOPE  H11Y21122   4.828   7.067   7.974  3.2388 -1.9477  0.8311
  184SOPE  C31221123   4.838   6.879   8.068 -0.6583  0.0051  0.0529
  184SOPE  H12X21124   4.923   6.828   8.017 -0.2893  1.3048 -0.6831
  184SOPE  H12Y21125   4.762   6.799   8.087 -0.0112 -0.4836  0.6485
  184SOPE  C31321126   4.885   6.941   8.199  0.5920 -0.0406 -0.8517
  184SOPE  H13X21127   4.808   6.988   8.264  1.4062  2.2045 -1.4000
  184SOPE  H13Y21128   4.953   7.028   8.185 -2.2428  2.9131  1.9903
  184SOPE  C31421129   4.959   6.830   8.284 -0.1614 -0.1147  0.8185
  184SOPE  H14X21130   5.039   6.776   8.228 -0.2200  0.2338  0.3930
  184SOPE  H14Y21131   4.880   6.756   8.309 -0.2066 -0.8611 -1.2749
  184SOPE  C31521132   5.041   6.886   8.399  0.3692  0.6898 -0.5108
  184SOPE  H15X21133   4.973   6.943   8.466 -0.4399 -0.4522 -0.3345
  184SOPE  H15Y21134   5.125   6.951   8.367 -0.8323  2.1313 -0.8827
  184SOPE  C31621135   5.096   6.769   8.487 -0.4187  0.5384 -0.5350
  184SOPE  H16X21136   5.183   6.723   8.436  0.7971  2.0859  0.0366
  184SOPE  H16Y21137   5.026   6.683   8.498 -0.0403  0.4682  1.7221
  184SOPE  C31721138   5.132   6.818   8.625  1.4249 -0.7682 -0.3976
  184SOPE  H17X21139   5.124   6.728   8.688  0.7698 -1.6248 -1.6562
  184SOPE  H17Y21140   5.059   6.896   8.657  1.4004 -0.0455 -2.0549
  184SOPE  C31821141   5.272   6.877   8.625  0.2456 -0.2925  0.1863
  184SOPE  H18X21142   5.343   6.804   8.581 -1.1642 -1.9547  0.5557
  184SOPE  H18Y21143   5.302   6.896   8.731 -1.5437  0.0030  0.6763
  184SOPE  H18Z21144   5.279   6.973   8.568 -3.4917 -0.2724 -0.5225
  185SAPI   C1221145   1.888   4.163  11.129 -0.3981 -0.4387 -0.3912
  185SAPI    H221146   1.796   4.122  11.084  0.9087 -1.5164 -2.2488
  185SAPI    O221147   1.895   4.302  11.091  0.3162  0.5040  0.3998
  185SAPI   HO221148   1.947   4.302  11.010  0.7035  1.6676  0.6266
  185SAPI   C1321149   1.883   4.148  11.282  0.0001 -0.5005 -0.8051
  185SAPI    H321150   1.874   4.040  11.305  3.2511 -0.6713  0.0662
  185SAPI    O321151   1.763   4.208  11.336 -0.0980 -0.1192  0.1834
  185SAPI   HO321152   1.729   4.277  11.279  0.5436 -0.7934 -1.0330
  185SAPI   C1421153   2.011   4.199  11.346  0.0639  0.2954  0.8445
  185SAPI    H421154   2.006   4.309  11.327 -0.3346  0.2829  0.8856
  185SAPI    O421155   2.010   4.170  11.484  0.3170  0.3001 -0.0785
  185SAPI   HO421156   2.069   4.097  11.503  0.4898  0.6624  0.7816
  185SAPI   C1521157   2.138   4.135  11.281  0.0443  0.0294  0.5511
  185SAPI    H521158   2.140   4.030  11.317  0.6997 -0.5181 -1.0429
  185SAPI    O521159   2.256   4.210  11.315 -0.0046 -0.1100 -0.5665
  185SAPI   HO521160   2.327   4.185  11.255  1.4780 -0.3764  1.2070
  185SAPI   C1621161   2.128   4.141  11.126 -0.7771  0.7953 -0.7304
  185SAPI    H621162   2.134   4.246  11.092 -2.2416  1.0710 -0.1884
  185SAPI    O621163   2.242   4.067  11.080  0.2470 -0.6960  0.2456
  185SAPI   HO621164   2.292   4.126  11.023 -1.8897 -1.2395 -2.4219
  185SAPI   C1121165   2.004   4.083  11.074 -0.0406  0.9629 -0.0719
  185SAPI    H121166   2.009   3.978  11.108  1.1468 -0.9341 -5.1192
  185SAPI     P21167   1.954   3.977  10.827  0.0976  0.0512  0.0045
  185SAPI   O1321168   1.960   3.843  10.896  0.6762  0.6208  0.1492
  185SAPI   O1421169   2.019   3.994  10.694  0.2784  0.2204 -0.5664
  185SAPI   O1221170   2.016   4.096  10.933 -0.0638 -0.4367  0.6800
  185SAPI   O1121171   1.800   4.018  10.811  0.0558 -0.8271 -0.1951
  185SAPI    C121172   1.778   4.133  10.733 -0.7102  0.0809  0.4063
  185SAPI    HA21173   1.746   4.224  10.789  0.7756  0.8826  0.0159
  185SAPI    HB21174   1.862   4.172  10.672 -1.0561 -0.2442 -0.2873
  185SAPI    C221175   1.675   4.099  10.618  0.2658 -0.2512 -0.2650
  185SAPI    HS21176   1.658   4.186  10.551  0.4013 -0.1487 -0.1665
  185SAPI   O2121177   1.552   4.063  10.693 -0.1418  0.3485  0.3384
  185SAPI   C2121178   1.465   4.160  10.694  0.0168  0.3171 -0.0941
  185SAPI   O2221179   1.483   4.274  10.655 -0.1944 -0.3164  0.2627
  185SAPI   C2221180   1.339   4.115  10.775 -1.3513  0.1058 -0.8107
  185SAPI   H2R21181   1.383   4.057  10.858  2.4102  3.2440 -0.3098
  185SAPI   H2S21182   1.303   4.210  10.821  0.5772  1.2195 -1.4685
  185SAPI    C321183   1.717   3.981  10.521  1.4497  0.1466 -0.7576
  185SAPI    HX21184   1.678   3.887  10.564 -2.0880  1.7724 -0.0042
  185SAPI    HY21185   1.826   3.964  10.518  1.3131 -0.8525 -0.2889
  185SAPI   O3121186   1.657   3.999  10.392 -0.0599  0.1289 -0.0673
  185SAPI   C3121187   1.722   4.082  10.312 -0.1997 -0.0621 -0.4612
  185SAPI   O3221188   1.813   4.154  10.349 -0.3716  0.2478 -0.7933
  185SAPI   C3221189   1.677   4.084  10.172  0.1294  0.6593  0.5466
  185SAPI   H2X21190   1.589   4.152  10.173  0.1921  0.7739 -0.4801
  185SAPI   H2Y21191   1.646   3.980  10.149  0.4301  0.7905 -0.5166
  185SAPI   C2321192   1.225   4.058  10.697  0.5401 -0.1326  0.2074
  185SAPI   H3R21193   1.204   4.125  10.611  0.9874 -3.6185 -2.8929
  185SAPI   H3S21194   1.135   4.072  10.760 -0.2883  0.9813 -1.1641
  185SAPI   C2421195   1.243   3.912  10.661  0.3198  0.4408 -0.7351
  185SAPI   H4R21196   1.148   3.863  10.629 -0.1442  0.9682 -0.1836
  185SAPI   H4S21197   1.274   3.852  10.749 -0.3926  0.2263 -0.6206
  185SAPI   C2521198   1.341   3.879  10.552  0.2321  0.1986 -0.2284
  185SAPI   H5R21199   1.434   3.835  10.591 -0.7131 -1.1885  0.5371
  185SAPI   C2621200   1.321   3.894  10.420  0.0778 -0.2746 -0.6698
  185SAPI   H6R21201   1.400   3.868  10.348 -1.9825 -1.8368 -2.5019
  185SAPI   C2721202   1.198   3.945  10.361  0.0814 -0.2074 -0.0578
  185SAPI   H7R21203   1.214   4.046  10.318  3.2694  0.4338  2.2634
  185SAPI   H7S21204   1.122   3.973  10.438  0.1049  0.3056 -0.2244
  185SAPI   C2821205   1.124   3.854  10.264 -0.1060  0.2505  0.5637
  185SAPI   H8R21206   1.036   3.797  10.298 -0.6030  0.3805 -0.4595
  185SAPI   C2921207   1.162   3.836  10.133 -0.2554 -0.1540 -0.0701
  185SAPI   H9R21208   1.097   3.782  10.063 -1.6366 -0.6948  1.5677
  185SAPI  C21021209   1.269   3.919  10.065  0.0406  0.6280 -0.6078
  185SAPI  H10R21210   1.295   3.860   9.975  2.6230 -0.0520  0.5039
  185SAPI  H10S21211   1.366   3.922  10.120 -0.1523 -1.0052 -0.1131
  185SAPI  C21121212   1.222   4.054  10.033 -0.5257 -1.0128  0.4477
  185SAPI  H11R21213   1.150   4.110  10.095  1.7142  1.4471  0.9955
  185SAPI  C21221214   1.255   4.121   9.918 -0.7165 -0.1403 -0.2925
  185SAPI  H12R21215   1.210   4.220   9.902  0.9280  0.4795 -1.4028
  185SAPI  C21321216   1.357   4.079   9.812 -0.2398  0.4982 -0.1704
  185SAPI  H13R21217   1.431   4.021   9.871  0.0781 -3.0802 -3.6604
  185SAPI  H13S21218   1.417   4.162   9.767  1.3727 -0.6131 -0.1422
  185SAPI  C21421219   1.300   3.985   9.708  0.6186 -0.1036  0.6618
  185SAPI  H14R21220   1.290   3.880   9.740  1.4299 -0.3959  0.0109
  185SAPI  C21521221   1.248   4.029   9.595  0.0466  0.1043 -0.1682
  185SAPI  H15R21222   1.203   3.952   9.532 -2.0949  0.9817  0.2140
  185SAPI  C21621223   1.237   4.172   9.554  0.3104 -0.5365  0.8372
  185SAPI  H16R21224   1.245   4.243   9.639 -0.0131  0.3406  0.1527
  185SAPI  H16S21225   1.136   4.190   9.512  0.1111  2.2593  2.2608
  185SAPI  C21721226   1.347   4.212   9.457 -0.3989 -0.6400 -0.1639
  185SAPI  H17R21227   1.446   4.167   9.475 -0.3780 -1.3372 -1.8045
  185SAPI  H17S21228   1.351   4.322   9.448 -0.8890 -0.5407  0.7021
  185SAPI  C21821229   1.306   4.163   9.312  0.0113  0.2997  0.1505
  185SAPI  H18R21230   1.200   4.193   9.295  0.0882  0.1137 -0.6736
  185SAPI  H18S21231   1.320   4.053   9.316 -2.5739 -0.2169 -1.9614
  185SAPI  C21921232   1.384   4.220   9.191  0.1716  0.3214 -0.0227
  185SAPI  H19R21233   1.348   4.322   9.165  2.0733  1.5374  1.8092
  185SAPI  H19S21234   1.367   4.148   9.109 -0.8394  0.2708  0.2231
  185SAPI  C22021235   1.535   4.232   9.219  0.2262  1.0783  0.0656
  185SAPI  H20R21236   1.582   4.131   9.230  0.4659  1.0077 -1.4768
  185SAPI  H20S21237   1.557   4.295   9.308 -1.4458 -1.0948  2.1840
  185SAPI  H20T21238   1.579   4.279   9.129 -0.6828  1.5010 -0.1671
  185SAPI   C3321239   1.781   4.137  10.068 -0.8546 -0.1427 -0.5839
  185SAPI   H3X21240   1.872   4.075  10.055  0.7217  1.9660 -0.0177
  185SAPI   H3Y21241   1.825   4.233  10.102  1.7275 -2.0352  1.8218
  185SAPI   C3421242   1.722   4.161   9.931 -0.0705 -0.2629 -0.3601
  185SAPI   H4X21243   1.653   4.248   9.936  0.9775  0.5214  1.4854
  185SAPI   H4Y21244   1.654   4.078   9.902 -3.1647  1.1918  2.1343
  185SAPI   C3521245   1.831   4.176   9.832 -0.5378 -0.8071 -0.5397
  185SAPI   H5X21246   1.893   4.085   9.816 -0.2224 -0.8229  0.6749
  185SAPI   H5Y21247   1.902   4.257   9.859 -0.7829 -0.2553 -1.4901
  185SAPI   C3621248   1.770   4.221   9.697 -0.6428 -0.0037 -0.8332
  185SAPI   H6X21249   1.716   4.314   9.725  0.8397  0.0559  2.2136
  185SAPI   H6Y21250   1.693   4.151   9.659  0.1433 -2.3303  1.5817
  185SAPI   C3721251   1.880   4.256   9.590  0.6282 -0.0253 -0.3589
  185SAPI   H7X21252   1.935   4.163   9.564  1.2969  0.2331  0.1316
  185SAPI   H7Y21253   1.951   4.329   9.635 -0.1369  0.2923  0.3632
  185SAPI   C3821254   1.820   4.312   9.461 -0.0062  0.3113  0.2222
  185SAPI   H8X21255   1.751   4.395   9.488 -2.4884 -1.5527  0.0360
  185SAPI   H8Y21256   1.743   4.246   9.417  0.0329 -0.4196  1.2155
  185SAPI   C3921257   1.932   4.361   9.364  0.5108 -0.0433  0.4074
  185SAPI   H9X21258   2.003   4.276   9.356  0.8038  0.1478  0.9267
  185SAPI   H9Y21259   1.976   4.453   9.408  2.7877 -0.3569 -1.0883
  185SAPI  C31021260   1.883   4.394   9.233 -0.2616 -0.1768 -0.3796
  185SAPI  H10X21261   1.814   4.481   9.234  1.7280  1.4621  0.9793
  185SAPI  H10Y21262   1.821   4.310   9.196 -1.9405  0.5073  0.7533
  185SAPI  C31121263   1.994   4.434   9.131  0.5669  0.1873  0.1752
  185SAPI  H11X21264   2.043   4.344   9.089 -0.8481 -0.0481 -1.0602
  185SAPI  H11Y21265   2.070   4.509   9.164 -2.4853  3.4301  0.4274
  185SAPI  C31221266   1.940   4.501   9.005 -0.3555  0.0648 -0.6237
  185SAPI  H12X21267   1.925   4.609   9.028 -1.3543  0.0635 -1.1824
  185SAPI  H12Y21268   1.835   4.468   8.988 -0.8663  0.6061  1.2190
  185SAPI  C31321269   2.025   4.466   8.880 -0.2908  0.3683  0.2630
  185SAPI  H13X21270   2.017   4.358   8.856  0.2858  0.6457 -1.3006
  185SAPI  H13Y21271   2.130   4.499   8.894  0.1394 -0.8306 -0.0516
  185SAPI  C31421272   1.987   4.531   8.743 -0.3079  0.0996  0.3592
  185SAPI  H14X21273   2.052   4.499   8.659 -0.2531 -1.6305  1.0097
  185SAPI  H14Y21274   2.016   4.638   8.750  1.4989 -0.1826 -1.7276
  185SAPI  C31521275   1.843   4.501   8.694 -0.4111  0.4926 -0.3338
  185SAPI  H15X21276   1.765   4.542   8.762 -0.2501  0.9920 -0.4493
  185SAPI  H15Y21277   1.801   4.399   8.684 -1.9582  1.1353 -0.6469
  185SAPI  C31621278   1.829   4.552   8.546 -0.4720 -0.3630 -0.7097
  185SAPI  H16X21279   1.897   4.493   8.482 -0.0142  0.6018 -1.1321
  185SAPI  H16Y21280   1.878   4.652   8.551  0.5996 -0.9054  2.9739
  185SAPI  C31721281   1.686   4.564   8.487  0.9219 -0.1552  0.0621
  185SAPI  H17X21282   1.654   4.459   8.467  0.0301 -0.0694  1.0099
  185SAPI  H17Y21283   1.685   4.606   8.384 -0.9070  0.1359  0.1723
  185SAPI  C31821284   1.590   4.657   8.564 -0.2017 -0.3528  0.1232
  185SAPI  H18X21285   1.496   4.677   8.510 -0.2605  0.4903  0.5226
  185SAPI  H18Y21286   1.643   4.754   8.577 -0.0225 -0.5379  0.8300
  185SAPI  H18Z21287   1.571   4.623   8.668 -2.7857 -1.2701 -0.5918
  186SAPI   C1221288   2.698   3.031  10.659 -1.0060  0.5088 -0.0859
  186SAPI    H221289   2.689   2.963  10.572  1.3590  0.1771 -0.1231
  186SAPI    O221290   2.823   3.099  10.657 -0.4039  0.0510 -0.0599
  186SAPI   HO221291   2.888   3.032  10.634 -0.5467 -0.9680  2.1748
  186SAPI   C1321292   2.582   3.125  10.630 -0.2775 -0.3051  0.3327
  186SAPI    H321293   2.489   3.065  10.626  0.3538 -1.2414 -1.2340
  186SAPI    O321294   2.602   3.189  10.499  0.0830  0.2194 -0.5654
  186SAPI   HO321295   2.696   3.212  10.502  0.6662 -1.8796 -0.9881
  186SAPI   C1421296   2.588   3.232  10.746  0.1670  0.7014  0.1020
  186SAPI    H421297   2.688   3.282  10.748 -0.6210  2.4326 -1.2669
  186SAPI    O421298   2.488   3.333  10.727  0.3479 -0.7020 -0.3018
  186SAPI   HO421299   2.505   3.375  10.642 -1.0787 -0.1715 -0.3481
  186SAPI   C1521300   2.564   3.161  10.884 -1.4106  0.1797  0.7322
  186SAPI    H521301   2.467   3.108  10.872 -2.2307  1.6122  0.7435
  186SAPI    O521302   2.567   3.254  10.993  0.0318  0.7689 -0.2810
  186SAPI   HO521303   2.616   3.331  10.965  1.2861 -0.1697 -0.7606
  186SAPI   C1621304   2.677   3.056  10.903 -0.0885  0.4601  0.1385
  186SAPI    H621305   2.775   3.107  10.910  0.6897 -1.0789  1.0939
  186SAPI    O621306   2.655   2.985  11.026 -0.4092  0.0241 -0.2521
  186SAPI   HO621307   2.693   2.899  11.011  0.6768  0.2416  1.0764
  186SAPI   C1121308   2.683   2.956  10.785  0.4449 -0.5800  0.0726
  186SAPI    H121309   2.582   2.909  10.777 -1.2995  3.0037 -1.6882
  186SAPI     P21310   2.798   2.715  10.836  0.1291 -0.1996  0.1326
  186SAPI   O1321311   2.729   2.696  10.963 -0.2314  0.1744 -0.0478
  186SAPI   O1421312   2.943   2.687  10.846 -0.1425  0.1208 -0.5435
  186SAPI   O1221313   2.793   2.871  10.789 -0.1867  0.8419 -0.7864
  186SAPI   O1121314   2.746   2.628  10.716 -0.0322  0.1820  0.4458
  186SAPI    C121315   2.811   2.631  10.589  0.4863 -0.1524  0.2362
  186SAPI    HA21316   2.817   2.736  10.552 -1.1220 -0.4132 -0.8557
  186SAPI    HB21317   2.915   2.590  10.590 -0.3659 -2.4804 -0.0810
  186SAPI    C221318   2.730   2.535  10.496  0.2917 -0.3878  0.5502
  186SAPI    HS21319   2.726   2.439  10.553 -0.7297 -1.1302 -0.7101
  186SAPI   O2121320   2.796   2.522  10.366 -0.0172 -0.5721 -0.1656
  186SAPI   C2121321   2.759   2.424  10.290 -0.1679  0.6689 -0.6325
  186SAPI   O2221322   2.673   2.341  10.317 -0.1019  0.0765 -0.0890
  186SAPI   C2221323   2.845   2.428  10.166  0.2853  0.5976  0.6359
  186SAPI   H2R21324   2.814   2.511  10.099 -1.5442 -0.9927 -0.5860
  186SAPI   H2S21325   2.952   2.443  10.194  0.3566  3.9369 -0.9082
  186SAPI    C321326   2.581   2.591  10.482 -0.4205 -0.0570  0.2676
  186SAPI    HX21327   2.534   2.575  10.581 -0.2583 -0.0240  0.3493
  186SAPI    HY21328   2.518   2.532  10.412 -2.3038  0.6302  1.3278
  186SAPI   O3121329   2.582   2.739  10.452 -0.0200 -0.0443  0.2813
  186SAPI   C3121330   2.517   2.770  10.342 -0.0860  0.5985  0.5881
  186SAPI   O3221331   2.450   2.690  10.273  0.0508  0.4436  0.0654
  186SAPI   C3221332   2.519   2.922  10.322 -0.2344  0.8094  0.2997
  186SAPI   H2X21333   2.621   2.964  10.337 -0.3651  0.8938  0.9949
  186SAPI   H2Y21334   2.460   2.954  10.410  0.3762  1.0388  0.6279
  186SAPI   C2321335   2.841   2.305  10.073  0.2938  0.0882  0.4785
  186SAPI   H3R21336   2.745   2.298  10.017 -0.3148 -0.2375  1.5369
  186SAPI   H3S21337   2.844   2.212  10.132  0.9709 -1.2467 -1.5499
  186SAPI   C2421338   2.962   2.290   9.979  0.1960 -0.1146 -0.1700
  186SAPI   H4R21339   2.966   2.184   9.946 -0.1798  0.5595 -2.5936
  186SAPI   H4S21340   3.045   2.305  10.052 -1.0690  1.3538  1.0461
  186SAPI   C2521341   2.956   2.395   9.871 -0.4931 -0.3568 -0.9764
  186SAPI   H5R21342   2.983   2.499   9.895 -1.9687  0.0365 -0.9133
  186SAPI   C2621343   2.929   2.363   9.742 -0.8555  0.1880  0.6674
  186SAPI   H6R21344   2.940   2.442   9.666 -0.3472 -1.8320 -1.4578
  186SAPI   C2721345   2.913   2.222   9.695 -0.0073 -0.2090 -0.3622
  186SAPI   H7R21346   2.868   2.154   9.771  0.1825 -0.8076 -0.7832
  186SAPI   H7S21347   3.016   2.187   9.675  1.4606  2.3697  1.9117
  186SAPI   C2821348   2.849   2.208   9.560  0.0841  0.7751 -0.2027
  186SAPI   H8R21349   2.744   2.176   9.558 -0.2242  1.5132  1.8252
  186SAPI   C2921350   2.912   2.229   9.444  0.2815  0.2965  0.9291
  186SAPI   H9R21351   2.855   2.219   9.351  0.5817  0.3781  0.7384
  186SAPI  C21021352   3.050   2.269   9.421  1.2097 -0.1332  0.2635
  186SAPI  H10R21353   3.112   2.178   9.404 -0.3199 -0.9206 -1.5131
  186SAPI  H10S21354   3.089   2.312   9.516  0.5676  1.1198 -0.0183
  186SAPI  C21121355   3.052   2.375   9.309 -0.8160  0.2025  0.3631
  186SAPI  H11R21356   3.013   2.470   9.349  2.5724  0.7885  2.7362
  186SAPI  C21221357   3.104   2.366   9.188  0.1426  0.4856 -0.2756
  186SAPI  H12R21358   3.104   2.448   9.114  1.6245  0.2568 -0.5571
  186SAPI  C21321359   3.176   2.243   9.128 -0.1195  0.6147  0.1554
  186SAPI  H13R21360   3.152   2.147   9.179  1.2687 -0.8158 -1.6894
  186SAPI  H13S21361   3.284   2.259   9.146  0.4787 -1.6656 -0.9244
  186SAPI  C21421362   3.155   2.220   8.980  0.0873  1.2038 -0.6277
  186SAPI  H14R21363   3.050   2.205   8.948  0.0158  0.2839  0.0007
  186SAPI  C21521364   3.251   2.229   8.887  0.2752  0.4329  0.4200
  186SAPI  H15R21365   3.216   2.216   8.784 -0.2846  2.5396  0.3150
  186SAPI  C21621366   3.397   2.266   8.907  0.1076 -1.0223 -0.0140
  186SAPI  H16R21367   3.418   2.247   9.014 -4.0064  1.4282  1.4181
  186SAPI  H16S21368   3.401   2.375   8.884  0.0286 -0.7340  1.3065
  186SAPI  C21721369   3.501   2.197   8.824  0.1064 -0.0651 -0.1274
  186SAPI  H17R21370   3.504   2.228   8.717 -1.4171 -0.6681 -0.3703
  186SAPI  H17S21371   3.470   2.090   8.825  1.9864 -0.6953  2.8362
  186SAPI  C21821372   3.645   2.214   8.881  0.3360  0.3214  0.2832
  186SAPI  H18R21373   3.666   2.160   8.976  0.3740  0.1858  0.1981
  186SAPI  H18S21374   3.677   2.319   8.903  0.7682  0.1320  0.5812
  186SAPI  C21921375   3.743   2.144   8.784 -0.3240  0.3622 -0.7268
  186SAPI  H19R21376   3.745   2.207   8.693 -3.2297 -0.7235 -1.6791
  186SAPI  H19S21377   3.702   2.044   8.758 -1.4490  0.6891 -0.2487
  186SAPI  C22021378   3.888   2.139   8.839 -0.1303  0.7907 -0.2341
  186SAPI  H20R21379   3.922   2.240   8.869  0.3751  0.1455  1.4834
  186SAPI  H20S21380   3.937   2.111   8.744 -1.5423  1.2869 -1.1471
  186SAPI  H20T21381   3.905   2.058   8.913 -1.0369  0.5592 -0.2555
  186SAPI   C3321382   2.445   2.964  10.195 -0.3619  0.3210  0.6918
  186SAPI   H3X21383   2.340   2.931  10.203 -0.9863  2.0450 -0.0705
  186SAPI   H3Y21384   2.494   2.909  10.111 -2.8297 -0.6595 -0.2056
  186SAPI   C3421385   2.459   3.114  10.162 -0.8942 -0.2832 -0.2072
  186SAPI   H4X21386   2.550   3.169  10.190 -1.8643  2.3598 -1.8857
  186SAPI   H4Y21387   2.390   3.166  10.232 -0.0484 -0.1576  0.5442
  186SAPI   C3521388   2.408   3.148  10.023 -0.5318 -0.1663 -1.0191
  186SAPI   H5X21389   2.347   3.237  10.051 -0.7881 -0.4587 -0.6488
  186SAPI   H5Y21390   2.351   3.065   9.976 -1.1946 -0.0087 -0.5110
  186SAPI   C3621391   2.516   3.203   9.929 -0.0524 -0.3624 -0.0406
  186SAPI   H6X21392   2.571   3.114   9.891 -2.2490 -1.4615 -0.8071
  186SAPI   H6Y21393   2.579   3.278   9.982  0.4849  0.2235 -1.4501
  186SAPI   C3721394   2.457   3.284   9.810 -0.5542  0.3596  0.2274
  186SAPI   H7X21395   2.532   3.354   9.766 -1.5527  1.9037  0.8883
  186SAPI   H7Y21396   2.382   3.346   9.864 -1.5830 -0.3719 -0.3363
  186SAPI   C3821397   2.407   3.189   9.702  0.6779 -0.2720  0.2106
  186SAPI   H8X21398   2.324   3.130   9.745  0.8220 -1.6433 -1.3124
  186SAPI   H8Y21399   2.488   3.117   9.675  1.4463 -0.4647  2.8048
  186SAPI   C3921400   2.364   3.255   9.568 -0.2314 -0.0936  0.4060
  186SAPI   H9X21401   2.308   3.348   9.592  2.0441  0.6381  3.5526
  186SAPI   H9Y21402   2.286   3.196   9.515 -1.0742 -1.5996  3.1052
  186SAPI  C31021403   2.470   3.301   9.479 -0.3653 -0.2254  0.6858
  186SAPI  H10X21404   2.541   3.216   9.463  0.8760  0.2082  3.3084
  186SAPI  H10Y21405   2.527   3.375   9.539  0.5885 -0.5457  0.2012
  186SAPI  C31121406   2.411   3.364   9.354 -0.5791  0.1071  0.0654
  186SAPI  H11X21407   2.346   3.450   9.383 -0.4693 -0.6946  2.9600
  186SAPI  H11Y21408   2.348   3.289   9.300 -0.7532  1.5709 -1.8687
  186SAPI  C31221409   2.512   3.411   9.248 -0.3869 -0.0554 -0.7307
  186SAPI  H12X21410   2.602   3.347   9.242  1.0724  1.8783 -0.4080
  186SAPI  H12Y21411   2.570   3.495   9.291  0.5654 -0.4950 -1.1355
  186SAPI  C31321412   2.457   3.457   9.114  0.0896  0.0964  0.5078
  186SAPI  H13X21413   2.545   3.490   9.054 -0.2637  1.3298  0.6530
  186SAPI  H13Y21414   2.397   3.549   9.129  1.4549  1.4186 -1.5568
  186SAPI  C31421415   2.392   3.348   9.035 -0.0262  0.1550 -0.2472
  186SAPI  H14X21416   2.308   3.305   9.093 -1.7856  1.7164 -1.5256
  186SAPI  H14Y21417   2.470   3.271   9.020 -1.7669 -1.5014 -1.2912
  186SAPI  C31521418   2.353   3.391   8.896  0.0946  0.0264  0.4864
  186SAPI  H15X21419   2.350   3.309   8.821 -1.3282  1.2770 -0.8940
  186SAPI  H15Y21420   2.440   3.457   8.881 -0.4297  0.9123  1.2061
  186SAPI  C31621421   2.215   3.469   8.873 -0.2916  0.1163  0.2541
  186SAPI  H16X21422   2.208   3.509   8.770  2.9135  0.2083 -0.0168
  186SAPI  H16Y21423   2.217   3.557   8.942 -1.2304 -0.1975  0.7015
  186SAPI  C31721424   2.081   3.390   8.905 -0.5963 -0.8568  0.3761
  186SAPI  H17X21425   2.069   3.384   9.015 -1.3162  0.8302  0.4206
  186SAPI  H17Y21426   2.091   3.292   8.855 -2.5232 -0.4421 -0.9307
  186SAPI  C31821427   1.954   3.454   8.856 -0.5966  0.0677 -0.3341
  186SAPI  H18X21428   1.875   3.375   8.862  0.9333 -1.4416  1.7414
  186SAPI  H18Y21429   1.967   3.478   8.749 -1.0606 -0.0387 -0.4142
  186SAPI  H18Z21430   1.929   3.549   8.907  0.8773  0.4831 -0.3466
  187SAPI   C1221431   5.489   2.121   6.230 -0.4975 -0.2117  0.1338
  187SAPI    H221432   5.427   2.137   6.320 -0.5440  0.1587  0.0365
  187SAPI    O221433   5.584   2.016   6.266  0.6847 -0.9855  0.0103
  187SAPI   HO221434   5.534   1.934   6.273 -0.4982 -0.2041  1.2523
  187SAPI   C1321435   5.411   2.092   6.106 -0.0098  0.3394 -0.0418
  187SAPI    H321436   5.353   2.183   6.078  0.6731  0.9808  0.6008
  187SAPI    O321437   5.322   1.985   6.122  0.4862 -0.1181 -0.3906
  187SAPI   HO321438   5.376   1.911   6.150 -0.1750 -0.0471  1.1346
  187SAPI   C1421439   5.506   2.075   5.987 -0.5494 -1.0324 -0.4103
  187SAPI    H421440   5.574   1.989   6.007 -0.7159 -0.6852  1.9576
  187SAPI    O421441   5.427   2.046   5.871 -0.3916  0.1571 -0.0724
  187SAPI   HO421442   5.431   1.950   5.871 -0.5244 -0.0585  4.2069
  187SAPI   C1521443   5.577   2.208   5.965 -0.1562 -0.2695 -0.0679
  187SAPI    H521444   5.509   2.294   5.946 -1.1450 -0.9951  0.1345
  187SAPI    O521445   5.677   2.195   5.859 -0.3722 -0.1391 -0.6365
  187SAPI   HO521446   5.672   2.275   5.806  0.7051  0.0276 -0.4978
  187SAPI   C1621447   5.656   2.239   6.094 -0.0208  0.1482  0.5458
  187SAPI    H621448   5.743   2.173   6.111  0.6938  0.7024 -0.7803
  187SAPI    O621449   5.716   2.368   6.083 -0.5861  0.5952 -0.0717
  187SAPI   HO621450   5.650   2.438   6.076 -0.2300  1.1650  1.6504
  187SAPI   C1121451   5.564   2.255   6.214  0.5369  0.3009 -0.2769
  187SAPI    H121452   5.491   2.335   6.188  1.1635  0.5727 -1.2428
  187SAPI     P21453   5.631   2.445   6.390 -0.2779 -0.6849 -0.1637
  187SAPI   O1321454   5.582   2.533   6.274  0.4319 -0.5483  0.2766
  187SAPI   O1421455   5.756   2.472   6.466 -0.0938 -0.2162 -0.0682
  187SAPI   O1221456   5.627   2.289   6.344 -0.1857  0.2070 -0.0993
  187SAPI   O1121457   5.508   2.456   6.483  0.0817 -0.3391 -0.5316
  187SAPI    C121458   5.454   2.360   6.575 -0.5282  0.2974 -1.1523
  187SAPI    HA21459   5.363   2.326   6.521 -0.9608  1.3973 -1.1527
  187SAPI    HB21460   5.517   2.275   6.607 -0.5898  0.9169  0.7796
  187SAPI    C221461   5.411   2.434   6.702  0.6412  0.3206  0.3672
  187SAPI    HS21462   5.325   2.499   6.678  0.7787  0.3779  0.0189
  187SAPI   O2121463   5.519   2.507   6.766 -0.0799  0.1159  0.1134
  187SAPI   C2121464   5.492   2.634   6.796 -0.1185 -0.2636  0.6431
  187SAPI   O2221465   5.398   2.693   6.753  0.2373 -0.4736  0.4333
  187SAPI   C2221466   5.618   2.686   6.869  0.6825  0.3395  1.0252
  187SAPI   H2R21467   5.640   2.625   6.959 -0.2353 -0.9142  0.4379
  187SAPI   H2S21468   5.702   2.668   6.799 -0.6807 -0.3773 -0.5281
  187SAPI    C321469   5.365   2.339   6.807  0.4785 -0.1142  0.0923
  187SAPI    HX21470   5.454   2.294   6.856  1.8945  1.8223 -0.5933
  187SAPI    HY21471   5.311   2.255   6.756  2.8672 -2.3737  1.0668
  187SAPI   O3121472   5.291   2.420   6.906  0.5733 -0.2066  0.3668
  187SAPI   C3121473   5.198   2.349   6.972  0.0632 -0.1104 -0.5452
  187SAPI   O3221474   5.166   2.235   6.952  0.4403  0.5245  0.6629
  187SAPI   C3221475   5.136   2.440   7.075  0.2561  0.6906 -0.0795
  187SAPI   H2X21476   5.029   2.418   7.054  0.8900 -0.3872 -2.6803
  187SAPI   H2Y21477   5.139   2.546   7.044 -0.2990  1.2546  1.7220
  187SAPI   C2321478   5.590   2.841   6.884  0.2207 -0.2268 -0.4068
  187SAPI   H3R21479   5.511   2.848   6.963 -0.6852 -4.7767 -0.6270
  187SAPI   H3S21480   5.553   2.891   6.792 -0.7972  1.5213  0.8812
  187SAPI   C2421481   5.713   2.921   6.929 -0.2847  0.1845 -0.6452
  187SAPI   H4R21482   5.793   2.911   6.852 -1.4156 -0.3799 -1.7796
  187SAPI   H4S21483   5.759   2.889   7.026 -0.0062  1.4167 -0.3576
  187SAPI   C2521484   5.689   3.067   6.944  0.3418  0.4830 -0.3060
  187SAPI   H5R21485   5.695   3.119   6.848 -0.7074 -0.5061 -0.9272
  187SAPI   C2621486   5.670   3.134   7.059 -0.0137 -0.4014 -0.3234
  187SAPI   H6R21487   5.658   3.243   7.070 -0.4727 -0.7174  3.9514
  187SAPI   C2721488   5.664   3.067   7.202  0.3795 -0.5391 -0.1877
  187SAPI   H7R21489   5.625   2.963   7.206  1.5927 -0.9912  0.6593
  187SAPI   H7S21490   5.583   3.120   7.257 -0.7263  0.6442 -2.8215
  187SAPI   C2821491   5.794   3.073   7.283 -0.1811  0.6697  0.7968
  187SAPI   H8R21492   5.883   3.047   7.224 -0.9410  1.0635 -0.5559
  187SAPI   C2921493   5.812   3.110   7.408 -0.8605 -0.2969 -0.9763
  187SAPI   H9R21494   5.917   3.101   7.442 -1.3399 -3.1068  0.0163
  187SAPI  C21021495   5.709   3.156   7.509  0.2302 -1.0117 -0.5693
  187SAPI  H10R21496   5.712   3.086   7.595  0.3723 -0.0086  0.2639
  187SAPI  H10S21497   5.606   3.163   7.467  0.1135  0.2469 -0.1004
  187SAPI  C21121498   5.748   3.293   7.559  0.4978  0.2438  0.4400
  187SAPI  H11R21499   5.798   3.358   7.484  0.1151 -2.1233 -2.0255
  187SAPI  C21221500   5.728   3.352   7.678 -0.3097  0.1209 -0.9368
  187SAPI  H12R21501   5.752   3.458   7.700 -2.5273  0.0399  2.5181
  187SAPI  C21321502   5.655   3.294   7.800  0.4851 -0.4091  0.0585
  187SAPI  H13R21503   5.710   3.313   7.894 -1.3620  0.4533  1.0213
  187SAPI  H13S21504   5.645   3.184   7.784 -0.7599 -0.2337 -0.4800
  187SAPI  C21421505   5.517   3.357   7.816  0.5431 -0.4728 -0.0071
  187SAPI  H14R21506   5.471   3.389   7.721  0.6758 -0.5230 -0.0893
  187SAPI  C21521507   5.442   3.380   7.927  0.3856  0.6300  0.2334
  187SAPI  H15R21508   5.347   3.435   7.910 -0.6126 -1.3430 -0.8402
  187SAPI  C21621509   5.488   3.352   8.070 -0.1010 -0.1065  0.0563
  187SAPI  H16R21510   5.583   3.296   8.072 -0.3577 -0.5385  1.2992
  187SAPI  H16S21511   5.409   3.301   8.129  1.0301 -0.4700  1.2969
  187SAPI  C21721512   5.518   3.491   8.132 -0.2813  0.0958 -0.4637
  187SAPI  H17R21513   5.564   3.560   8.058  1.1848  1.3352  1.4978
  187SAPI  H17S21514   5.603   3.478   8.203  0.6829 -1.8620 -1.8863
  187SAPI  C21821515   5.393   3.560   8.195 -0.1220  0.0367 -0.1078
  187SAPI  H18R21516   5.323   3.577   8.111 -0.7545 -1.2683  0.1392
  187SAPI  H18S21517   5.414   3.657   8.246 -3.7266  0.1607  1.4233
  187SAPI  C21921518   5.307   3.488   8.297  0.1940 -0.6670  0.3162
  187SAPI  H19R21519   5.359   3.438   8.381 -0.3777 -0.5153  0.7612
  187SAPI  H19S21520   5.249   3.411   8.242 -0.7169  0.7339 -0.7723
  187SAPI  C22021521   5.191   3.573   8.352 -0.6181  0.2464 -0.2615
  187SAPI  H20R21522   5.125   3.504   8.410 -2.1477  0.3640 -1.7691
  187SAPI  H20S21523   5.119   3.611   8.276 -1.7079 -1.1991 -0.0131
  187SAPI  H20T21524   5.222   3.653   8.422 -0.2144  0.7713 -1.0214
  187SAPI   C3321525   5.192   2.429   7.219  1.3546 -0.1281  0.4414
  187SAPI   H3X21526   5.238   2.330   7.235 -0.4059 -1.0799 -0.0978
  187SAPI   H3Y21527   5.103   2.431   7.285  0.6233 -1.4666 -0.4614
  187SAPI   C3421528   5.278   2.549   7.255 -0.0349 -0.0411 -0.1464
  187SAPI   H4X21529   5.297   2.558   7.364  2.1199 -2.5340 -0.2207
  187SAPI   H4Y21530   5.228   2.647   7.236 -1.6149 -1.2209 -2.5840
  187SAPI   C3521531   5.427   2.550   7.195  0.3402 -0.5518 -0.6329
  187SAPI   H5X21532   5.411   2.566   7.086  0.5769 -1.8885 -0.8744
  187SAPI   H5Y21533   5.467   2.448   7.210  0.3689 -0.2046  2.0557
  187SAPI   C3621534   5.524   2.654   7.254  1.2030 -0.0907  0.3244
  187SAPI   H6X21535   5.486   2.757   7.234 -0.1819 -0.2241  2.0448
  187SAPI   H6Y21536   5.614   2.648   7.189 -0.9021  2.2094 -3.1952
  187SAPI   C3721537   5.560   2.627   7.398 -0.0090 -0.1727  0.0398
  187SAPI   H7X21538   5.593   2.522   7.415  0.7757 -0.1748 -1.3442
  187SAPI   H7Y21539   5.481   2.649   7.473 -1.2133 -1.8198 -0.6954
  187SAPI   C3821540   5.685   2.708   7.431 -0.2954  0.2323 -0.0447
  187SAPI   H8X21541   5.677   2.815   7.403  0.4720  0.4515  0.5639
  187SAPI   H8Y21542   5.763   2.647   7.381 -1.8446 -2.3350  0.4768
  187SAPI   C3921543   5.719   2.711   7.584 -0.4304 -0.8413 -0.7447
  187SAPI   H9X21544   5.741   2.610   7.623 -1.8462 -0.0224  2.5627
  187SAPI   H9Y21545   5.631   2.744   7.643 -0.1949 -1.7390  0.1335
  187SAPI  C31021546   5.849   2.795   7.603  0.2999  0.6899 -0.3462
  187SAPI  H10X21547   5.830   2.899   7.568 -1.7286 -0.2108 -2.1722
  187SAPI  H10Y21548   5.925   2.744   7.541  2.3977 -0.2849  2.7646
  187SAPI  C31121549   5.915   2.766   7.738  0.4268 -0.2201  0.6889
  187SAPI  H11X21550   5.951   2.661   7.741 -0.1913 -0.6097 -2.4417
  187SAPI  H11Y21551   5.837   2.784   7.815 -1.3571  2.1180 -1.5052
  187SAPI  C31221552   6.047   2.847   7.755  0.5549  0.9148  0.5114
  187SAPI  H12X21553   6.122   2.837   7.674  1.0567 -0.4024  1.0996
  187SAPI  H12Y21554   6.089   2.815   7.853  0.7609 -2.2105 -0.4845
  187SAPI  C31321555   6.023   3.001   7.779 -0.0310  0.0941  0.4198
  187SAPI  H13X21556   5.929   3.016   7.837  0.1895  3.2822  0.1497
  187SAPI  H13Y21557   6.010   3.063   7.687  2.5566 -2.6646 -2.0221
  187SAPI  C31421558   6.139   3.068   7.859 -0.2902 -0.1392 -0.3843
  187SAPI  H14X21559   6.233   3.058   7.800  0.7067  1.0678  0.9347
  187SAPI  H14Y21560   6.162   3.023   7.958 -2.0212  1.4789  0.8121
  187SAPI  C31521561   6.129   3.213   7.887 -0.5509 -0.4371  0.3821
  187SAPI  H15X21562   6.157   3.278   7.801  0.2847  0.7150  1.4932
  187SAPI  H15Y21563   6.199   3.242   7.967 -0.2472 -0.1715  0.0244
  187SAPI  C31621564   5.992   3.253   7.946  0.2445 -0.8318  0.3681
  187SAPI  H16X21565   5.990   3.184   8.034  0.6053 -0.9948  0.2481
  187SAPI  H16Y21566   5.910   3.244   7.872  1.5846  1.9040 -1.6097
  187SAPI  C31721567   5.986   3.405   7.990  0.4845 -0.6244 -0.2436
  187SAPI  H17X21568   5.969   3.465   7.899  0.2347  1.1050  0.8939
  187SAPI  H17Y21569   6.083   3.430   8.038 -1.8931  0.2467  4.7952
  187SAPI  C31821570   5.886   3.428   8.098 -0.3122  0.4419  0.2982
  187SAPI  H18X21571   5.874   3.539   8.101  0.4501  0.7389 -3.4083
  187SAPI  H18Y21572   5.928   3.389   8.193  1.5917  1.1262 -0.2152
  187SAPI  H18Z21573   5.785   3.386   8.078  0.1142  0.5449 -2.3753
  188SAPI   C1221574   0.067   0.101   6.572 -0.0470  0.0919  0.4965
  188SAPI    H221575   0.055   0.066   6.677  0.0760 -0.3023  0.3813
  188SAPI    O221576  -0.067   0.127   6.532  0.1719 -0.1955  0.1501
  188SAPI   HO221577  -0.123   0.157   6.604 -0.0404  3.3857 -1.2928
  188SAPI   C1321578   0.152   0.223   6.573  0.0281  0.3074  0.1597
  188SAPI    H321579   0.252   0.193   6.610 -0.1705 -4.1323 -2.1651
  188SAPI    O321580   0.094   0.320   6.658  0.6389  0.3094 -0.2993
  188SAPI   HO321581   0.110   0.406   6.620  2.2378  0.8502  1.3998
  188SAPI   C1421582   0.155   0.275   6.427  0.5245  0.6369  0.3562
  188SAPI    H421583   0.050   0.290   6.395  0.6918  0.3017 -0.3799
  188SAPI    O421584   0.230   0.393   6.419  0.4594 -0.4151  0.2289
  188SAPI   HO421585   0.164   0.461   6.403  1.5442  0.8827  1.0787
  188SAPI   C1521586   0.210   0.165   6.335 -0.0905 -0.3004  0.1112
  188SAPI    H521587   0.318   0.156   6.360 -0.5965 -0.2351  2.6245
  188SAPI    O521588   0.193   0.211   6.202 -0.6222 -0.2509  0.6772
  188SAPI   HO521589   0.270   0.175   6.157  0.5166 -0.8593  2.9662
  188SAPI   C1621590   0.141   0.034   6.352 -0.0648 -0.0280  0.6509
  188SAPI    H621591   0.041   0.045   6.307  1.2532  0.2154 -2.4371
  188SAPI    O621592   0.198  -0.064   6.267  0.5193  0.0973  0.4661
  188SAPI   HO621593   0.271  -0.109   6.309  0.7990  0.1109  0.0108
  188SAPI   C1121594   0.133  -0.009   6.488 -0.8362  0.3601  0.4074
  188SAPI    H121595   0.231  -0.035   6.534 -1.8262  0.0715  2.4926
  188SAPI     P21596   0.079  -0.260   6.596 -0.1457 -0.2255  0.4387
  188SAPI   O1321597   0.211  -0.315   6.559 -0.2071 -0.1102  0.2814
  188SAPI   O1421598  -0.034  -0.352   6.573 -0.0517  0.4330  0.3227
  188SAPI   O1221599   0.050  -0.122   6.501  0.1627 -0.2007  0.4073
  188SAPI   O1121600   0.085  -0.210   6.754 -0.1164  0.5480  0.7828
  188SAPI    C121601  -0.046  -0.168   6.803 -0.4473 -0.6322 -0.8358
  188SAPI    HA21602  -0.071  -0.080   6.740 -0.5043 -0.0409 -0.0087
  188SAPI    HB21603  -0.129  -0.234   6.772 -1.1574 -0.0914 -0.1449
  188SAPI    C221604  -0.046  -0.146   6.957  0.4013  0.4117  0.4777
  188SAPI    HS21605  -0.149  -0.121   6.988  0.2747  0.7751 -0.1926
  188SAPI   O2121606   0.060  -0.056   6.999  0.7593 -0.0448  0.1976
  188SAPI   C2121607   0.031   0.075   6.967 -0.3708  0.1317  0.3895
  188SAPI   O2221608  -0.079   0.106   6.924 -0.1163  0.2676  0.5339
  188SAPI   C2221609   0.145   0.174   6.998 -0.6223  0.2257  0.2286
  188SAPI   H2R21610   0.245   0.126   6.991  0.0107  1.6413 -1.2359
  188SAPI   H2S21611   0.152   0.242   6.910 -1.3101  0.6734  0.5082
  188SAPI    C321612  -0.009  -0.287   7.023  0.3842 -0.2092 -0.3388
  188SAPI    HX21613   0.090  -0.315   6.982  1.0353 -0.6581  1.4585
  188SAPI    HY21614  -0.090  -0.356   6.992  0.8411 -0.0835 -1.8983
  188SAPI   O3121615   0.009  -0.283   7.164 -0.4025 -0.0535 -0.5371
  188SAPI   C3121616  -0.085  -0.319   7.240  0.4161 -0.4072  0.5680
  188SAPI   O3221617  -0.200  -0.342   7.206 -0.4712  0.2454  0.5638
  188SAPI   C3221618  -0.041  -0.334   7.386 -0.3381  0.6427  0.1311
  188SAPI   H2X21619  -0.053  -0.444   7.398  0.9386  0.2975 -1.3854
  188SAPI   H2Y21620  -0.110  -0.288   7.460  0.9252  0.2375  1.6372
  188SAPI   C2321621   0.136   0.249   7.127  0.5145 -0.2817  0.5747
  188SAPI   H3R21622   0.049   0.313   7.150 -0.6481 -2.0336  1.2106
  188SAPI   H3S21623   0.221   0.321   7.135  2.2712 -2.2001  0.0535
  188SAPI   C2421624   0.149   0.155   7.253 -0.5508  0.3309 -0.5662
  188SAPI   H4R21625   0.188   0.212   7.340  1.6048 -0.4781 -0.9408
  188SAPI   H4S21626   0.234   0.086   7.231  0.3791  0.2147  2.7911
  188SAPI   C2521627   0.024   0.087   7.301 -0.1480  0.4345 -0.7176
  188SAPI   H5R21628  -0.018   0.020   7.225  1.5344 -2.4025  0.7180
  188SAPI   C2621629  -0.042   0.108   7.423  0.7812 -0.9507  0.5349
  188SAPI   H6R21630  -0.139   0.057   7.435  1.1934 -2.1391 -0.9213
  188SAPI   C2721631  -0.003   0.202   7.533  0.6278 -0.1059 -0.3148
  188SAPI   H7R21632  -0.088   0.226   7.601 -0.1089  0.5186 -1.4401
  188SAPI   H7S21633   0.030   0.301   7.494 -0.4142 -0.0828 -1.1613
  188SAPI   C2821634   0.120   0.141   7.606  0.6766 -0.3227 -0.3225
  188SAPI   H8R21635   0.217   0.164   7.559  1.7392  0.7711  2.2490
  188SAPI   C2921636   0.112   0.059   7.714 -0.6452 -0.4441  0.3436
  188SAPI   H9R21637   0.203   0.016   7.758 -2.0313 -2.1980  1.5900
  188SAPI  C21021638  -0.005   0.006   7.790 -0.1323  0.0963  0.7744
  188SAPI  H10R21639   0.015  -0.100   7.816 -0.7104 -0.2662 -0.2134
  188SAPI  H10S21640  -0.089   0.000   7.718 -0.1727 -0.7804  0.8788
  188SAPI  C21121641  -0.048   0.106   7.896  0.4489  0.0450  0.0953
  188SAPI  H11R21642  -0.107   0.186   7.850  1.2593 -1.3230 -3.7408
  188SAPI  C21221643  -0.027   0.090   8.028  0.1732  0.8667  0.9205
  188SAPI  H12R21644  -0.059   0.179   8.083 -0.6022  2.0189 -1.2467
  188SAPI  C21321645   0.035  -0.028   8.094 -0.5470 -0.6481 -0.1937
  188SAPI  H13R21646   0.108   0.012   8.169 -0.9287  1.4539 -0.8853
  188SAPI  H13S21647   0.091  -0.084   8.017 -1.2996 -2.5640  0.5868
  188SAPI  C21421648  -0.071  -0.113   8.157 -0.3543 -0.0357 -0.6451
  188SAPI  H14R21649  -0.174  -0.075   8.156 -0.7593 -1.1042 -1.3991
  188SAPI  C21521650  -0.032  -0.231   8.220  0.6439 -0.1503  0.0698
  188SAPI  H15R21651  -0.106  -0.285   8.281 -1.1939  0.8285 -1.1937
  188SAPI  C21621652   0.110  -0.284   8.233 -0.5191  0.1917 -0.2607
  188SAPI  H16R21653   0.186  -0.221   8.184 -0.8717  1.3301  0.6166
  188SAPI  H16S21654   0.123  -0.382   8.182 -4.1021 -1.3363  1.4447
  188SAPI  C21721655   0.177  -0.287   8.371  0.5263 -0.2974 -0.5799
  188SAPI  H17R21656   0.121  -0.354   8.440  0.2516  0.8856  0.3881
  188SAPI  H17S21657   0.156  -0.183   8.404  1.1808 -0.0824 -0.8235
  188SAPI  C21821658   0.325  -0.333   8.392  0.1028 -0.4678 -0.5318
  188SAPI  H18R21659   0.400  -0.268   8.341  1.2860 -0.5764  0.9997
  188SAPI  H18S21660   0.352  -0.433   8.350  1.6085  0.2091 -1.2639
  188SAPI  C21921661   0.372  -0.322   8.544  0.4788  0.2458  0.6788
  188SAPI  H19R21662   0.468  -0.378   8.544  0.5846  0.4267  0.5560
  188SAPI  H19S21663   0.293  -0.360   8.613  0.8957 -0.2930  0.8667
  188SAPI  C22021664   0.400  -0.177   8.590 -0.1381 -0.3404 -0.4141
  188SAPI  H20R21665   0.449  -0.127   8.503  3.1052 -1.2915  0.7108
  188SAPI  H20S21666   0.457  -0.181   8.685  0.8502 -1.4334 -1.0114
  188SAPI  H20T21667   0.303  -0.127   8.609 -0.9387 -2.1881  0.6170
  188SAPI   C3321668   0.094  -0.274   7.416  0.3400 -0.0696  1.2088
  188SAPI   H3X21669   0.111  -0.170   7.379 -1.8405 -0.2066 -0.3390
  188SAPI   H3Y21670   0.172  -0.334   7.364 -0.5526 -0.1075 -0.1365
  188SAPI   C3421671   0.122  -0.277   7.569 -0.1717 -0.3412  0.3506
  188SAPI   H4X21672   0.037  -0.236   7.627 -0.1814 -0.0237  0.1160
  188SAPI   H4Y21673   0.201  -0.199   7.582 -1.7782  1.5594 -0.8539
  188SAPI   C3521674   0.174  -0.408   7.626 -0.0732 -0.3990 -0.3813
  188SAPI   H5X21675   0.253  -0.443   7.556 -1.3709 -3.6414 -0.4050
  188SAPI   H5Y21676   0.078  -0.465   7.623 -0.7204  0.6397  0.1002
  188SAPI   C3621677   0.226  -0.394   7.768  0.7808  0.5085  0.3472
  188SAPI   H6X21678   0.244  -0.488   7.824  1.7044 -0.4777 -1.5063
  188SAPI   H6Y21679   0.140  -0.347   7.820  1.8078  0.3963  2.2714
  188SAPI   C3721680   0.350  -0.308   7.779 -0.2737 -0.3471  0.0344
  188SAPI   H7X21681   0.339  -0.212   7.725  1.0301 -0.9739 -1.4453
  188SAPI   H7Y21682   0.436  -0.364   7.735 -0.5527  1.0139 -2.4656
  188SAPI   C3821683   0.366  -0.268   7.922  0.3532 -0.3624 -0.0753
  188SAPI   H8X21684   0.387  -0.346   7.998 -1.3951 -0.3003  0.5159
  188SAPI   H8Y21685   0.267  -0.226   7.949  1.6550  1.1794  2.7518
  188SAPI   C3921686   0.468  -0.157   7.940  0.3134 -0.0684 -0.3661
  188SAPI   H9X21687   0.454  -0.072   7.870  1.1392  1.4373  1.2292
  188SAPI   H9Y21688   0.573  -0.191   7.923  0.2792  0.7444 -2.4698
  188SAPI  C31021689   0.447  -0.104   8.083 -0.3451  0.1619 -0.0841
  188SAPI  H10X21690   0.438  -0.190   8.153  0.4217 -1.2159 -1.6149
  188SAPI  H10Y21691   0.345  -0.060   8.092 -0.6226 -0.6137  0.8427
  188SAPI  C31121692   0.563  -0.009   8.125  0.4328  0.2756  0.0232
  188SAPI  H11X21693   0.559   0.080   8.058  0.5707  1.4785  1.5588
  188SAPI  H11Y21694   0.651  -0.072   8.102  1.6597  2.3391 -1.2386
  188SAPI  C31221695   0.552   0.040   8.269  0.4544  0.1646  0.4742
  188SAPI  H12X21696   0.634   0.114   8.281  0.0791  0.8426 -0.9774
  188SAPI  H12Y21697   0.573  -0.042   8.341  2.8818  0.6457  0.4226
  188SAPI  C31321698   0.427   0.107   8.317  0.1799  0.0672 -0.2114
  188SAPI  H13X21699   0.434   0.141   8.422 -0.0857  1.0379 -0.4965
  188SAPI  H13Y21700   0.341   0.037   8.311  0.9438 -0.8523 -0.8287
  188SAPI  C31421701   0.383   0.227   8.238  0.1402  0.2667 -0.8172
  188SAPI  H14X21702   0.300   0.199   8.170 -2.1276  2.0015  1.1075
  188SAPI  H14Y21703   0.465   0.278   8.183  0.1254  3.1123  1.5443
  188SAPI  C31521704   0.329   0.335   8.337 -0.1002 -0.1040  0.8742
  188SAPI  H15X21705   0.268   0.301   8.424  1.0837  1.6621  2.4861
  188SAPI  H15Y21706   0.266   0.395   8.268 -2.7789 -0.6015  2.6928
  188SAPI  C31621707   0.448   0.421   8.388  0.1036  0.2642 -0.1769
  188SAPI  H16X21708   0.514   0.451   8.304  1.9906  0.8217  1.4214
  188SAPI  H16Y21709   0.518   0.362   8.450  0.2643  0.6442  0.0068
  188SAPI  C31721710   0.410   0.555   8.463 -0.5485  0.2978  0.4024
  188SAPI  H17X21711   0.509   0.606   8.468  0.1735 -0.8410 -1.3004
  188SAPI  H17Y21712   0.369   0.520   8.559 -0.2187 -1.2322  0.0082
  188SAPI  C31821713   0.302   0.644   8.402 -0.3484  0.0988  0.7950
  188SAPI  H18X21714   0.205   0.594   8.419  0.3635 -0.5880  3.1525
  188SAPI  H18Y21715   0.331   0.659   8.296 -0.2214 -2.2045  0.4511
  188SAPI  H18Z21716   0.306   0.742   8.455 -0.0866  0.7468 -0.3887
  189POPC     N21717   2.066   2.291  10.596  0.0444 -0.6204  0.4072
  189POPC   C1221718   2.061   2.136  10.615 -0.2464 -0.5818  0.2805
  189POPC  H12A21719   2.073   2.110  10.719 -0.7715 -1.0411  0.2289
  189POPC  H12B21720   2.135   2.101  10.545  0.5127  2.2857 -0.4978
  189POPC   C1321721   2.194   2.339  10.659 -0.0482 -0.6680  0.3187
  189POPC  H13A21722   2.279   2.311  10.598  1.0853  2.2819  0.3627
  189POPC  H13B21723   2.190   2.447  10.659 -1.1776 -0.6904 -0.8278
  189POPC  H13C21724   2.204   2.295  10.757 -3.5500 -0.8488  0.7284
  189POPC   C1421725   2.064   2.320  10.448  0.3335  0.0692  0.2925
  189POPC  H14A21726   1.981   2.273  10.399 -0.6801  0.0925  1.8931
  189POPC  H14B21727   2.038   2.424  10.437 -2.0178 -0.1929  2.3564
  189POPC  H14C21728   2.156   2.289  10.401  1.6715 -0.6683  3.1336
  189POPC   C1521729   1.943   2.344  10.658  0.0557  0.2804 -0.0338
  189POPC  H15A21730   1.848   2.305  10.626 -0.7835  1.8538  0.4085
  189POPC  H15B21731   1.937   2.452  10.651 -0.4927  0.3494  1.1772
  189POPC  H15C21732   1.947   2.312  10.761 -0.7599  0.8170  0.1732
  189POPC   C1121733   1.922   2.069  10.577  0.4907 -0.5522 -0.6342
  189POPC  H11A21734   1.947   1.961  10.568 -0.9701 -1.1983  2.0458
  189POPC  H11B21735   1.882   2.116  10.485  2.7701  0.5090 -1.1768
  189POPC     P21736   1.737   1.980  10.742  0.0722 -0.4284  0.0778
  189POPC   O1321737   1.656   2.030  10.852  0.0048  0.6132 -0.2787
  189POPC   O1421738   1.818   1.866  10.785 -0.1117 -0.2377  0.1946
  189POPC   O1221739   1.828   2.097  10.687 -0.3058  0.4213  0.0041
  189POPC   O1121740   1.661   1.943  10.604 -0.3253  0.4281 -0.7520
  189POPC    C121741   1.560   2.037  10.566 -0.4457  0.5410  0.2411
  189POPC    HA21742   1.605   2.137  10.548 -0.7330  0.9062  1.4656
  189POPC    HB21743   1.476   2.040  10.638  0.5869 -2.3142  1.6891
  189POPC    C221744   1.496   1.991  10.435 -0.6818  0.9420 -0.4685
  189POPC    HS21745   1.417   2.066  10.415 -1.8006 -0.1803 -0.3954
  189POPC   O2121746   1.446   1.858  10.457  0.4679 -0.3451  0.3353
  189POPC   C2121747   1.368   1.811  10.358 -0.3323  0.7909  0.0214
  189POPC   O2221748   1.329   1.876  10.267  0.7567  0.1910  0.5697
  189POPC   C2221749   1.342   1.657  10.376  0.1413 -0.2200 -0.5335
  189POPC   H2R21750   1.330   1.628  10.482 -0.0357  1.3185 -0.1131
  189POPC   H2S21751   1.429   1.596  10.343  0.1515 -0.5964  0.1708
  189POPC    C321752   1.609   1.997  10.315 -0.3282  0.4938  0.8334
  189POPC    HX21753   1.689   1.926  10.343 -0.1072  0.4838  0.1724
  189POPC    HY21754   1.657   2.096  10.331  0.1242 -0.0306  3.0411
  189POPC   O3121755   1.561   1.983  10.180  0.0781 -0.2387  0.3687
  189POPC   C3121756   1.575   1.868  10.122  0.1685  0.5490  0.4541
  189POPC   O3221757   1.610   1.761  10.173  0.3928  0.2117  0.5009
  189POPC   C3221758   1.531   1.882   9.977 -0.0104 -0.3015  0.7274
  189POPC   H2X21759   1.627   1.886   9.921  0.7514  2.6126  2.0346
  189POPC   H2Y21760   1.480   1.981   9.975  0.3562 -0.1028  1.0121
  189POPC   C2321761   1.201   1.619  10.306  0.1604  0.2129 -1.3371
  189POPC   H3R21762   1.122   1.690  10.339 -3.1601 -4.0472  0.8964
  189POPC   H3S21763   1.171   1.520  10.346 -0.5667 -0.6518 -3.8918
  189POPC   C2421764   1.215   1.594  10.154  0.4668  0.2492  0.7159
  189POPC   H4R21765   1.309   1.541  10.131  1.8538  3.1326 -0.9640
  189POPC   H4S21766   1.215   1.690  10.097 -2.0072 -1.1738 -1.9726
  189POPC   C2521767   1.107   1.504  10.102  0.5167 -0.8051  0.6184
  189POPC   H5R21768   1.011   1.548  10.137  0.4231 -0.6019  0.1126
  189POPC   H5S21769   1.103   1.410  10.161 -0.6209  0.1094  2.0991
  189POPC   C2621770   1.109   1.477   9.952 -0.6088 -0.8950 -0.3838
  189POPC   H6R21771   1.218   1.456   9.944 -0.1921  1.1008 -0.3671
  189POPC   H6S21772   1.101   1.575   9.901 -0.1900 -0.3697  0.5360
  189POPC   C2721773   1.031   1.368   9.896  0.1102 -0.6740  0.3255
  189POPC   H7R21774   1.036   1.272   9.951 -1.4428 -1.3003 -0.5542
  189POPC   H7S21775   1.077   1.343   9.798 -1.6360 -3.8357  0.1746
  189POPC   C2821776   0.884   1.401   9.882 -0.2990 -0.5136 -0.0959
  189POPC   H8R21777   0.874   1.506   9.847  0.7059 -0.0305  0.9912
  189POPC   H8S21778   0.842   1.404   9.985 -0.4014  0.1891 -0.1501
  189POPC   C2921779   0.810   1.300   9.801 -0.2978 -0.7040 -0.4146
  189POPC   H9121780   0.782   1.212   9.860  1.9179 -0.3314  1.3347
  189POPC  C21021781   0.771   1.308   9.672 -0.3359  0.4205 -0.5612
  189POPC  H10121782   0.723   1.219   9.630 -1.0983  0.8439 -0.5951
  189POPC  C21121783   0.801   1.428   9.587 -0.0608 -0.5125  0.6165
  189POPC  H11R21784   0.824   1.524   9.639 -0.4354  0.3578 -0.7904
  189POPC  H11S21785   0.701   1.450   9.545  0.2443 -1.5832 -0.7386
  189POPC  C21221786   0.893   1.394   9.475 -0.9038  0.4396 -0.0537
  189POPC  H12R21787   0.974   1.322   9.497 -2.5374 -1.2471  0.7877
  189POPC  H12S21788   0.952   1.482   9.444 -2.6446  1.9286  0.6071
  189POPC  C21321789   0.830   1.368   9.341  0.5748  0.0978 -0.1572
  189POPC  H13R21790   0.770   1.460   9.324  0.5527  0.2872  0.8806
  189POPC  H13S21791   0.755   1.285   9.338 -0.7517  1.2896 -1.0394
  189POPC  C21421792   0.940   1.347   9.231 -0.4424  0.3485 -0.6106
  189POPC  H14R21793   0.968   1.240   9.233 -1.5602  0.0407  1.2228
  189POPC  H14S21794   1.034   1.397   9.261 -0.3500  0.6596 -1.3917
  189POPC  C21521795   0.905   1.385   9.090 -0.3525 -0.4423  0.1396
  189POPC  H15R21796   0.800   1.351   9.075 -0.6212  0.5400 -0.2695
  189POPC  H15S21797   0.977   1.336   9.021 -0.8521  1.3709 -1.7638
  189POPC  C21621798   0.918   1.536   9.068  0.0835  0.2318 -0.4128
  189POPC  H16R21799   1.025   1.566   9.079 -1.2284  4.8279  2.4750
  189POPC  H16S21800   0.865   1.594   9.146  0.4873 -2.3530  1.9589
  189POPC  C21721801   0.877   1.582   8.929 -0.0759 -1.2398  0.3139
  189POPC  H17R21802   0.891   1.691   8.911  0.8819 -1.5008 -0.6274
  189POPC  H17S21803   0.769   1.564   8.913 -0.5709  0.6774  1.2429
  189POPC  C21821804   0.944   1.517   8.819 -0.6622 -0.1235  0.3664
  189POPC  H18R21805   0.912   1.573   8.728 -1.6298  2.2397  2.0479
  189POPC  H18S21806   0.917   1.410   8.807  0.1934 -0.6282  2.4956
  189POPC  H18T21807   1.054   1.527   8.827 -0.5685 -1.4208  0.9499
  189POPC   C3321808   1.450   1.774   9.914  0.1690 -0.0253 -0.7910
  189POPC   H3X21809   1.348   1.759   9.957 -0.1653  1.3865 -1.0482
  189POPC   H3Y21810   1.511   1.682   9.921  0.2389 -0.0645 -1.7533
  189POPC   C3421811   1.429   1.813   9.768 -0.5444  0.4734  0.1735
  189POPC   H4X21812   1.521   1.855   9.722  1.5631 -1.8453  1.9839
  189POPC   H4Y21813   1.345   1.884   9.783 -1.2201 -0.3036  0.1313
  189POPC   C3521814   1.385   1.689   9.687  0.3973 -0.2817  0.3000
  189POPC   H5X21815   1.296   1.638   9.728 -1.2217  0.5591 -1.9656
  189POPC   H5Y21816   1.466   1.612   9.684 -0.7383 -1.4946 -1.1847
  189POPC   C3621817   1.353   1.728   9.537  0.2599  0.2918 -0.1465
  189POPC   H6X21818   1.427   1.799   9.493  0.4686  0.5084  0.5342
  189POPC   H6Y21819   1.266   1.797   9.539  0.8945  1.1090  1.6525
  189POPC   C3721820   1.337   1.603   9.449 -0.4350  0.0606  0.5980
  189POPC   H7X21821   1.247   1.542   9.468  1.2977 -3.0219 -0.3872
  189POPC   H7Y21822   1.425   1.537   9.462 -1.9528 -2.8827 -2.5180
  189POPC   C3821823   1.343   1.631   9.296 -0.3063 -0.3340  0.2085
  189POPC   H8X21824   1.399   1.727   9.288 -0.5749 -0.3096 -2.7697
  189POPC   H8Y21825   1.243   1.671   9.268 -0.7521  1.5197  3.8186
  189POPC   C3921826   1.392   1.531   9.197  0.5641  0.5842 -0.0770
  189POPC   H9X21827   1.354   1.429   9.222 -1.0362  1.3732  0.8717
  189POPC   H9Y21828   1.501   1.531   9.216  0.3712  3.3839  1.4686
  189POPC  C31021829   1.357   1.563   9.051 -0.2470 -0.5929  0.5850
  189POPC  H10X21830   1.386   1.670   9.036  1.4493 -1.2666 -1.3793
  189POPC  H10Y21831   1.246   1.560   9.049 -0.3068 -0.1022  1.9511
  189POPC  C31121832   1.438   1.475   8.946 -0.2186  0.6240 -0.1836
  189POPC  H11X21833   1.431   1.368   8.976 -2.1228  1.0085  0.8922
  189POPC  H11Y21834   1.544   1.503   8.962 -0.8625  2.3545  1.3087
  189POPC  C31221835   1.383   1.499   8.807 -0.0173 -0.0857  0.0810
  189POPC  H12X21836   1.389   1.609   8.792  1.9822 -0.2594 -0.7708
  189POPC  H12Y21837   1.279   1.462   8.816  0.4230 -1.4492 -0.3169
  189POPC  C31321838   1.453   1.439   8.683  0.2042 -0.2164 -0.0799
  189POPC  H13X21839   1.389   1.460   8.595 -1.6218  0.0507  1.2414
  189POPC  H13Y21840   1.482   1.332   8.693  4.6794  0.7095 -1.1620
  189POPC  C31421841   1.591   1.511   8.656  0.7496 -0.3215 -0.5870
  189POPC  H14X21842   1.660   1.431   8.622  0.4466 -0.8166 -0.0603
  189POPC  H14Y21843   1.632   1.541   8.755 -1.0128 -2.0838  0.7665
  189POPC  C31521844   1.585   1.629   8.562 -0.3812  0.1729  0.0835
  189POPC  H15X21845   1.503   1.691   8.604 -0.2780  0.4177 -0.0745
  189POPC  H15Y21846   1.545   1.593   8.465 -0.7509 -1.3099  0.7607
  189POPC  C31621847   1.718   1.703   8.537 -0.0223 -0.2442  1.0236
  189POPC  H16X21848   1.691   1.787   8.469  0.6656 -1.1430 -0.4060
  189POPC  H16Y21849   1.793   1.632   8.496 -0.1068 -1.2042  2.4345
  189POPC  H16Z21850   1.761   1.735   8.634 -0.6132  1.2035  0.8353
  190POPC     N21851   1.603   4.883  11.198 -0.5776 -0.3210  0.0378
  190POPC   C1221852   1.580   5.002  11.103 -0.2917 -0.1692  0.7532
  190POPC  H12A21853   1.476   4.992  11.076  0.5132 -2.7285 -1.9089
  190POPC  H12B21854   1.643   4.988  11.016 -1.9444 -1.2824 -0.3506
  190POPC   C1321855   1.576   4.764  11.117 -0.2196  0.0175  0.8986
  190POPC  H13A21856   1.477   4.770  11.075 -0.2431  2.5218  1.1985
  190POPC  H13B21857   1.656   4.749  11.046  1.3370  2.3501  2.0426
  190POPC  H13C21858   1.582   4.673  11.176 -2.5811 -2.2493 -2.0320
  190POPC   C1421859   1.741   4.875  11.251 -0.1956 -0.2006  0.0203
  190POPC  H14A21860   1.817   4.859  11.176 -1.2025  2.2378 -1.6394
  190POPC  H14B21861   1.763   4.963  11.310  0.1165 -1.4470  1.8735
  190POPC  H14C21862   1.753   4.797  11.325  0.3248 -1.5276 -1.4021
  190POPC   C1521863   1.510   4.878  11.314  0.1037 -0.2922  0.2015
  190POPC  H15A21864   1.533   4.797  11.380  0.2146 -0.7486 -0.3894
  190POPC  H15B21865   1.404   4.876  11.293  0.1546 -0.2446 -0.0750
  190POPC  H15C21866   1.528   4.962  11.379  0.6773 -1.0602  1.0531
  190POPC   C1121867   1.584   5.149  11.153 -0.1383 -0.6347 -0.3312
  190POPC  H11A21868   1.522   5.154  11.245 -1.2352  0.3470 -1.0956
  190POPC  H11B21869   1.529   5.214  11.081  0.8299 -0.4596 -0.9238
  190POPC     P21870   1.803   5.263  11.069 -0.1885 -0.3669 -0.0168
  190POPC   O1321871   1.944   5.272  11.102 -0.5006  0.3379  0.1360
  190POPC   O1421872   1.742   5.389  11.019  0.3143  0.4728  0.7055
  190POPC   O1221873   1.713   5.202  11.180 -0.3422  0.7497 -0.0158
  190POPC   O1121874   1.804   5.150  10.957  0.9366 -0.2498  0.2686
  190POPC    C121875   1.874   5.176  10.833 -0.4676  0.0572 -0.3019
  190POPC    HA21876   1.970   5.230  10.851 -0.4943 -0.5296  1.8534
  190POPC    HB21877   1.826   5.242  10.758  0.0811  0.1237 -0.6019
  190POPC    C221878   1.920   5.044  10.763  0.7768  0.1706 -0.5526
  190POPC    HS21879   2.006   5.070  10.697  0.9376 -0.0250 -0.4253
  190POPC   O2121880   1.803   5.010  10.682 -0.6664  0.0861  0.2130
  190POPC   C2121881   1.830   4.967  10.557  0.3874  0.2832  0.1077
  190POPC   O2221882   1.941   4.970  10.503  0.8945 -0.0979  0.6512
  190POPC   C2221883   1.703   4.913  10.495 -0.1933 -0.3771 -0.1430
  190POPC   H2R21884   1.657   4.845  10.569 -0.6123  0.5607  0.4858
  190POPC   H2S21885   1.733   4.874  10.396 -3.5217 -1.1347 -0.9778
  190POPC    C321886   1.964   4.934  10.864 -0.0606  0.2438  0.1157
  190POPC    HX21887   1.889   4.922  10.946  1.5643  0.2570  1.6705
  190POPC    HY21888   2.053   4.978  10.914  1.1075  0.1837 -1.8325
  190POPC   O3121889   2.002   4.808  10.807  0.1268 -0.3238 -0.4943
  190POPC   C3121890   2.065   4.728  10.892 -0.7033 -0.5162  0.0450
  190POPC   O3221891   2.091   4.749  11.007 -0.0016 -0.3934 -0.2789
  190POPC   C3221892   2.101   4.599  10.809  0.5893  0.5549  0.2538
  190POPC   H2X21893   2.090   4.517  10.884  0.9758 -0.1138 -0.4074
  190POPC   H2Y21894   2.205   4.588  10.773  0.4860  0.7498 -0.1020
  190POPC   C2321895   1.616   5.038  10.466 -0.1663 -0.6263  0.2053
  190POPC   H3R21896   1.610   5.095  10.561  3.3156  0.5382 -0.1310
  190POPC   H3S21897   1.517   4.994  10.442 -0.4391  0.2438 -0.2950
  190POPC   C2421898   1.670   5.132  10.355  0.2183  0.2519  0.1431
  190POPC   H4R21899   1.769   5.170  10.391 -0.0655  0.8279  0.3252
  190POPC   H4S21900   1.606   5.222  10.351 -1.0214 -0.5573  1.1119
  190POPC   C2521901   1.688   5.090  10.208 -0.0914  0.2239  0.3109
  190POPC   H5R21902   1.587   5.055  10.176 -0.0413  1.0665 -0.8319
  190POPC   H5S21903   1.758   5.004  10.205 -0.6008 -0.1680 -0.6283
  190POPC   C2621904   1.740   5.203  10.116  0.0826  0.9259  0.3519
  190POPC   H6R21905   1.806   5.272  10.174  1.4976  0.6802 -0.8823
  190POPC   H6S21906   1.662   5.266  10.069  0.9958  1.7674 -0.0813
  190POPC   C2721907   1.838   5.158   9.998 -0.4055 -0.8828 -0.2152
  190POPC   H7R21908   1.912   5.083  10.034  0.6961  0.4791  0.4318
  190POPC   H7S21909   1.896   5.243   9.957 -1.0735 -0.7613 -0.9433
  190POPC   C2821910   1.785   5.092   9.871  0.4750 -0.7107  0.9219
  190POPC   H8R21911   1.727   5.000   9.894  1.4717 -1.8375 -0.8046
  190POPC   H8S21912   1.865   5.066   9.797 -0.3289  0.8660 -0.5772
  190POPC   C2921913   1.702   5.193   9.795 -0.3584  0.4812  0.2789
  190POPC   H9121914   1.704   5.295   9.837  1.4892  0.7745 -0.4256
  190POPC  C21021915   1.637   5.178   9.682 -0.3092 -0.0122 -0.6411
  190POPC  H10121916   1.592   5.270   9.644 -1.0695  0.2310  0.7940
  190POPC  C21121917   1.626   5.053   9.606  0.1790  0.4333 -0.0813
  190POPC  H11R21918   1.524   5.013   9.589  0.5400 -0.2000 -0.7795
  190POPC  H11S21919   1.677   4.973   9.664 -0.9811 -1.4192 -1.5219
  190POPC  C21221920   1.702   5.082   9.474 -0.3434 -0.3136  0.3530
  190POPC  H12R21921   1.756   4.987   9.452 -0.5773  0.0752 -2.2380
  190POPC  H12S21922   1.782   5.156   9.493 -1.4638  1.2463 -0.7989
  190POPC  C21321923   1.614   5.127   9.358 -0.5007  0.3154 -0.0139
  190POPC  H13R21924   1.550   5.207   9.402  0.4099  0.1678  1.6712
  190POPC  H13S21925   1.550   5.042   9.326 -1.9016  0.8909  1.1247
  190POPC  C21421926   1.687   5.200   9.243  0.4401 -0.4663 -0.4484
  190POPC  H14R21927   1.739   5.289   9.286  0.5809 -0.5845 -0.3713
  190POPC  H14S21928   1.610   5.225   9.168 -0.4837  0.0756  0.6530
  190POPC  C21521929   1.795   5.105   9.170  0.4111 -0.0986  0.1930
  190POPC  H15R21930   1.744   5.009   9.147 -0.7673  0.0843  1.8553
  190POPC  H15S21931   1.876   5.090   9.244 -0.9666  1.7741  2.2395
  190POPC  C21621932   1.864   5.172   9.044  0.2113  0.5162 -0.5642
  190POPC  H16R21933   1.957   5.112   9.036 -0.2759 -0.7822  2.1757
  190POPC  H16S21934   1.897   5.277   9.058 -0.2043  0.5358  0.3311
  190POPC  C21721935   1.779   5.167   8.916  0.1053 -0.5506  0.0361
  190POPC  H17R21936   1.671   5.186   8.933  0.1961  0.8958 -0.7965
  190POPC  H17S21937   1.775   5.059   8.892  1.0448 -0.9511  1.5092
  190POPC  C21821938   1.829   5.259   8.808  0.3009  0.4103 -0.8483
  190POPC  H18R21939   1.769   5.242   8.716 -0.3438 -2.3453 -0.0140
  190POPC  H18S21940   1.933   5.225   8.787  0.4277 -0.4538  0.9417
  190POPC  H18T21941   1.819   5.364   8.841  0.7190  0.2595 -0.2076
  190POPC   C3321942   2.010   4.575  10.687  0.0145 -0.2284 -0.6116
  190POPC   H3X21943   2.046   4.651  10.615  2.2898 -1.2355 -0.6013
  190POPC   H3Y21944   1.906   4.593  10.723  0.4310  1.9831 -0.3602
  190POPC   C3421945   2.016   4.441  10.622  0.0637 -0.0449  0.4297
  190POPC   H4X21946   1.980   4.371  10.701 -0.3655  0.6049  0.8204
  190POPC   H4Y21947   2.115   4.406  10.587  0.2541  0.9794 -0.0862
  190POPC   C3521948   1.917   4.430  10.505 -0.7249 -0.2857 -0.2032
  190POPC   H5X21949   1.819   4.482  10.504 -0.8898 -0.5853 -0.0449
  190POPC   H5Y21950   1.896   4.321  10.502 -2.3856 -0.0979  2.1316
  190POPC   C3621951   1.981   4.472  10.367  0.1596  0.2903 -0.7728
  190POPC   H6X21952   1.929   4.405  10.295  0.4536 -2.9621  1.7752
  190POPC   H6Y21953   2.087   4.441  10.376 -0.1687 -1.0150 -1.1833
  190POPC   C3721954   1.975   4.615  10.330  0.4838 -0.7660 -0.0281
  190POPC   H7X21955   2.029   4.679  10.404  0.2327  1.7347 -1.8736
  190POPC   H7Y21956   1.871   4.653  10.327  0.9581  0.5134 -1.8579
  190POPC   C3821957   2.041   4.646  10.195  0.1569 -0.4205 -0.4673
  190POPC   H8X21958   1.995   4.577  10.121 -0.8588 -0.7668  0.4582
  190POPC   H8Y21959   2.144   4.611  10.218 -0.1047 -1.9393 -1.4862
  190POPC   C3921960   2.050   4.789  10.155  0.4127  0.6296 -0.2101
  190POPC   H9X21961   2.148   4.834  10.184 -0.0755  1.1696  0.6368
  190POPC   H9Y21962   1.969   4.835  10.214  0.0855  0.2671 -0.3776
  190POPC  C31021963   2.032   4.823  10.005  0.0189 -0.8986 -1.0442
  190POPC  H10X21964   2.062   4.929   9.994  1.7216 -1.5000 -2.6765
  190POPC  H10Y21965   1.923   4.826   9.981  0.0341  3.5543 -1.4192
  190POPC  C31121966   2.115   4.739   9.907 -0.5589  0.2027 -0.5625
  190POPC  H11X21967   2.062   4.641   9.898  0.2858 -0.0469 -3.8233
  190POPC  H11Y21968   2.223   4.725   9.927 -0.7808 -1.3943 -0.3496
  190POPC  C31221969   2.103   4.783   9.764  0.4621  0.1581 -0.0771
  190POPC  H12X21970   2.165   4.874   9.754 -0.4970  0.7753 -0.5673
  190POPC  H12Y21971   1.999   4.820   9.751  1.0054  2.1989  1.0938
  190POPC  C31321972   2.126   4.680   9.651  0.3642  0.2924 -0.0743
  190POPC  H13X21973   2.045   4.604   9.659  1.1854 -0.7238 -0.9980
  190POPC  H13Y21974   2.218   4.620   9.668 -0.9580 -2.1251 -0.9005
  190POPC  C31421975   2.123   4.730   9.507 -0.2782 -0.7169 -0.0345
  190POPC  H14X21976   2.148   4.663   9.422  1.8500  2.1200 -1.8812
  190POPC  H14Y21977   2.197   4.813   9.504  1.6146 -2.2679  1.2007
  190POPC  C31521978   1.982   4.786   9.462  0.3526  0.9419 -0.2410
  190POPC  H15X21979   1.951   4.867   9.532  0.4121 -0.0786  1.0033
  190POPC  H15Y21980   1.912   4.701   9.476  1.4023 -0.4126 -2.6988
  190POPC  C31621981   1.963   4.815   9.316  0.2954  0.8020 -0.5934
  190POPC  H16X21982   1.980   4.715   9.271 -0.4485 -1.3792  3.4549
  190POPC  H16Y21983   2.032   4.897   9.285  2.2190  0.0152  1.3448
  190POPC  H16Z21984   1.859   4.846   9.293 -1.0349 -1.6632  1.4886
  191POPC     N21985   2.834   5.411   6.223  0.5504  0.3263 -0.0504
  191POPC   C1221986   2.867   5.319   6.335 -0.4562  0.5802 -0.9281
  191POPC  H12A21987   2.936   5.376   6.396 -0.7110  0.9076 -0.9392
  191POPC  H12B21988   2.916   5.230   6.298  0.0295  0.6023 -0.3684
  191POPC   C1321989   2.959   5.447   6.144  0.0076 -0.3866  0.0845
  191POPC  H13A21990   2.948   5.542   6.094 -1.2246 -1.3277 -1.5042
  191POPC  H13B21991   3.052   5.449   6.200  1.4154  1.7624 -2.1199
  191POPC  H13C21992   2.972   5.372   6.067 -1.1706 -2.3721  1.7112
  191POPC   C1421993   2.758   5.344   6.122  0.7307  0.1159 -0.7331
  191POPC  H14A21994   2.813   5.264   6.075  1.6112  0.3343 -0.1022
  191POPC  H14B21995   2.661   5.310   6.154  0.4191  0.9826 -0.7326
  191POPC  H14C21996   2.742   5.413   6.040 -1.6385  0.1707 -0.2947
  191POPC   C1521997   2.769   5.539   6.272  0.3725  0.1086  0.0876
  191POPC  H15A21998   2.835   5.600   6.332  1.0102  0.2454 -0.7251
  191POPC  H15B21999   2.696   5.502   6.342  1.1137 -0.7901  0.4141
  191POPC  H15C22000   2.727   5.590   6.186 -2.1134 -1.3934  0.3199
  191POPC   C1122001   2.748   5.266   6.419 -0.4236 -0.3635 -0.5441
  191POPC  H11A22002   2.694   5.351   6.466 -0.4027 -0.1542 -0.8900
  191POPC  H11B22003   2.793   5.206   6.501  0.2545 -0.3070 -0.8690
  191POPC     P22004   2.679   5.031   6.310 -0.3745  0.2510 -0.5387
  191POPC   O1322005   2.791   4.999   6.217 -0.2260  0.0295  0.0724
  191POPC   O1422006   2.552   4.974   6.277  0.2806 -0.6394 -0.1005
  191POPC   O1222007   2.659   5.190   6.338 -0.5188  0.5264  0.1250
  191POPC   O1122008   2.704   4.989   6.456 -0.3791  0.4755  0.2903
  191POPC    C122009   2.590   4.951   6.542 -0.0136  0.1493 -0.0437
  191POPC    HA22010   2.553   4.848   6.525  1.0821 -0.3810  0.6689
  191POPC    HB22011   2.510   5.027   6.531 -0.3885  0.4387  3.5061
  191POPC    C222012   2.640   4.938   6.689 -0.1238  0.0474  0.3955
  191POPC    HS22013   2.558   4.941   6.764  0.8568  1.7037  1.4641
  191POPC   O2122014   2.743   5.035   6.711 -0.0897  0.0295 -0.2690
  191POPC   C2122015   2.706   5.145   6.773 -1.1648  0.4945  0.2675
  191POPC   O2222016   2.596   5.193   6.771  0.2036  0.3032 -0.0508
  191POPC   C2222017   2.834   5.208   6.839  0.0476 -0.6519  0.1573
  191POPC   H2R22018   2.878   5.275   6.762 -1.0679  2.9163  2.3505
  191POPC   H2S22019   2.898   5.123   6.870 -1.5677 -1.8273  0.4428
  191POPC    C322020   2.701   4.804   6.731  0.3596 -0.2205  0.1265
  191POPC    HX22021   2.791   4.800   6.665 -1.8553  1.0383 -3.2400
  191POPC    HY22022   2.629   4.727   6.696  0.6618 -0.0588 -0.8804
  191POPC   O3122023   2.719   4.798   6.874  0.1752 -0.0362 -0.4406
  191POPC   C3122024   2.789   4.695   6.904 -0.3263  0.3278 -0.2375
  191POPC   O3222025   2.833   4.611   6.823 -0.1365  0.2736 -0.0144
  191POPC   C3222026   2.799   4.687   7.055 -0.0477 -0.7570 -0.2065
  191POPC   H2X22027   2.714   4.726   7.115  2.1045  1.5398  1.5621
  191POPC   H2Y22028   2.887   4.749   7.080  0.4854 -2.1663  1.6092
  191POPC   C2322029   2.787   5.293   6.961  0.5740 -0.6815 -0.0132
  191POPC   H3R22030   2.740   5.391   6.937  1.2447 -0.3664 -0.0730
  191POPC   H3S22031   2.875   5.333   7.016  0.5556  0.3113 -0.6827
  191POPC   C2422032   2.725   5.217   7.071 -0.0259  0.2612  0.2907
  191POPC   H4R22033   2.616   5.195   7.069 -0.2562  1.3917 -0.0990
  191POPC   H4S22034   2.722   5.280   7.162  0.7354  0.4582  0.1824
  191POPC   C2522035   2.802   5.087   7.101  0.1540  0.3890  0.3413
  191POPC   H5R22036   2.910   5.111   7.093  0.4308 -1.0894 -0.8290
  191POPC   H5S22037   2.774   5.009   7.027 -0.0991 -0.3991  1.2551
  191POPC   C2622038   2.772   5.036   7.243  0.2702  0.7695 -0.1437
  191POPC   H6R22039   2.839   4.949   7.265 -0.3771  0.2980 -0.0291
  191POPC   H6S22040   2.668   5.000   7.234  0.3232  0.7215 -0.5746
  191POPC   C2722041   2.780   5.138   7.365 -0.1891  0.2234  0.6014
  191POPC   H7R22042   2.696   5.211   7.366 -0.2716  0.1333  1.5129
  191POPC   H7S22043   2.870   5.201   7.345 -0.4976 -0.2164 -2.8389
  191POPC   C2822044   2.802   5.071   7.498 -0.2525  0.1657 -0.0860
  191POPC   H8R22045   2.829   5.149   7.572 -0.0535 -0.3742  0.4184
  191POPC   H8S22046   2.884   4.997   7.501 -0.0886  0.3721  0.8166
  191POPC   C2922047   2.673   5.005   7.545  0.5257  0.1435 -0.1499
  191POPC   H9122048   2.621   4.959   7.460 -0.7828 -0.0723  0.7398
  191POPC  C21022049   2.620   4.991   7.673  0.5130 -0.0280  0.3711
  191POPC  H10122050   2.528   4.939   7.703  0.1139  0.3083 -0.2475
  191POPC  C21122051   2.697   5.043   7.786  0.0931 -0.1747  0.3214
  191POPC  H11R22052   2.660   5.144   7.813 -0.2334 -0.3865  0.6848
  191POPC  H11S22053   2.804   5.053   7.756  0.4768 -0.2939  1.5840
  191POPC  C21222054   2.684   4.953   7.911  0.1567  0.1641 -0.7881
  191POPC  H12R22055   2.736   4.855   7.904 -1.3680 -0.7703  0.3583
  191POPC  H12S22056   2.575   4.941   7.926  0.3614  0.5439  1.2328
  191POPC  C21322057   2.730   5.033   8.033  0.2430  0.3566 -0.2083
  191POPC  H13R22058   2.711   5.142   8.029  0.9914  0.5646  1.4204
  191POPC  H13S22059   2.838   5.015   8.051  0.1825  0.1521 -0.0530
  191POPC  C21422060   2.658   5.000   8.162 -0.0723 -0.1984 -0.9652
  191POPC  H14R22061   2.651   4.889   8.163  0.6777 -0.2780 -2.3687
  191POPC  H14S22062   2.551   5.029   8.155 -0.9506 -3.0799 -0.8831
  191POPC  C21522063   2.712   5.066   8.292 -0.3508  0.1438  0.9769
  191POPC  H15R22064   2.720   5.175   8.270 -0.4929 -0.1158 -0.4089
  191POPC  H15S22065   2.813   5.033   8.326  0.3994  1.7598  0.4143
  191POPC  C21622066   2.608   5.039   8.405  0.2008 -0.7618  0.4053
  191POPC  H16R22067   2.573   4.934   8.415 -1.1745 -0.4859 -1.0127
  191POPC  H16S22068   2.518   5.102   8.385  1.7929  1.6888  0.4990
  191POPC  C21722069   2.653   5.075   8.550 -0.5172 -1.0676 -0.1428
  191POPC  H17R22070   2.667   5.185   8.552 -1.6889 -0.7499 -3.6619
  191POPC  H17S22071   2.752   5.030   8.574  1.3691  2.9208  0.4774
  191POPC  C21822072   2.557   5.040   8.666 -0.2651 -0.7232 -0.0470
  191POPC  H18R22073   2.571   4.931   8.674  1.4194 -0.6454 -1.2800
  191POPC  H18S22074   2.448   5.052   8.647  0.0241  0.1147 -1.3873
  191POPC  H18T22075   2.593   5.077   8.764  0.7998 -2.2668  0.1708
  191POPC   C3322076   2.822   4.540   7.096  1.2260 -0.4878  0.6997
  191POPC   H3X22077   2.904   4.487   7.043  0.6273 -1.1806  0.4468
  191POPC   H3Y22078   2.725   4.494   7.066  0.5325  2.3341 -1.9686
  191POPC   C3422079   2.850   4.518   7.249  0.0804  0.0883  0.1114
  191POPC   H4X22080   2.862   4.410   7.273 -1.2293  0.4449  2.6434
  191POPC   H4Y22081   2.764   4.541   7.314 -0.3116 -0.1945 -0.2971
  191POPC   C3522082   2.973   4.596   7.305  0.4723 -0.0773  0.1003
  191POPC   H5X22083   2.951   4.705   7.303 -1.8605 -0.5150 -0.1878
  191POPC   H5Y22084   3.065   4.578   7.246  0.7711 -1.2179  0.8737
  191POPC   C3622085   3.003   4.567   7.449 -0.4697 -0.2480 -0.6182
  191POPC   H6X22086   3.076   4.640   7.489 -0.8425 -0.9490  1.4514
  191POPC   H6Y22087   3.041   4.463   7.458  0.1721  0.0378  0.0979
  191POPC   C3722088   2.890   4.594   7.550  0.1488  0.7677  0.0673
  191POPC   H7X22089   2.799   4.539   7.518  0.6267 -0.3486  0.5908
  191POPC   H7Y22090   2.861   4.701   7.543  0.6331  0.8324 -1.0625
  191POPC   C3822091   2.929   4.556   7.695 -0.1463  0.3461  0.5053
  191POPC   H8X22092   3.010   4.627   7.720 -1.8188  2.4250  0.3033
  191POPC   H8Y22093   2.971   4.454   7.684  0.3474  0.8118 -2.8944
  191POPC   C3922094   2.804   4.553   7.780 -1.2095 -0.2283  0.5800
  191POPC   H9X22095   2.720   4.496   7.735 -0.6334 -0.4236 -0.2688
  191POPC   H9Y22096   2.768   4.657   7.791  0.7213  0.4070  1.4853
  191POPC  C31022097   2.848   4.498   7.916  0.0953 -0.6558 -0.4722
  191POPC  H10X22098   2.888   4.396   7.934  2.5688  0.5703  1.6203
  191POPC  H10Y22099   2.749   4.498   7.965  0.0571 -1.5885 -0.5167
  191POPC  C31122100   2.936   4.592   8.004  0.6108 -0.5790 -0.4130
  191POPC  H11X22101   2.908   4.698   7.984  0.0540 -0.6811 -0.2002
  191POPC  H11Y22102   3.041   4.575   7.972  0.4842 -1.0991 -0.5713
  191POPC  C31222103   2.921   4.574   8.151 -0.2925 -0.0183  1.4377
  191POPC  H12X22104   2.972   4.480   8.182  0.7071  0.5132  1.4343
  191POPC  H12Y22105   2.815   4.559   8.179 -0.1790 -2.0171  0.9363
  191POPC  C31322106   2.982   4.686   8.238 -0.0471  0.5240 -0.0606
  191POPC  H13X22107   2.964   4.783   8.187 -1.9322  1.0214  1.4506
  191POPC  H13Y22108   3.092   4.670   8.246  0.0721 -0.0619 -2.2235
  191POPC  C31422109   2.917   4.694   8.376  0.1533  0.0116 -0.6226
  191POPC  H14X22110   2.920   4.590   8.414  0.1426 -0.4406 -1.8060
  191POPC  H14Y22111   2.811   4.724   8.364  0.4234  0.7897 -1.1180
  191POPC  C31522112   3.000   4.803   8.464  0.2436  0.2564  0.1000
  191POPC  H15X22113   2.982   4.908   8.432 -1.2481  0.1337  0.4403
  191POPC  H15Y22114   3.103   4.769   8.445  0.2328  0.4427 -0.2988
  191POPC  C31622115   2.967   4.791   8.613 -0.3370  0.3414 -0.2617
  191POPC  H16X22116   2.860   4.819   8.626 -0.6427 -1.1684  0.7657
  191POPC  H16Y22117   3.038   4.848   8.676 -1.4806  0.5299  0.8942
  191POPC  H16Z22118   2.973   4.686   8.649  2.8518  0.6101  0.2726
  192POPC     N22119   1.322   2.946   6.192  0.3371 -0.2069 -0.0318
  192POPC   C1222120   1.306   2.854   6.078 -0.8134  0.9575  0.2284
  192POPC  H12A22121   1.403   2.856   6.029 -0.3937  1.1246  1.0499
  192POPC  H12B22122   1.228   2.887   6.011  0.2465 -0.5042 -1.8827
  192POPC   C1322123   1.448   2.921   6.269  0.0935  0.5649 -0.4978
  192POPC  H13A22124   1.444   2.975   6.363  0.8160 -0.5590  0.2000
  192POPC  H13B22125   1.449   2.819   6.303 -1.3955  0.5744 -0.3396
  192POPC  H13C22126   1.527   2.951   6.202 -1.0617 -0.6504 -2.4769
  192POPC   C1422127   1.340   3.086   6.138 -0.4853 -0.0594 -0.5324
  192POPC  H14A22128   1.272   3.117   6.060 -0.8329  0.3947 -0.0578
  192POPC  H14B22129   1.344   3.161   6.216  0.2305  0.0385 -0.6558
  192POPC  H14C22130   1.441   3.090   6.099 -0.2714 -1.6550 -0.2282
  192POPC   C1522131   1.202   2.952   6.282 -0.5806 -0.4776  0.0690
  192POPC  H15A22132   1.124   2.985   6.215  0.1080 -1.2954 -1.1760
  192POPC  H15B22133   1.213   3.027   6.359  2.9928  0.5681 -1.2454
  192POPC  H15C22134   1.185   2.853   6.323  1.9963 -0.8263  0.4495
  192POPC   C1122135   1.271   2.704   6.113 -0.3239 -0.6134 -0.7202
  192POPC  H11A22136   1.242   2.650   6.021 -2.7269  0.6523 -0.7717
  192POPC  H11B22137   1.182   2.711   6.179  0.6943  1.4583  0.5473
  192POPC     P22138   1.509   2.599   6.099 -0.2182  0.2723 -0.3093
  192POPC   O1322139   1.627   2.687   6.121  0.3665 -0.3602  0.1350
  192POPC   O1422140   1.470   2.561   5.961  0.1458 -0.2878 -0.0494
  192POPC   O1222141   1.382   2.641   6.182  0.2164 -0.1777 -0.3397
  192POPC   O1122142   1.552   2.464   6.164  0.1445  0.0985  0.0310
  192POPC    C122143   1.480   2.341   6.138  0.3666  0.2582  0.0755
  192POPC    HA22144   1.546   2.252   6.136 -0.6441 -0.4882 -0.4377
  192POPC    HB22145   1.423   2.339   6.043  1.6381 -0.4657 -0.7067
  192POPC    C222146   1.369   2.317   6.251 -0.1189  0.0945  0.3411
  192POPC    HS22147   1.291   2.394   6.234 -0.2453 -0.4354 -1.8964
  192POPC   O2122148   1.450   2.335   6.375  0.5208 -0.1643  0.0924
  192POPC   C2122149   1.367   2.329   6.481  0.6593 -0.7061  0.5288
  192POPC   O2222150   1.245   2.346   6.480 -0.6908 -0.2387  0.4278
  192POPC   C2222151   1.452   2.316   6.603 -0.3107  0.3131  0.0962
  192POPC   H2R22152   1.554   2.306   6.561 -0.8306 -0.0906 -1.1448
  192POPC   H2S22153   1.431   2.219   6.652 -1.2034 -0.3437 -1.5129
  192POPC    C322154   1.303   2.178   6.235 -0.0342 -0.6596  0.7631
  192POPC    HX22155   1.264   2.174   6.131 -1.6448  0.6877  1.2624
  192POPC    HY22156   1.217   2.181   6.306 -0.3009  0.7438  0.4214
  192POPC   O3122157   1.391   2.070   6.274  0.6741  0.4170  0.0823
  192POPC   C3122158   1.330   1.962   6.294 -0.0297 -0.4709  0.7131
  192POPC   O3222159   1.210   1.946   6.288  0.2899  0.0843 -0.0780
  192POPC   C3222160   1.431   1.856   6.334  0.4209 -0.1349  0.4301
  192POPC   H2X22161   1.514   1.893   6.399  1.3416  0.2164 -0.9024
  192POPC   H2Y22162   1.485   1.816   6.246  0.6779 -0.6412  0.8105
  192POPC   C2322163   1.451   2.430   6.704  0.4665 -0.0055 -0.5925
  192POPC   H3R22164   1.349   2.439   6.745  0.8677 -2.1507  1.0573
  192POPC   H3S22165   1.473   2.523   6.648  1.7188 -0.8159 -1.5217
  192POPC   C2422166   1.555   2.419   6.823 -0.2319  0.6684 -0.2655
  192POPC   H4R22167   1.552   2.521   6.865 -1.7104  1.0632 -1.2542
  192POPC   H4S22168   1.662   2.394   6.802 -0.3783 -1.2187  0.9507
  192POPC   C2522169   1.510   2.312   6.926 -0.3599 -0.2233 -0.5588
  192POPC   H5R22170   1.534   2.213   6.882 -0.2313 -0.5273  0.1823
  192POPC   H5S22171   1.401   2.328   6.942 -0.3317  1.3396 -1.7648
  192POPC   C2622172   1.570   2.326   7.062 -0.0011  0.0929  0.5642
  192POPC   H6R22173   1.493   2.274   7.123 -0.6579  0.3912 -0.0039
  192POPC   H6S22174   1.583   2.433   7.091  2.0241  0.8495 -2.6011
  192POPC   C2722175   1.707   2.256   7.083  0.0192 -0.1611  0.1106
  192POPC   H7R22176   1.784   2.332   7.111  0.5486 -0.9810  0.9343
  192POPC   H7S22177   1.733   2.215   6.983 -1.1587  0.3325 -0.4126
  192POPC   C2822178   1.725   2.154   7.190  0.1071  0.1430 -0.0644
  192POPC   H8R22179   1.835   2.141   7.200  0.4781  1.8775 -1.3657
  192POPC   H8S22180   1.686   2.055   7.159  1.0766  0.0179 -0.9556
  192POPC   C2922181   1.665   2.204   7.322  0.4089 -0.1415  0.8531
  192POPC   H9122182   1.564   2.243   7.304  0.3252 -1.1358 -1.0849
  192POPC  C21022183   1.716   2.216   7.448 -0.5239 -0.3087  0.4565
  192POPC  H10122184   1.654   2.255   7.529  0.9891  1.8268  0.6733
  192POPC  C21122185   1.856   2.181   7.487  0.2364  0.3053 -0.1949
  192POPC  H11R22186   1.917   2.223   7.404 -0.5124 -0.1126 -0.9846
  192POPC  H11S22187   1.872   2.071   7.485  2.3197  0.4669  2.2611
  192POPC  C21222188   1.905   2.252   7.617  0.2068  0.3357 -0.4470
  192POPC  H12R22189   1.883   2.359   7.636  3.4091  0.7482  1.7585
  192POPC  H12S22190   2.015   2.246   7.610  0.2157 -0.7705  0.3392
  192POPC  C21322191   1.858   2.167   7.739  0.0745 -0.3898  0.3191
  192POPC  H13R22192   1.888   2.062   7.721  1.5095  0.0482  0.0290
  192POPC  H13S22193   1.750   2.177   7.761 -0.0027  4.3851 -1.2257
  192POPC  C21422194   1.928   2.207   7.870  0.2459  0.3198  0.1751
  192POPC  H14R22195   1.884   2.299   7.914 -0.3921 -0.7814  1.9674
  192POPC  H14S22196   2.029   2.244   7.845 -1.0545  3.4532 -0.8472
  192POPC  C21522197   1.928   2.100   7.981 -0.1191 -0.0497  0.2636
  192POPC  H15R22198   1.984   2.010   7.950  0.9721 -0.4482  3.1051
  192POPC  H15S22199   1.824   2.062   7.985  0.0480 -0.7008 -1.0545
  192POPC  C21622200   1.995   2.137   8.115 -0.0672  0.0685 -0.1900
  192POPC  H16R22201   1.923   2.217   8.142 -0.1584 -0.8934  2.6910
  192POPC  H16S22202   2.097   2.183   8.117  1.1077 -2.2625  3.5367
  192POPC  C21722203   1.996   2.019   8.213  0.6867 -0.0968 -0.6883
  192POPC  H17R22204   2.045   2.042   8.309 -2.9993  1.1977  1.0581
  192POPC  H17S22205   2.060   1.946   8.159  0.5999  0.2476 -1.2676
  192POPC  C21822206   1.870   1.949   8.242  0.2537 -0.3986  0.0702
  192POPC  H18R22207   1.796   2.023   8.278  0.4399 -0.7173  1.1445
  192POPC  H18S22208   1.875   1.875   8.325 -0.7397  0.1091  0.5969
  192POPC  H18T22209   1.838   1.900   8.148 -2.3682  1.5152 -0.1301
  192POPC   C3322210   1.363   1.736   6.410 -0.1578  0.4602  0.5539
  192POPC   H3X22211   1.438   1.661   6.442  1.1294  1.5491  0.2094
  192POPC   H3Y22212   1.294   1.685   6.340  1.0958 -0.3516 -0.1256
  192POPC   C3422213   1.286   1.768   6.543  0.1958 -0.6332  0.2130
  192POPC   H4X22214   1.238   1.681   6.593  2.1293 -1.0943  1.3717
  192POPC   H4Y22215   1.204   1.843   6.531  0.9406  0.4124  1.3809
  192POPC   C3522216   1.387   1.840   6.640  0.3980 -0.5420 -0.1052
  192POPC   H5X22217   1.411   1.941   6.600 -0.0110 -0.3040  0.2441
  192POPC   H5Y22218   1.478   1.776   6.642  1.3572  0.7481 -0.4911
  192POPC   C3622219   1.331   1.853   6.777 -0.6815 -0.2370  0.0140
  192POPC   H6X22220   1.308   1.755   6.825 -0.4724 -0.0474  0.5098
  192POPC   H6Y22221   1.241   1.919   6.776  0.2448  1.1444  1.8294
  192POPC   C3722222   1.447   1.911   6.860  0.2367 -0.1497 -0.2930
  192POPC   H7X22223   1.464   2.007   6.807 -0.5210  0.8407  1.1695
  192POPC   H7Y22224   1.535   1.843   6.854  0.9651  0.7195  0.2580
  192POPC   C3822225   1.413   1.943   7.005 -0.2903 -0.5329 -0.0058
  192POPC   H8X22226   1.309   1.984   7.009 -1.3456 -3.0726  2.3166
  192POPC   H8Y22227   1.474   2.022   7.054 -2.6455  1.4757 -0.1200
  192POPC   C3922228   1.409   1.825   7.106 -0.2215  0.0437  0.5275
  192POPC   H9X22229   1.340   1.742   7.079 -0.3841  0.3750 -0.0940
  192POPC   H9Y22230   1.375   1.876   7.199 -0.4836 -0.2517  0.5946
  192POPC  C31022231   1.551   1.768   7.148 -0.3674  0.6865 -0.0702
  192POPC  H10X22232   1.615   1.850   7.188  0.6953  0.4023 -1.1442
  192POPC  H10Y22233   1.593   1.721   7.057 -1.8132 -0.5381 -0.1399
  192POPC  C31122234   1.550   1.646   7.247 -0.0035  0.5144 -0.1929
  192POPC  H11X22235   1.657   1.616   7.258  1.2836  3.6552 -2.6206
  192POPC  H11Y22236   1.497   1.559   7.203 -2.8015  1.6276  0.7919
  192POPC  C31222237   1.477   1.668   7.379  0.9854  0.0645 -0.5442
  192POPC  H12X22238   1.460   1.576   7.439  0.1353 -0.0697 -0.9853
  192POPC  H12Y22239   1.372   1.697   7.358  0.4106 -0.4181  1.4616
  192POPC  C31322240   1.514   1.781   7.467 -0.0390 -0.2395 -0.6883
  192POPC  H13X22241   1.506   1.877   7.412 -0.6214  1.4105  2.1132
  192POPC  H13Y22242   1.621   1.772   7.496 -0.0339  0.0926 -0.5961
  192POPC  C31422243   1.424   1.794   7.596 -0.6786 -0.4701  0.0800
  192POPC  H14X22244   1.390   1.693   7.628 -0.3518 -0.5477  0.1916
  192POPC  H14Y22245   1.338   1.857   7.567 -0.1040  0.7636  0.9714
  192POPC  C31522246   1.477   1.868   7.720  0.3575  0.3645  0.5144
  192POPC  H15X22247   1.517   1.963   7.679  2.3698 -1.3858 -1.9366
  192POPC  H15Y22248   1.567   1.809   7.748  1.1983  1.0277 -0.6698
  192POPC  C31622249   1.390   1.900   7.843 -0.7276  0.0776 -0.0357
  192POPC  H16X22250   1.322   1.818   7.876  0.7403 -2.1720 -2.1694
  192POPC  H16Y22251   1.322   1.986   7.829  0.3293  1.3269  2.0908
  192POPC  H16Z22252   1.462   1.940   7.917 -0.3547  1.6675 -1.2110
  193SOD    SOD22253   3.686   5.340  12.547 -0.7819 -0.0631  0.1827
  194SOD    SOD22254   4.062   6.776  14.270  0.0196 -0.3082 -0.3752
  195SOD    SOD22255   5.619   4.642   2.759 -0.7434  0.6099 -0.6259
  196SOD    SOD22256   4.455   2.467  12.946 -0.1554  0.1832  0.1037
  197SOD    SOD22257   0.900   4.105  11.204  0.0437  0.2114  0.1262
  198SOD    SOD22258   1.635   6.233  13.351  0.1448  0.3676  0.1719
  199SOD    SOD22259   0.773   6.526  16.840  0.3785 -0.1360  0.2711
  200SOD    SOD22260   3.596   2.492  12.001  0.2734  0.1023  0.5673
  201SOD    SOD22261   1.705   6.131  10.747  0.7694 -0.5024  0.1232
  202SOD    SOD22262   5.852   1.187  12.370  0.2404 -0.0129 -0.1805
  203SOD    SOD22263   5.403   6.589  16.021 -0.0482 -0.0955 -0.5168
  204SOD    SOD22264   1.130   5.043  11.034 -0.1933 -0.2107  0.1497
  205SOD    SOD22265   5.823   1.324   3.254 -0.0190 -0.0856  0.2553
  206SOD    SOD22266   4.559   2.484   1.608  0.2978 -0.0429 -0.6418
  207SOD    SOD22267   1.692   5.758  11.327 -0.6869  0.2840  0.0132
  208SOD    SOD22268   1.460   1.483  15.853  0.0347 -0.4080 -0.0272
  209SOD    SOD22269   4.195   0.604   5.930 -0.5619 -0.3845  0.2137
  210SOD    SOD22270   4.215   1.535   6.119  0.2133 -0.1967  0.1253
  211SOD    SOD22271   5.782   3.787   6.168  0.6564 -0.1213  0.0727
  212SOD    SOD22272   1.537   4.895   6.582  0.0919 -0.8893  0.3673
  213SOD    SOD22273   1.864   5.611  13.392  0.2685 -0.0748 -0.2899
  214SOD    SOD22274   4.671   0.679  16.195  0.8925  0.3014  0.1554
  215SOD    SOD22275   3.942   4.231   1.672  0.4608  0.0911 -0.2147
  216SOD    SOD22276   4.870   5.990  16.079 -0.4912  0.4668  0.2438
  217SOD    SOD22277   4.368   1.896   4.454  0.3494  0.2214  0.4613
  218SOD    SOD22278   3.549   5.620  10.482  0.2508  0.2555  0.1664
  219SOD    SOD22279   1.478   5.074  15.256 -0.0450 -0.0476 -0.1021
  220SOD    SOD22280   3.962   1.583  16.146  0.3185 -0.0035  0.3326
  221SOD    SOD22281   0.881   0.374  15.310 -0.0421  0.0176  0.4155
  222SOD    SOD22282   0.748   3.583   5.683  0.5666 -0.3376 -0.4324
  223SOD    SOD22283   2.706   0.835   4.457  0.5005  0.3297  0.1758
  224SOD    SOD22284   5.322   6.277   4.141 -0.5885 -0.1891 -0.0823
  225SOD    SOD22285   4.381   5.126   0.358 -0.2523 -0.0632  0.1777
  226SOD    SOD22286   2.889   4.343   5.863 -0.0652  0.1606  0.4359
  227SOD    SOD22287   5.740   3.360   4.765 -0.4187  0.0719 -0.2450
  228SOD    SOD22288   4.711   4.920  11.796 -0.4003 -0.3810  0.3253
  229SOD    SOD22289   6.102   3.599   0.154  0.0718  0.5680  0.0597
  230SOD    SOD22290   4.965   1.051   1.068 -0.4351 -0.1751 -0.1639
  231SOD    SOD22291   0.574   2.109   3.633  0.2577  0.0008  0.0786
  232SOD    SOD22292   5.881   1.625   4.029 -0.3633  0.3276  0.0796
  233SOD    SOD22293   6.157   4.264  13.098 -0.3632  0.2809 -0.4522
  234SOD    SOD22294   3.956   1.798  13.918  0.3994 -0.2430 -0.0499
  235SOD    SOD22295   4.456   6.304  12.721 -0.3805 -0.4900  0.0143
  236SOD    SOD22296   5.738   3.583  11.292 -0.1577 -0.1440  0.3206
  237SOD    SOD22297   2.158   2.800   2.477 -0.0425 -0.1158  0.2846
  238SOD    SOD22298   2.763   6.025  10.493 -0.0623  0.0599 -0.1823
  239SOD    SOD22299   5.522   5.458  12.368 -0.0546 -0.3235 -0.6566
  240SOD    SOD22300   2.853   0.643   2.704  0.5110  0.4614  0.2002
  241SOD    SOD22301   1.409   3.505   6.061 -0.4030  0.1228 -0.3909
  242SOD    SOD22302   1.044   0.893  11.675  0.4455  0.0158  0.2138
  243SOD    SOD22303   6.309   2.189   5.855 -0.1309  0.0496 -0.4497
  244SOD    SOD22304   5.426   5.697   5.874 -0.2640  0.0785  0.2560
  245SOD    SOD22305   6.631   3.645  10.993 -0.3216 -0.1018 -0.3138
  246SOD    SOD22306   5.595   6.473   5.752  0.9847 -0.0214 -0.4584
  247SOD    SOD22307   5.710   0.958  16.713  0.0230  0.1401  0.1206
  248SOD    SOD22308   2.257   3.914  15.405 -0.1769 -0.0921 -0.0865
  249SOD    SOD22309   0.775   0.281  10.966 -0.0884  0.2066  0.4388
  250SOD    SOD22310   4.263   2.366   6.298  0.0695 -0.1845 -0.0392
  251SOD    SOD22311   1.492   6.700  12.511  0.6260  0.2214 -0.1091
  252SOD    SOD22312   4.411   5.747   6.173  0.2774 -0.5911 -0.2488
  253SOD    SOD22313   0.137   4.936   4.255 -0.1644 -0.0426 -0.5738
  254SOD    SOD22314   5.634   1.322  10.875  0.0902 -0.0450 -0.5183
  255SOD    SOD22315   1.999   4.257   6.367  0.5218 -0.2048  0.1020
  256SOD    SOD22316   6.527   3.574  14.420 -0.1731  0.2171  0.6157
  257SOD    SOD22317   1.638   1.565  13.216  0.3693 -0.0774 -0.4308
  258SOD    SOD22318   0.057   0.385  13.469  0.0149 -0.8372 -0.3078
  259SOD    SOD22319   0.897   3.412  14.044  0.0567  0.3186  0.0636
  260SOD    SOD22320   2.169   2.210  13.379  0.0422  0.0096 -0.2213
  261SOD    SOD22321   6.043   4.989   1.802  0.2909 -0.8531  0.1739
  262SOD    SOD22322   6.049   0.828  11.011 -0.3417  0.8635  0.4264
  263SOD    SOD22323   4.599   4.201   6.323  0.1897  0.3077 -0.1627
  264SOD    SOD22324   5.974   5.748  15.342  0.2528 -0.2894 -0.0776
  265SOD    SOD22325   1.619   1.776   1.871 -0.0240  0.0579  0.2551
  266SOD    SOD22326   4.879   6.316  14.787  0.3972  0.0995 -0.0405
  267SOD    SOD22327   3.958   4.742  12.080 -0.1076  0.2556  0.0733
  268SOD    SOD22328   5.716   2.089   6.444 -0.1362 -0.3137  0.1293
  269SOD    SOD22329   1.560   2.099  15.349 -0.0918  0.3747 -0.5969
  270CLA    CLA22330   0.102   4.263   3.831  0.0114  0.4982  0.3705
  271CLA    CLA22331   4.181   2.300  13.741  0.0347 -0.0622  0.0327
  272CLA    CLA22332   1.817   5.625  13.116  0.0847 -0.4805 -0.1953
  273CLA    CLA22333   6.441   2.548  14.638  0.1773  0.1104 -0.1961
  274CLA    CLA22334   4.668   5.350  16.928 -0.0192  0.3752 -0.2511
  275CLA    CLA22335   4.010   5.328  13.321 -0.0262  0.1095 -0.3473
  276CLA    CLA22336   5.421   4.250  15.518 -0.1493 -0.0629 -0.2198
  277CLA    CLA22337   5.729   5.916   3.022 -0.2981  0.4006  0.0646
  278CLA    CLA22338   0.314   6.417  15.906 -0.1856 -0.6436  0.0414
  279CLA    CLA22339   2.702   2.530   5.984 -0.1736  0.1561 -0.1556
  280CLA    CLA22340   6.471   4.589  12.110  0.3369 -0.1015  0.2129
  281CLA    CLA22341   1.463   4.572  13.803 -0.0173 -0.2174  0.0223
  282CLA    CLA22342   6.439   3.497  15.139  0.0989 -0.3645  0.3646
  283CLA    CLA22343   3.607   6.371   2.086  0.2381 -0.1334 -0.0592
  284CLA    CLA22344   3.405   1.947   3.062 -0.0934  0.3271  0.1621
  285CLA    CLA22345   1.756   5.843  15.319 -0.0734  0.1642  0.1208
  286CLA    CLA22346   5.702   0.690  15.666 -0.1770 -0.0476 -0.0472
  287CLA    CLA22347   5.953   2.949  11.741 -0.0135  0.5609  0.0144
  288CLA    CLA22348   3.266   4.206   5.600  0.3949 -0.4027  0.0074
  289CLA    CLA22349   0.440   6.737  16.501 -0.4103  0.1171 -0.1060
  290CLA    CLA22350   5.909   4.473  11.492 -0.1768  0.3187  0.0706
  291CLA    CLA22351   4.179   0.186   4.914  0.1656  0.1941 -0.0440
  292CLA    CLA22352   4.702   0.078  13.097  0.2768 -0.1821 -0.1445
  293CLA    CLA22353   3.097   6.760   3.834 -0.2966  0.5676  0.1342
  294CLA    CLA22354   0.895   1.401  13.212 -0.2320  0.1193 -0.2740
  295CLA    CLA22355   2.687   1.936   0.320  0.5407  0.0631  0.1624
  296CLA    CLA22356   2.090   2.153  15.697 -0.2489 -0.4090 -0.3692
  297CLA    CLA22357   4.362   6.638   3.117  0.4553 -0.1174  0.1336
  298CLA    CLA22358   1.693   6.256  16.686 -0.1677  0.5798  0.0903
  299CLA    CLA22359   6.317   3.004   0.970  0.1505  0.1805 -0.0165
  300CLA    CLA22360   6.083   0.477  12.424 -0.0631 -0.3256  0.2006
  301CLA    CLA22361   4.703   5.989  12.948  0.4250 -0.1841  0.1420
  302CLA    CLA22362   4.059   2.496  14.415 -0.2667 -0.3109 -0.3891
  303CLA    CLA22363   5.662   0.706   2.899  0.0858 -0.5603  0.1620
  304CLA    CLA22364   5.113   0.118   5.273  0.1112  0.1816  0.1263
  305CLA    CLA22365   5.065   0.693  11.679 -0.0389 -0.3823 -0.3774
  306CLA    CLA22366   4.071   6.636  16.255  0.3931 -0.4204  0.0813
  307CLA    CLA22367   2.302   4.430   4.630  0.3676  0.5882  0.2287
  308CLA    CLA22368   3.594   2.814   3.213 -0.1081 -0.1400  0.0630
  309CLA    CLA22369   1.545   6.033   4.404 -0.2583 -0.2644  0.1266
  310CLA    CLA22370   6.284   2.141  11.090 -0.3245 -0.1032  0.0002
  311CLA    CLA22371   3.610   0.780  11.222  0.0737  0.2926 -0.0101
  312CLA    CLA22372   0.066   2.654   3.345  0.3044 -0.3276 -0.6306
  313CLA    CLA22373   3.260   0.104   1.215  0.3052  0.0507  0.0894
  314CLA    CLA22374   1.052   2.976  14.089  0.0810 -0.4302  0.2649
  315CLA    CLA22375   5.540   1.612   1.496 -0.0171  0.2686 -0.1579
  316CLA    CLA22376   4.848   1.770  16.531 -0.0110 -0.1695 -0.0959
  317CLA    CLA22377   3.836   4.425  13.020 -0.3413 -0.0319 -0.0335
  318CLA    CLA22378   1.486   6.168  11.190 -0.1395  0.0220 -0.1470
  319CLA    CLA22379   4.340   0.864  16.516  0.4316  0.1292  0.1148
  320CLA    CLA22380   0.730   5.763   0.463 -0.5542  0.2723  0.0286
  321CLA    CLA22381   4.239   5.685  16.693 -0.0078 -0.1138 -0.0031
  322CLA    CLA22382   6.793   1.081  13.159 -0.2976  0.2935  0.2434
  323TIP3   OH222383   5.927   3.819   2.313 -0.3192  0.6445  0.3526
  323TIP3    H122384   6.000   3.835   2.253 -0.5546 -1.4511 -0.5764
  323TIP3    H222385   5.914   3.903   2.358  2.5818  1.1041  0.5117
  324TIP3   OH222386   1.609   3.186  12.829  0.1064  0.6150  0.0503
  324TIP3    H122387   1.542   3.123  12.802  0.4386  1.4452 -3.0575
  324TIP3    H222388   1.686   3.132  12.849 -0.7312 -0.1756  1.2350
  325TIP3   OH222389   5.420   6.494   2.847  0.3554 -0.3371 -0.1518
  325TIP3    H122390   5.377   6.494   2.762  0.2968  0.1527 -0.1258
  325TIP3    H222391   5.438   6.586   2.866 -0.3371 -0.3663  0.7201
  326TIP3   OH222392   1.169   2.714   4.772  0.6727  0.1052  0.5095
  326TIP3    H122393   1.178   2.627   4.733 -0.5132  0.5914 -0.9511
  326TIP3    H222394   1.224   2.711   4.850  1.3997 -1.6432 -0.0154
  327TIP3   OH222395   2.991   0.108  14.725 -0.6410  0.5620  0.3181
  327TIP3    H122396   2.978   0.059  14.806 -0.8383 -0.9655 -0.5957
  327TIP3    H222397   2.946   0.191  14.740 -1.1912  0.0705  1.5438
  328TIP3   OH222398   6.039   2.335   1.015 -0.4875  0.2146  0.2628
  328TIP3    H122399   6.042   2.381   1.099 -0.2609 -1.1197  1.0291
  328TIP3    H222400   5.999   2.250   1.036  1.3477 -0.9179 -0.5679
  329TIP3   OH222401   1.867   3.920   1.920 -0.5200  0.0449 -1.2156
  329TIP3    H122402   1.953   3.921   1.879 -0.0287 -1.8493 -0.3416
  329TIP3    H222403   1.816   3.983   1.870  1.2971  1.0436 -1.8975
  330TIP3   OH222404   5.330   1.684   3.988 -0.0744  0.2547  0.1636
  330TIP3    H122405   5.351   1.718   3.901 -2.6056  0.2381 -0.5202
  330TIP3    H222406   5.282   1.754   4.031 -2.5087 -1.1739 -0.0521
  331TIP3   OH222407   1.482   0.893  10.510  0.2151 -0.7470  0.1546
  331TIP3    H122408   1.506   0.810  10.553 -0.0748 -1.2957 -0.7161
  331TIP3    H222409   1.565   0.927  10.476  0.4950 -0.1712  1.3345
  332TIP3   OH222410   3.351   1.111  11.496  0.2189  0.1172  0.1931
  332TIP3    H122411   3.407   1.048  11.543  0.2580 -0.8030 -1.0382
  332TIP3    H222412   3.314   1.165  11.565  0.4955 -1.0104  1.2740
  333TIP3   OH222413   6.185   3.595  15.302 -0.1518  0.0007  0.4800
  333TIP3    H122414   6.266   3.571  15.257 -0.6859  0.5161 -0.8039
  333TIP3    H222415   6.116   3.582  15.237 -1.2248 -1.1338  1.7714
  334TIP3   OH222416   4.111   2.376  13.460 -0.4992  0.0031  0.0227
  334TIP3    H122417   4.129   2.378  13.553 -0.7824  0.0883  0.0771
  334TIP3    H222418   4.161   2.301  13.427  0.2863  0.4929  0.0946
  335TIP3   OH222419   4.053   2.790  13.585  0.0240 -0.2290 -0.6739
  335TIP3    H122420   4.096   2.789  13.500  3.3740 -1.2279  0.8612
  335TIP3    H222421   4.050   2.882  13.610  1.5017 -0.1275 -0.7935
  336TIP3   OH222422   0.753   3.282   4.682  0.2404  0.1482 -0.2397
  336TIP3    H122423   0.701   3.203   4.671  1.9877 -1.3096  1.2106
  336TIP3    H222424   0.722   3.319   4.765  0.1786  0.3998 -0.3723
  337TIP3   OH222425   4.040   2.640   4.404  0.1793  0.0896  0.5272
  337TIP3    H122426   4.043   2.642   4.309 -3.3326 -3.6924  0.0566
  337TIP3    H222427   3.965   2.695   4.427  0.5598  0.3927  1.0730
  338TIP3   OH222428   1.047   3.486  15.544  0.2728 -0.1178  0.1784
  338TIP3    H122429   1.126   3.433  15.549  0.7519  0.4872 -0.7579
  338TIP3    H222430   1.074   3.573  15.574  0.1578  0.2910 -0.8742
  339TIP3   OH222431   6.280   0.824  14.036 -0.7114  0.8532 -0.5861
  339TIP3    H122432   6.288   0.734  14.004  0.7211  0.2913  1.1861
  339TIP3    H222433   6.336   0.875  13.978 -1.2397  0.5646 -1.3700
  340TIP3   OH222434   5.811   6.591   4.504 -0.3444 -0.1189 -0.6030
  340TIP3    H122435   5.819   6.648   4.428 -0.3669 -0.0125 -0.5258
  340TIP3    H222436   5.719   6.597   4.530  0.1301  1.6998  0.8603
  341TIP3   OH222437   2.542   0.057  11.548 -0.1461 -0.1099  0.0292
  341TIP3    H122438   2.530   0.106  11.467  2.8072  0.8357  0.0244
  341TIP3    H222439   2.572  -0.030  11.518 -1.8254 -0.7429  0.1061
  342TIP3   OH222440   6.672   3.018   1.705 -0.1025 -0.7842  0.8943
  342TIP3    H122441   6.746   2.958   1.714  1.8979  0.9985 -1.9186
  342TIP3    H222442   6.628   2.990   1.625 -2.2051 -1.4463  2.2185
  343TIP3   OH222443   6.169   3.846   3.927 -0.1531  0.5729  0.0383
  343TIP3    H122444   6.124   3.833   4.011 -0.6616  1.4788 -0.0788
  343TIP3    H222445   6.132   3.778   3.870  0.0318  0.0927  0.4819
  344TIP3   OH222446   3.774   2.137   4.186 -0.0530 -0.1477 -0.3993
  344TIP3    H122447   3.718   2.145   4.108 -1.0098  0.6948  0.3459
  344TIP3    H222448   3.795   2.043   4.190 -1.2922 -0.4674 -0.7943
  345TIP3   OH222449   5.174   0.249   4.615  0.0586  0.0454 -0.5602
  345TIP3    H122450   5.246   0.311   4.621  0.4306 -0.4823  0.8876
  345TIP3    H222451   5.123   0.264   4.695  0.4553 -1.8471  0.0888
  346TIP3   OH222452   4.798   3.687  16.183 -0.5302  0.6926 -0.3410
  346TIP3    H122453   4.708   3.692  16.215 -0.1792  1.9471  0.5079
  346TIP3    H222454   4.816   3.772  16.144 -0.1875 -0.0520 -1.8946
  347TIP3   OH222455   4.626   4.925   5.022  0.1750  0.2255  0.5111
  347TIP3    H122456   4.711   4.966   5.035  0.2525  0.2567 -0.0563
  347TIP3    H222457   4.645   4.844   4.975  0.0083 -0.4077  1.5168
  348TIP3   OH222458   5.285   2.487  14.437  0.1314  0.0370  0.0514
  348TIP3    H122459   5.209   2.443  14.399  1.3764 -2.1783 -0.0856
  348TIP3    H222460   5.353   2.480  14.370  1.3035 -0.7431  1.2712
  349TIP3   OH222461   5.634   4.136  14.026  0.1990 -0.2464  0.0805
  349TIP3    H122462   5.569   4.148  14.095  0.9054  0.3832  0.6559
  349TIP3    H222463   5.715   4.169  14.064  0.5106  0.5603 -1.2383
  350TIP3   OH222464   6.452   0.052  12.513  0.3800  0.5554 -0.4329
  350TIP3    H122465   6.520   0.012  12.458  0.5153  2.4287 -1.7214
  350TIP3    H222466   6.450   0.144  12.486 -0.6456  1.2096  1.6552
  351TIP3   OH222467   2.022   0.596  12.980 -0.7608 -0.1650  0.2541
  351TIP3    H122468   2.053   0.506  12.991 -2.6756 -0.9335 -0.2320
  351TIP3    H222469   2.026   0.634  13.067  2.1786  0.0667  0.1216
  352TIP3   OH222470   4.416   1.654   1.503  0.2599  0.2253 -0.5609
  352TIP3    H122471   4.344   1.681   1.446  1.4981  2.9941 -0.9518
  352TIP3    H222472   4.462   1.586   1.454 -1.5203 -0.9479 -0.6828
  353TIP3   OH222473   0.071   3.043   4.414  0.6916 -0.0905 -0.9687
  353TIP3    H122474   0.145   3.101   4.431  2.5788 -1.9952 -2.2026
  353TIP3    H222475  -0.006   3.099   4.421  2.1799  1.8935  0.7841
  354TIP3   OH222476   1.418   0.680   6.015 -0.4308 -0.1879  0.2561
  354TIP3    H122477   1.365   0.654   6.091 -0.3529  1.0006  0.7315
  354TIP3    H222478   1.464   0.759   6.043 -0.3772  0.2634 -1.0177
  355TIP3   OH222479   6.158   0.567  16.869  0.1870  0.4967 -0.3092
  355TIP3    H122480   6.140   0.510  16.794  1.8572  0.4868 -0.7423
  355TIP3    H222481   6.214   0.514  16.926 -1.4499  0.3350  1.1993
  356TIP3   OH222482   5.128   1.772   2.598 -0.1083  1.1926 -0.4565
  356TIP3    H122483   5.110   1.679   2.611  0.2798  1.2445  0.5266
  356TIP3    H222484   5.188   1.795   2.669  0.8918  1.8774 -1.4957
  357TIP3   OH222485   6.783   6.265  11.836 -0.4948 -0.1952  0.4700
  357TIP3    H122486   6.805   6.340  11.780 -0.9701 -0.5594 -0.2117
  357TIP3    H222487   6.773   6.192  11.775 -0.0824 -0.8073  1.1274
  358TIP3   OH222488   3.296   2.154   1.189 -0.5554  0.1846  0.1053
  358TIP3    H122489   3.223   2.212   1.168 -1.4122 -0.4111  1.3034
  358TIP3    H222490   3.309   2.164   1.283  2.4729  1.9859 -0.3886
  359TIP3   OH222491   1.280   6.055   0.197  0.5435 -0.1718  0.8120
  359TIP3    H122492   1.319   6.001   0.128  1.0954  0.7340  0.4073
  359TIP3    H222493   1.192   6.019   0.208  0.5442 -0.4980 -0.1741
  360TIP3   OH222494   2.625   3.611  16.500  0.2244  0.1718  0.1995
  360TIP3    H122495   2.575   3.547  16.552  1.2384  0.3346  1.4189
  360TIP3    H222496   2.644   3.564  16.418  0.4264 -0.8821  0.8239
  361TIP3   OH222497   4.275   2.086  15.394  0.1307 -0.4406  0.4673
  361TIP3    H122498   4.250   2.050  15.479  2.4830 -0.1838  1.3526
  361TIP3    H222499   4.204   2.061  15.335 -1.1605 -1.3479  2.3237
  362TIP3   OH222500   6.014   3.092  12.571 -0.3884 -0.0519  0.2410
  362TIP3    H122501   6.019   2.997  12.577  1.4399  0.0649  1.1268
  362TIP3    H222502   5.978   3.119  12.655 -4.1118 -0.0465 -1.1399
  363TIP3   OH222503   0.090   0.639   0.231  0.3841  0.2355  0.2865
  363TIP3    H122504   0.048   0.566   0.276  0.0452 -0.8062 -1.6157
  363TIP3    H222505   0.149   0.597   0.167  0.8351  1.6333 -0.2544
  364TIP3   OH222506   3.409   0.510  13.950  0.2569 -0.5709 -0.9957
  364TIP3    H122507   3.386   0.417  13.956 -1.8217 -0.0580 -0.0220
  364TIP3    H222508   3.503   0.512  13.961  0.5355 -2.6523 -2.3146
  365TIP3   OH222509   3.829   5.648   2.628  0.0411 -0.6736 -0.3696
  365TIP3    H122510   3.923   5.629   2.639  0.3620  0.2080 -1.4468
  365TIP3    H222511   3.786   5.566   2.651  1.0105 -0.8299  1.0378
  366TIP3   OH222512   1.425   1.407  13.722 -0.4455  0.0966 -0.1136
  366TIP3    H122513   1.397   1.422  13.812 -0.0841  1.1604 -0.1618
  366TIP3    H222514   1.493   1.340  13.728 -0.6522 -0.0742  0.3613
  367TIP3   OH222515   6.030   2.500  11.577  0.5034 -0.0484 -0.1287
  367TIP3    H122516   6.031   2.496  11.673 -0.0466  2.5268  0.0491
  367TIP3    H222517   6.091   2.570  11.556 -0.9365  0.8482 -1.5250
  368TIP3   OH222518   5.986   2.159   4.402  0.5350  0.6003 -0.0589
  368TIP3    H122519   5.972   2.115   4.486 -1.1020  1.7491  0.3293
  368TIP3    H222520   6.081   2.160   4.390  0.7203 -4.0079 -0.6722
  369TIP3   OH222521   6.029   0.035  14.386  0.8493  0.3091  0.4454
  369TIP3    H122522   6.079  -0.011  14.454  1.0608  0.9789  0.7538
  369TIP3    H222523   6.096   0.077  14.332  0.7087 -0.6956 -0.5400
  370TIP3   OH222524   6.569   0.233  13.199 -0.9625 -0.6261 -0.6217
  370TIP3    H122525   6.621   0.156  13.178  1.1355  0.9348 -1.5152
  370TIP3    H222526   6.543   0.219  13.290  1.1324 -1.4757 -0.0798
  371TIP3   OH222527   4.788   1.334   4.633  1.0864 -0.0306  0.4122
  371TIP3    H122528   4.835   1.416   4.648 -0.9619  1.0394  1.5367
  371TIP3    H222529   4.765   1.303   4.721  0.0063 -0.6553 -0.0680
  372TIP3   OH222530   4.628   5.924   5.571  0.0027 -0.4828  0.2832
  372TIP3    H122531   4.690   5.853   5.554  0.5940 -0.2431  1.3524
  372TIP3    H222532   4.681   6.004   5.565  0.2571 -0.3587  2.8921
  373TIP3   OH222533   0.080   0.674  15.214  0.2364 -0.4014  0.4845
  373TIP3    H122534   0.012   0.625  15.260 -0.1310 -0.9882 -0.6635
  373TIP3    H222535   0.159   0.620  15.225  0.5077  0.2093  1.6932
  374TIP3   OH222536   6.651   3.552  11.435 -0.3158  0.3854  0.1027
  374TIP3    H122537   6.625   3.546  11.343 -0.2667  1.9231 -0.0338
  374TIP3    H222538   6.570   3.541  11.484 -0.0583 -2.8146  0.0370
  375TIP3   OH222539   1.022   3.375   2.305 -0.3376  0.5019  0.3851
  375TIP3    H122540   1.018   3.404   2.395  0.7598  0.1396  0.5762
  375TIP3    H222541   1.114   3.351   2.292 -1.0328 -2.3167  0.0918
  376TIP3   OH222542   0.609   4.979  11.262  0.0524 -0.7081  0.3832
  376TIP3    H122543   0.661   4.900  11.245  1.0042  0.0116 -0.1068
  376TIP3    H222544   0.605   5.024  11.178  0.7637  0.4966  0.9648
  377TIP3   OH222545   2.375   1.472   3.728  0.2501 -0.1759  0.1144
  377TIP3    H122546   2.440   1.413   3.691 -0.8992 -1.7601  0.5125
  377TIP3    H222547   2.378   1.550   3.673 -0.4446 -1.8834 -2.4837
  378TIP3   OH222548   6.703   5.831  16.553  0.3205 -0.0249 -0.2136
  378TIP3    H122549   6.627   5.775  16.568  0.9798 -1.3394 -1.5349
  378TIP3    H222550   6.673   5.896  16.490  0.3932 -0.8152 -1.0825
  379TIP3   OH222551   5.405   1.466  14.591  0.2008  0.1977 -0.2113
  379TIP3    H122552   5.418   1.389  14.534  3.3149  0.8879 -0.6315
  379TIP3    H222553   5.376   1.535  14.532 -0.7003 -0.1517 -0.1832
  380TIP3   OH222554   2.937   1.672   6.532 -0.5365  0.4994  0.4084
  380TIP3    H122555   2.976   1.630   6.455 -2.8205 -0.0966 -0.5019
  380TIP3    H222556   2.843   1.658   6.522 -0.9591  0.9835  3.0031
  381TIP3   OH222557   6.739   3.717  11.795  0.3792  0.5047  0.2044
  381TIP3    H122558   6.716   3.777  11.866  0.5221 -0.3014  0.9560
  381TIP3    H222559   6.729   3.630  11.834  2.8924  0.0554  0.0306
  382TIP3   OH222560   1.075   5.202  16.979 -0.0332 -0.9461 -0.7610
  382TIP3    H122561   1.005   5.161  17.030  1.3289  0.5537  2.6634
  382TIP3    H222562   1.032   5.272  16.930 -1.1905 -1.3380 -0.3322
  383TIP3   OH222563   2.750   4.630   2.908 -0.4237 -0.2268 -0.3128
  383TIP3    H122564   2.761   4.546   2.863 -1.2519 -0.0408 -0.8924
  383TIP3    H222565   2.662   4.625   2.946 -0.0693 -0.0278  0.5564
  384TIP3   OH222566   1.382   4.709   0.448  0.0237 -0.1329 -1.0166
  384TIP3    H122567   1.312   4.765   0.413 -0.7025  0.9685  1.9003
  384TIP3    H222568   1.442   4.770   0.491  0.3781 -1.4066  0.3605
  385TIP3   OH222569   1.043   6.238  16.969 -0.0262  0.3931 -0.4939
  385TIP3    H122570   0.974   6.208  17.028 -0.1778 -0.0380 -0.8836
  385TIP3    H222571   1.117   6.258  17.026  0.3740 -1.5218 -0.2643
  386TIP3   OH222572   1.413   1.843  15.690 -0.2981 -0.8137  0.3120
  386TIP3    H122573   1.350   1.901  15.648 -0.8524  0.1035  2.2752
  386TIP3    H222574   1.359   1.776  15.731  0.1948 -1.4587 -0.0804
  387TIP3   OH222575   4.250   5.279  16.329  0.5849  0.3382  0.2241
  387TIP3    H122576   4.306   5.331  16.271 -0.3581  1.0831 -0.0297
  387TIP3    H222577   4.260   5.319  16.415 -1.1971  1.8953 -0.2101
  388TIP3   OH222578   5.996   4.055   0.902  0.3377  0.0038 -0.0663
  388TIP3    H122579   5.938   4.011   0.840  0.1886 -0.1962  0.2143
  388TIP3    H222580   6.084   4.040   0.867  0.5629 -2.8362  1.3801
  389TIP3   OH222581   4.821   0.230   5.364 -0.0974  0.0393  0.2495
  389TIP3    H122582   4.816   0.313   5.317 -0.0905  0.7597  1.4742
  389TIP3    H222583   4.913   0.205   5.358  0.2345  0.9444  1.2028
  390TIP3   OH222584   0.254   2.270   3.325 -0.3839 -0.1000 -0.5835
  390TIP3    H122585   0.277   2.282   3.418 -3.8941  0.6622  0.3162
  390TIP3    H222586   0.290   2.347   3.282 -1.9390  1.5508  0.8987
  391TIP3   OH222587   3.802   4.787  11.198 -0.4552 -0.0662 -0.6734
  391TIP3    H122588   3.806   4.701  11.157 -0.4801 -1.5539  2.2091
  391TIP3    H222589   3.891   4.821  11.193  0.0530 -1.2398  0.0221
  392TIP3   OH222590   0.757   6.654  13.673 -0.0100  0.2773  0.4686
  392TIP3    H122591   0.792   6.618  13.591  0.3174 -3.3692  2.0071
  392TIP3    H222592   0.670   6.614  13.681 -1.2102  2.7650  0.6578
  393TIP3   OH222593   3.085   4.218  17.143  0.0820  0.1686  0.0861
  393TIP3    H122594   3.105   4.158  17.215  2.4656  1.5552  0.6756
  393TIP3    H222595   3.011   4.270  17.175 -0.3791 -0.7618  0.5744
  394TIP3   OH222596   5.129   5.269  15.852 -0.4245  0.3929  0.0841
  394TIP3    H122597   5.201   5.215  15.820  0.9963  1.7836  0.8033
  394TIP3    H222598   5.060   5.206  15.874  0.8259 -1.0410  0.0781
  395TIP3   OH222599   1.744   2.759  12.016 -0.2811 -0.1708 -0.3673
  395TIP3    H122600   1.751   2.664  12.004 -1.9717 -0.2025 -1.4588
  395TIP3    H222601   1.752   2.795  11.928  0.1865  0.7098  0.0179
  396TIP3   OH222602   2.092   6.711  16.126  0.2655 -0.3286 -0.4166
  396TIP3    H122603   2.187   6.694  16.122 -0.0140 -1.9419 -1.1810
  396TIP3    H222604   2.060   6.651  16.192 -0.0730  1.2591  0.9297
  397TIP3   OH222605   1.396   1.008  15.704 -0.1906  0.3061  0.0646
  397TIP3    H122606   1.394   1.095  15.664 -1.0741 -0.1675 -0.9968
  397TIP3    H222607   1.487   0.994  15.727  0.5120  0.3968 -2.3776
  398TIP3   OH222608   1.694   5.687   5.770  0.2836  0.2715  0.1511
  398TIP3    H122609   1.665   5.754   5.708  0.4301  1.9748  1.8445
  398TIP3    H222610   1.768   5.645   5.726 -1.0598 -0.2110 -1.7882
  399TIP3   OH222611   5.306   6.466   6.137  0.7857  0.1340  0.5112
  399TIP3    H122612   5.323   6.436   6.227  2.3542 -0.1871  0.1408
  399TIP3    H222613   5.273   6.388   6.092 -0.9713  0.5343  1.0086
  400TIP3   OH222614   2.522   3.851   4.693 -0.6647  0.3402  0.0392
  400TIP3    H122615   2.455   3.880   4.755  0.0197  1.3629  0.3242
  400TIP3    H222616   2.525   3.919   4.627 -1.4344 -0.7795 -1.2022
  401TIP3   OH222617   0.883   6.084  11.053  0.0877 -0.1061 -0.1546
  401TIP3    H122618   0.954   6.143  11.081  1.6415 -1.5412 -0.9070
  401TIP3    H222619   0.821   6.141  11.007  1.4352  0.9827 -0.6967
  402TIP3   OH222620   6.492   2.774  13.626  0.5556 -0.2441 -0.3904
  402TIP3    H122621   6.439   2.767  13.547 -2.0623 -0.6959  1.3119
  402TIP3    H222622   6.508   2.684  13.652  1.3717 -0.0932 -0.3370
  403TIP3   OH222623   0.660   0.098  16.651 -0.1061 -0.4870 -0.1754
  403TIP3    H122624   0.698   0.148  16.579  0.5361 -2.2133 -1.1143
  403TIP3    H222625   0.580   0.060  16.614 -1.1086  0.5928  0.8204
  404TIP3   OH222626   6.795   2.070   3.462 -0.3138 -0.2850  0.0722
  404TIP3    H122627   6.794   2.157   3.421 -2.0241 -0.4309 -0.2528
  404TIP3    H222628   6.703   2.048   3.475  0.0806 -2.0636  0.1501
  405TIP3   OH222629   1.022   1.168   5.187  0.2925  0.1666  0.0541
  405TIP3    H122630   1.041   1.077   5.161  0.7661  0.0363  0.8246
  405TIP3    H222631   1.108   1.208   5.196  0.0677  1.0109 -1.3210
  406TIP3   OH222632   2.935   2.702   3.156  0.1792  0.5757  0.0350
  406TIP3    H122633   2.891   2.785   3.171  1.0918  0.7611  1.9642
  406TIP3    H222634   2.933   2.657   3.240  1.1236 -0.6465 -0.5534
  407TIP3   OH222635   4.323   2.949  12.761  0.3612  0.1657  0.3350
  407TIP3    H122636   4.397   2.916  12.811  0.5945 -0.1544 -0.2123
  407TIP3    H222637   4.362   2.990  12.684 -0.0685 -1.1300 -0.6083
  408TIP3   OH222638   4.080   0.949  15.399  0.5090  0.5020  0.3249
  408TIP3    H122639   4.118   0.862  15.390  0.8512  0.7630 -1.0607
  408TIP3    H222640   3.986   0.935  15.391  0.5497  0.2426  0.2965
  409TIP3   OH222641   6.049   3.793  13.720  0.0192  0.5017 -0.1375
  409TIP3    H122642   6.023   3.708  13.754  1.6632  0.5499  1.3679
  409TIP3    H222643   5.990   3.855  13.762 -0.7456  0.2013 -0.7300
  410TIP3   OH222644   0.975   5.965  14.620 -0.2697 -0.0819 -0.1813
  410TIP3    H122645   0.947   5.929  14.536  1.7630 -2.1985 -0.0560
  410TIP3    H222646   0.941   5.903  14.685 -0.3548  0.5871  0.4238
  411TIP3   OH222647   3.525   3.491   4.795 -0.7113 -0.5250  0.2567
  411TIP3    H122648   3.551   3.477   4.704 -1.0920 -0.8486  0.1953
  411TIP3    H222649   3.550   3.581   4.814 -0.2657 -0.5848 -0.0439
  412TIP3   OH222650   1.087   6.506  16.318  0.3075  0.2911 -0.0390
  412TIP3    H122651   1.070   6.437  16.382 -0.1721 -1.3001 -1.7970
  412TIP3    H222652   1.010   6.563  16.323 -0.0445 -0.2100  0.2975
  413TIP3   OH222653   2.941   3.702  12.241 -0.3986  0.0793 -0.0360
  413TIP3    H122654   3.022   3.688  12.193 -1.4261  0.6831 -2.0683
  413TIP3    H222655   2.922   3.617  12.281  2.5891  0.5895  2.8861
  414TIP3   OH222656   2.741   6.740  14.400 -0.4874  0.2652 -0.0333
  414TIP3    H122657   2.803   6.724  14.472 -2.2797 -0.7254  1.3700
  414TIP3    H222658   2.797   6.760  14.325  1.5997 -1.8101  0.8414
  415TIP3   OH222659   4.660   5.332   6.314 -0.1158 -0.1208  0.1010
  415TIP3    H122660   4.739   5.351   6.363  1.5414  0.1462 -2.5139
  415TIP3    H222661   4.690   5.290   6.234 -2.5729  0.6427 -1.3344
  416TIP3   OH222662   1.076   6.793  12.542  0.3908  0.3477  0.3454
  416TIP3    H122663   1.005   6.739  12.578  1.5548  0.7144  3.5133
  416TIP3    H222664   1.041   6.882  12.542  0.6733  0.4821  1.6047
  417TIP3   OH222665   2.021   0.997   3.182 -0.0084 -0.1029  0.0523
  417TIP3    H122666   2.097   0.963   3.135  0.2370  1.3020 -0.6237
  417TIP3    H222667   2.031   1.092   3.177 -2.4140  0.1688 -1.1014
  418TIP3   OH222668   4.039   6.347  14.048 -0.0970  0.2704 -0.1352
  418TIP3    H122669   4.036   6.255  14.074  0.3265  0.0079 -0.9663
  418TIP3    H222670   3.955   6.361  14.004 -0.2168  0.3191  0.1077
  419TIP3   OH222671   6.400   6.049  16.198  0.3927  0.1560 -0.6901
  419TIP3    H122672   6.471   5.985  16.196  1.5121  1.3821 -1.2764
  419TIP3    H222673   6.371   6.056  16.107  0.0983  0.3051 -0.5875
  420TIP3   OH222674   5.497   3.038  13.006  0.2535  0.5955 -0.1844
  420TIP3    H122675   5.427   3.057  13.067 -1.3274 -1.2920 -1.2800
  420TIP3    H222676   5.488   3.105  12.938  0.0087  0.8351  0.0812
  421TIP3   OH222677   4.422   4.014   4.467  0.1644 -0.0842 -0.5524
  421TIP3    H122678   4.499   3.964   4.442 -0.0079 -0.2990 -0.6509
  421TIP3    H222679   4.351   3.950   4.469  0.2364 -0.1542  0.8243
  422TIP3   OH222680   6.630   1.512   4.289  0.0229 -0.5360 -0.1301
  422TIP3    H122681   6.632   1.485   4.197 -0.9588  0.1359 -0.3614
  422TIP3    H222682   6.621   1.430   4.337  0.2564 -0.8735 -0.6518
  423TIP3   OH222683   4.694   4.711   4.871  0.2827 -0.2264  0.3643
  423TIP3    H122684   4.759   4.671   4.930 -0.9310 -2.6742  0.1738
  423TIP3    H222685   4.659   4.637   4.821 -1.1671  1.3209 -1.0194
  424TIP3   OH222686   3.815   6.733   3.510 -0.2577 -0.1659  0.1110
  424TIP3    H122687   3.833   6.707   3.600  2.6039 -0.0267 -0.3281
  424TIP3    H222688   3.893   6.782   3.483 -2.0224  1.8732 -1.7083
  425TIP3   OH222689   5.319   1.474   2.193 -0.4754 -0.6460 -0.4542
  425TIP3    H122690   5.415   1.479   2.192 -0.5111  2.8571  1.1326
  425TIP3    H222691   5.295   1.457   2.102  1.6150  1.1664 -1.4286
  426TIP3   OH222692   3.964   3.780   1.797 -0.1677  0.4468  0.3530
  426TIP3    H122693   3.991   3.737   1.878  0.9334  0.8707  0.2364
  426TIP3    H222694   4.041   3.775   1.740 -0.4148  1.4695 -0.1040
  427TIP3   OH222695   6.549   4.493   3.220  0.0548  0.5045  0.3592
  427TIP3    H122696   6.458   4.476   3.196 -0.3333  2.6700  0.1036
  427TIP3    H222697   6.596   4.495   3.137  0.9440 -3.1020  0.5787
  428TIP3   OH222698   1.249   2.539   4.994 -0.5512  0.4852  0.6126
  428TIP3    H122699   1.336   2.529   5.034  0.1783  1.8837 -0.5579
  428TIP3    H222700   1.188   2.515   5.064  0.7510  0.2022  1.6937
  429TIP3   OH222701   2.597   4.576  11.976  0.5332 -0.0624 -0.2405
  429TIP3    H122702   2.665   4.575  12.043  0.0297 -0.1193  0.2735
  429TIP3    H222703   2.515   4.584  12.024  0.1712  0.0348 -0.8556
  430TIP3   OH222704   2.677   0.904   4.233 -0.4796  0.2205  0.3204
  430TIP3    H122705   2.605   0.912   4.170 -0.6195  1.9479  0.6484
  430TIP3    H222706   2.754   0.890   4.179 -0.4936  2.3556 -0.3428
  431TIP3   OH222707   1.471   3.151   0.416 -0.2229  0.1309 -0.3670
  431TIP3    H122708   1.443   3.176   0.504 -1.7589  2.7549 -1.5079
  431TIP3    H222709   1.566   3.165   0.416 -0.3205  0.8505  0.6336
  432TIP3   OH222710   1.426   4.041  16.139  0.1776 -0.3805 -0.0979
  432TIP3    H122711   1.366   4.061  16.068 -0.5811 -0.0513  0.6107
  432TIP3    H222712   1.502   4.097  16.123  0.3025 -0.7939 -1.0014
  433TIP3   OH222713   6.036   2.078  12.213  0.1804  0.1774  0.4547
  433TIP3    H122714   6.036   1.991  12.254  0.6237 -0.6019 -1.1294
  433TIP3    H222715   6.129   2.101  12.205  0.0782  0.5928  0.4235
  434TIP3   OH222716   2.551   0.680  10.634 -0.4526 -0.5471 -0.1080
  434TIP3    H122717   2.597   0.749  10.586 -0.4918  0.3514  1.1046
  434TIP3    H222718   2.552   0.605  10.574  2.1472 -0.4301 -0.3107
  435TIP3   OH222719   5.946   6.264  13.795 -0.4409  0.0228 -0.3821
  435TIP3    H122720   5.928   6.220  13.712 -1.1522  0.9451 -0.7341
  435TIP3    H222721   5.991   6.345  13.770 -1.6893  0.8662  0.0275
  436TIP3   OH222722   2.872   2.838   6.594 -0.3152  0.1972 -0.3255
  436TIP3    H122723   2.790   2.816   6.638 -1.5455  3.9486 -0.3993
  436TIP3    H222724   2.920   2.891   6.658  0.3672  1.1138 -1.5489
  437TIP3   OH222725   6.551   0.264  17.076 -0.0146 -0.2106  0.6585
  437TIP3    H122726   6.627   0.268  17.133 -0.1088 -0.0568  0.7781
  437TIP3    H222727   6.575   0.204  17.006  1.0328  1.4670 -0.4969
  438TIP3   OH222728   0.751   1.656  13.793  0.2357 -0.4996  0.1966
  438TIP3    H122729   0.683   1.613  13.742 -0.3039 -0.4561  0.8579
  438TIP3    H222730   0.834   1.622  13.758 -0.0913  0.0203 -1.1323
  439TIP3   OH222731   5.760   5.206   2.829  0.0347 -0.1291 -0.2501
  439TIP3    H122732   5.833   5.202   2.768 -0.1632 -2.8580 -0.4407
  439TIP3    H222733   5.686   5.236   2.776  0.7281  1.6442 -0.2875
  440TIP3   OH222734   3.414   4.968  14.751  0.0638 -0.3061 -0.4962
  440TIP3    H122735   3.356   4.893  14.738 -0.5323  0.3637 -1.9544
  440TIP3    H222736   3.471   4.968  14.675  0.1104  0.6547 -0.4766
  441TIP3   OH222737   5.287   3.404   5.055 -0.0727  0.4161  0.6841
  441TIP3    H122738   5.215   3.374   5.000 -0.0676 -1.0565  1.4449
  441TIP3    H222739   5.246   3.462   5.119 -0.7942 -1.2204  1.7643
  442TIP3   OH222740   4.201   4.014  13.098 -0.0334 -0.1057  0.2274
  442TIP3    H122741   4.202   4.092  13.043  0.4324 -1.0023 -1.0937
  442TIP3    H222742   4.125   3.964  13.068  0.6018 -0.9141 -0.0507
  443TIP3   OH222743   2.310   5.009   0.404  0.7290  0.4052  0.3065
  443TIP3    H122744   2.344   5.058   0.328 -0.8435  0.0899 -0.6527
  443TIP3    H222745   2.272   4.930   0.366 -0.0833  0.2330  1.4457
  444TIP3   OH222746   0.051   5.104   4.377 -0.0937 -0.2689 -0.0237
  444TIP3    H122747  -0.020   5.167   4.361  0.4330  0.6650  1.1579
  444TIP3    H222748   0.036   5.074   4.467  1.0135 -0.0563  0.2358
  445TIP3   OH222749   2.609   5.524   1.201  0.1328 -0.3277 -0.6653
  445TIP3    H122750   2.575   5.437   1.218  2.5775 -1.2061  0.2261
  445TIP3    H222751   2.654   5.517   1.117 -1.9590  0.8658 -1.9517
  446TIP3   OH222752   3.144   4.281   1.068 -0.2101  0.0831  0.5241
  446TIP3    H122753   3.237   4.272   1.090 -0.5444 -0.4207  1.8254
  446TIP3    H222754   3.099   4.274   1.152 -1.5793 -1.8055 -0.2991
  447TIP3   OH222755   4.017   2.956  16.815  0.2233  0.4889 -0.1023
  447TIP3    H122756   4.064   2.875  16.793 -0.3177 -0.1657  1.0972
  447TIP3    H222757   4.086   3.022  16.820  0.7612 -0.0367 -0.4026
  448TIP3   OH222758   0.525   1.976   0.423  0.3848  0.3555 -0.2432
  448TIP3    H122759   0.589   1.946   0.358  0.8963 -0.3682  0.5678
  448TIP3    H222760   0.446   1.926   0.403  0.1710  0.9829 -1.0178
  449TIP3   OH222761   4.375   0.330  14.832  0.3585  0.5308  0.3753
  449TIP3    H122762   4.397   0.423  14.832  0.2887  0.5504  0.8175
  449TIP3    H222763   4.446   0.289  14.783  0.3838  0.8176  0.1690
  450TIP3   OH222764   2.184   5.157  11.112  0.1771 -0.1487 -0.2266
  450TIP3    H122765   2.098   5.198  11.101  0.8354  2.3071  2.4186
  450TIP3    H222766   2.164   5.066  11.136 -1.5227 -0.3576 -2.1319
  451TIP3   OH222767   5.158   4.423  14.726  0.2351  0.3785 -0.6624
  451TIP3    H122768   5.086   4.363  14.744  1.7372 -1.3468 -0.1084
  451TIP3    H222769   5.230   4.392  14.781  1.3542  2.1937 -0.9876
  452TIP3   OH222770   5.203   6.530  15.906 -0.3168 -0.0104  0.1918
  452TIP3    H122771   5.137   6.462  15.918 -2.5958  2.0103 -0.2124
  452TIP3    H222772   5.168   6.585  15.836  2.6878  0.1912 -1.2947
  453TIP3   OH222773   3.432   0.056   2.616 -0.4093 -0.1778  0.0046
  453TIP3    H122774   3.467  -0.028   2.586 -0.3425 -0.9046  1.9758
  453TIP3    H222775   3.386   0.035   2.698 -0.9595  1.6110  0.1965
  454TIP3   OH222776   3.565   5.090   4.346  0.3251 -0.2628  1.0175
  454TIP3    H122777   3.495   5.032   4.315  1.4683 -1.4286  0.5094
  454TIP3    H222778   3.635   5.030   4.373  2.3425  0.8603 -1.3275
  455TIP3   OH222779   5.848   6.742  13.288  0.5813 -0.1812  0.2053
  455TIP3    H122780   5.767   6.732  13.239  1.4437 -1.0343 -1.1178
  455TIP3    H222781   5.820   6.760  13.378 -1.0433  0.5927 -0.4221
  456TIP3   OH222782   2.680   1.037  16.435 -0.3275  0.3179 -0.2318
  456TIP3    H122783   2.754   1.014  16.490 -0.6888 -0.8237 -0.2052
  456TIP3    H222784   2.618   1.080  16.494 -0.3633 -0.1647  0.0860
  457TIP3   OH222785   0.211   3.279   3.819  0.3994 -0.0838 -0.1215
  457TIP3    H122786   0.148   3.214   3.850 -1.0805  0.4741 -1.7927
  457TIP3    H222787   0.245   3.319   3.898 -0.7861 -0.9368  0.8591
  458TIP3   OH222788   2.495   0.115  11.813 -0.6262  0.9048 -0.2272
  458TIP3    H122789   2.531   0.084  11.730 -1.5599 -0.4712 -0.1483
  458TIP3    H222790   2.565   0.170  11.850 -0.6097  2.4591 -2.3877
  459TIP3   OH222791   0.968   6.748   0.156 -0.4175 -0.1656  0.4601
  459TIP3    H122792   1.047   6.696   0.168 -0.0621 -0.0391 -1.1564
  459TIP3    H222793   0.963   6.803   0.233 -0.2329 -1.8322  1.7221
  460TIP3   OH222794   6.241   2.788   0.635  0.0001 -0.3645  0.0976
  460TIP3    H122795   6.235   2.707   0.584 -1.4792 -0.7522  0.8151
  460TIP3    H222796   6.283   2.762   0.717  0.5740 -0.1533 -0.1249
  461TIP3   OH222797   3.665   5.048  10.599  0.4756 -0.4544  0.4092
  461TIP3    H122798   3.618   5.028  10.680  1.3876  1.6816  1.5695
  461TIP3    H222799   3.735   4.984  10.594  0.0240 -0.9985  0.9587
  462TIP3   OH222800   6.135   3.007  15.985 -0.3828  0.0672 -0.6418
  462TIP3    H122801   6.062   3.041  15.933 -0.2189  1.0174 -0.2747
  462TIP3    H222802   6.095   2.943  16.044 -0.7894  0.0220 -0.9609
  463TIP3   OH222803   3.034   0.270  15.833 -0.0961 -0.1136  0.2952
  463TIP3    H122804   2.954   0.236  15.792 -0.0345 -1.0455  0.9243
  463TIP3    H222805   3.070   0.196  15.880  0.4525  0.6407  1.0874
  464TIP3   OH222806   2.278   0.639   5.899 -0.3743 -0.3834  0.3898
  464TIP3    H122807   2.297   0.546   5.886 -0.0650 -0.0913 -1.5792
  464TIP3    H222808   2.191   0.640   5.938 -0.2279 -1.5054  0.7904
  465TIP3   OH222809   5.313   3.126  12.741 -0.0628  0.6209 -0.1647
  465TIP3    H122810   5.254   3.053  12.759  1.7991 -0.6262  1.1983
  465TIP3    H222811   5.355   3.104  12.658  1.4702 -0.6030  0.8805
  466TIP3   OH222812   2.283   1.077  12.829  0.3690 -0.0858 -0.1382
  466TIP3    H122813   2.250   1.166  12.819 -0.9849 -0.5565  0.0095
  466TIP3    H222814   2.238   1.026  12.761  0.2544 -0.8831  0.5144
  467TIP3   OH222815   5.318   2.822  13.981  0.3699 -0.5220 -0.4395
  467TIP3    H122816   5.408   2.795  13.961  0.5021 -0.8045  0.4714
  467TIP3    H222817   5.322   2.856  14.070 -0.2874  0.1911 -0.6729
  468TIP3   OH222818   5.105   3.446   5.645 -0.1023 -0.1250 -0.4128
  468TIP3    H122819   5.031   3.507   5.638  0.4860  0.4835 -1.6514
  468TIP3    H222820   5.130   3.428   5.555  1.7726  0.3047 -0.0202
  469TIP3   OH222821   3.079   3.758  15.526 -0.1497 -0.0137 -0.2802
  469TIP3    H122822   3.156   3.739  15.580  1.5614  0.3262 -2.4503
  469TIP3    H222823   3.115   3.776  15.439 -2.7217  0.0733 -1.4071
  470TIP3   OH222824   2.619   1.155  11.381 -0.0396 -0.1371 -0.8228
  470TIP3    H122825   2.712   1.177  11.371  0.7547 -2.8345 -0.1841
  470TIP3    H222826   2.597   1.107  11.301 -1.5201  2.1201 -1.8846
  471TIP3   OH222827   0.892   5.601  13.749 -0.3940 -0.1561 -0.3433
  471TIP3    H122828   0.932   5.640  13.671 -0.1254  0.3708  0.0517
  471TIP3    H222829   0.938   5.642  13.823  1.3508 -2.6887  0.1003
  472TIP3   OH222830   5.961   2.405   3.719  0.4363 -0.2023 -0.1029
  472TIP3    H122831   5.911   2.477   3.680 -1.5545 -1.7515 -0.6036
  472TIP3    H222832   6.045   2.407   3.675 -0.0785  0.9908 -1.0812
  473TIP3   OH222833   2.482   4.395  12.824 -0.7429  0.1823 -0.1942
  473TIP3    H122834   2.410   4.350  12.868  0.4441 -0.7865  0.8651
  473TIP3    H222835   2.559   4.374  12.877  0.2916  1.3406 -1.1723
  474TIP3   OH222836   4.724   4.226   3.709  0.7017  0.3943  0.1986
  474TIP3    H122837   4.720   4.134   3.686  1.1092  0.1790  0.9458
  474TIP3    H222838   4.763   4.269   3.633 -1.6939  0.3349 -1.1468
  475TIP3   OH222839   1.938   3.485  10.664  0.2257 -0.1320  0.2632
  475TIP3    H122840   1.992   3.499  10.742  0.4082 -1.1512  0.3294
  475TIP3    H222841   1.881   3.413  10.688 -0.9005  0.6688  0.0415
  476TIP3   OH222842   4.258   5.695   3.237 -0.7083  0.2033  0.3909
  476TIP3    H122843   4.166   5.721   3.242 -1.2034 -1.6167  1.4600
  476TIP3    H222844   4.256   5.601   3.218  0.8806 -0.1616  1.7989
  477TIP3   OH222845   0.481   2.756   5.404  0.0621 -0.2572 -0.3501
  477TIP3    H122846   0.463   2.783   5.494 -1.9466  0.6259 -0.9553
  477TIP3    H222847   0.522   2.833   5.364  1.4805 -0.8411 -0.0853
  478TIP3   OH222848   2.371   0.671  14.522 -0.4816 -0.7412 -0.1565
  478TIP3    H122849   2.284   0.674  14.561 -0.3517 -1.2441  0.1865
  478TIP3    H222850   2.409   0.590  14.556  0.3785 -0.1764  0.2682
  479TIP3   OH222851   6.762   1.641   0.833  0.2186 -0.5883  0.4949
  479TIP3    H122852   6.678   1.595   0.844  0.2009 -0.5427  0.5510
  479TIP3    H222853   6.742   1.712   0.773  0.4164 -1.1008 -0.1821
  480TIP3   OH222854   1.632   3.207  14.857 -0.2098 -0.2630  0.0184
  480TIP3    H122855   1.705   3.158  14.895 -0.0250  0.6374  0.9004
  480TIP3    H222856   1.556   3.182  14.910 -0.2544 -0.1307  0.0169
  481TIP3   OH222857   2.168   5.809   3.051  0.8927 -0.6164  0.1590
  481TIP3    H122858   2.130   5.879   2.997 -1.8912 -2.0361  0.0843
  481TIP3    H222859   2.095   5.751   3.069  1.9889 -1.0479  4.2601
  482TIP3   OH222860   3.093   3.933   1.243 -0.1741  0.1141  0.2181
  482TIP3    H122861   3.016   3.877   1.234 -0.7628  0.6831  1.4924
  482TIP3    H222862   3.142   3.894   1.316  1.4393 -0.9909 -1.3745
  483TIP3   OH222863   2.491   4.846  14.223  0.5369  0.0249 -0.2425
  483TIP3    H122864   2.574   4.808  14.194  0.4958  0.5474 -1.0676
  483TIP3    H222865   2.453   4.779  14.281  0.9615 -0.7293 -0.8197
  484TIP3   OH222866   3.550   2.875   5.599  0.5679 -0.3373 -0.0161
  484TIP3    H122867   3.522   2.850   5.511  0.7634 -0.7210  0.0289
  484TIP3    H222868   3.630   2.926   5.585 -0.3360  1.0844 -0.1700
  485TIP3   OH222869   2.711   5.458   1.780  0.3798 -0.1321  0.7188
  485TIP3    H122870   2.777   5.432   1.844 -1.7061 -2.9263  1.9263
  485TIP3    H222871   2.687   5.377   1.735 -1.5453  0.9356 -0.3041
  486TIP3   OH222872   2.772   1.163   2.401 -0.2474 -0.4030 -0.8401
  486TIP3    H122873   2.743   1.092   2.344  0.1125 -1.1467 -0.1230
  486TIP3    H222874   2.859   1.135   2.432  0.2002  0.6696 -1.0758
  487TIP3   OH222875   0.626   1.532  14.028 -0.0888 -0.6067  0.1570
  487TIP3    H122876   0.685   1.589  13.978 -0.8134  0.2049  0.2056
  487TIP3    H222877   0.541   1.541  13.985  0.0723 -2.8216 -0.7635
  488TIP3   OH222878   3.978   4.695  12.949 -0.2087 -0.0570  0.7249
  488TIP3    H122879   4.022   4.640  12.885  0.6751  0.8085  0.5678
  488TIP3    H222880   3.919   4.635  12.996 -0.4481 -0.8101 -0.4974
  489TIP3   OH222881   1.986   0.512   3.571 -0.2192 -0.2706  0.4877
  489TIP3    H122882   1.996   0.599   3.532 -0.7129 -0.2216  0.4714
  489TIP3    H222883   1.894   0.506   3.594 -0.5086 -1.3661 -0.8519
  490TIP3   OH222884   0.893   2.729   6.082 -0.0429 -0.3662 -0.3184
  490TIP3    H122885   0.911   2.709   5.990  2.7534  0.9300 -0.1691
  490TIP3    H222886   0.830   2.663   6.109 -1.9151 -0.0446 -3.4591
  491TIP3   OH222887   1.161   1.695   2.632 -0.3478  0.0743 -0.3978
  491TIP3    H122888   1.113   1.642   2.697  2.1765 -0.9880  0.7395
  491TIP3    H222889   1.229   1.739   2.683  2.2450 -1.4146 -2.3613
  492TIP3   OH222890   0.840   5.827   3.696  0.1608 -0.4834  0.1993
  492TIP3    H122891   0.860   5.910   3.741  1.2588 -1.0253  0.7454
  492TIP3    H222892   0.773   5.786   3.751 -1.6162  0.7509 -0.9406
  493TIP3   OH222893   4.845   6.602  16.117  0.1971 -0.0488  0.0917
  493TIP3    H122894   4.770   6.651  16.152 -0.4129 -0.2751 -0.8958
  493TIP3    H222895   4.889   6.665  16.059  0.5573 -0.0459  0.3603
  494TIP3   OH222896   5.402   4.348   3.334  0.2829  0.3102 -0.5099
  494TIP3    H122897   5.377   4.378   3.246  1.3234 -0.9588 -1.2763
  494TIP3    H222898   5.491   4.380   3.346 -0.2011  1.3230  0.5170
  495TIP3   OH222899   1.691   1.895  14.318  0.0695  0.4980  0.1319
  495TIP3    H122900   1.716   1.918  14.408  0.7502 -0.4808  0.2098
  495TIP3    H222901   1.664   1.803  14.324 -0.9711  0.7552 -0.4673
  496TIP3   OH222902   0.436   0.729  16.907  0.0567 -0.2874  0.5269
  496TIP3    H122903   0.359   0.708  16.960 -0.3393 -0.4282 -0.0873
  496TIP3    H222904   0.455   0.647  16.860  1.3099 -0.6059  1.5622
  497TIP3   OH222905   4.931   4.219  14.865  0.4269  0.6254 -0.1433
  497TIP3    H122906   4.853   4.274  14.878 -0.9527 -1.6003  1.8679
  497TIP3    H222907   4.915   4.174  14.782 -0.5726  0.0230  0.3620
  498TIP3   OH222908   5.902   1.517  10.364  0.0790 -0.2910 -0.1559
  498TIP3    H122909   5.980   1.478  10.401  0.1378  0.5031  0.5928
  498TIP3    H222910   5.829   1.468  10.403  0.1902 -0.7094 -0.4751
  499TIP3   OH222911   0.088   4.547  16.196 -0.2991  0.1700 -0.1433
  499TIP3    H122912   0.160   4.484  16.200  0.6108  1.1961  0.2449
  499TIP3    H222913   0.033   4.516  16.125  1.7867  0.6107 -2.0816
  500TIP3   OH222914   2.733   5.224  12.223 -0.0590  0.4981 -0.2278
  500TIP3    H122915   2.714   5.162  12.293 -1.7115  1.8191  0.5707
  500TIP3    H222916   2.798   5.180  12.168 -1.1123 -1.8878  0.3316
  501TIP3   OH222917   0.582   3.230  16.631  0.7125 -0.2604 -0.5133
  501TIP3    H122918   0.579   3.320  16.663  1.3186 -0.4119 -0.0188
  501TIP3    H222919   0.671   3.219  16.599  0.1663 -0.1501 -2.1897
  502TIP3   OH222920   1.704   5.477   6.191  0.3578 -1.0553 -0.1317
  502TIP3    H122921   1.795   5.481   6.221  1.2975 -1.8716 -2.5753
  502TIP3    H222922   1.701   5.399   6.135 -1.9005 -1.1113 -0.0193
  503TIP3   OH222923   0.116   3.677  15.339  0.3034 -0.1797 -0.3341
  503TIP3    H122924   0.158   3.598  15.305  0.4357 -1.2181  2.0275
  503TIP3    H222925   0.094   3.655  15.429 -0.5206  2.1873  0.1123
  504TIP3   OH222926   0.736   0.317  11.553 -0.4293  0.0046 -0.0425
  504TIP3    H122927   0.677   0.253  11.513 -1.7699  1.2083 -0.0744
  504TIP3    H222928   0.788   0.350  11.480 -0.2658 -0.4996 -0.1555
  505TIP3   OH222929   3.421   1.408   3.719 -0.2542 -0.7792  0.2660
  505TIP3    H122930   3.466   1.396   3.802 -1.5459  0.2602  1.1683
  505TIP3    H222931   3.401   1.319   3.689  0.8024 -1.1835  0.7234
  506TIP3   OH222932   0.239   1.850  15.225  0.1114 -0.4554 -0.7126
  506TIP3    H122933   0.178   1.923  15.213 -0.8300 -1.1901 -0.4887
  506TIP3    H222934   0.310   1.886  15.278 -0.9609 -0.0360  0.4658
  507TIP3   OH222935   4.270   1.248   1.695  0.6163 -0.4110 -0.1503
  507TIP3    H122936   4.238   1.234   1.606  0.2075  0.5990 -0.1753
  507TIP3    H222937   4.192   1.246   1.749  0.5130  1.6070 -0.1562
  508TIP3   OH222938   6.659   0.649  14.379  0.1961 -0.2183  0.2940
  508TIP3    H122939   6.740   0.599  14.386  0.6309  0.5204  0.6406
  508TIP3    H222940   6.677   0.731  14.424  0.2612  1.2271 -2.1954
  509TIP3   OH222941   2.618   3.809  16.069 -0.5052 -0.0618 -0.9031
  509TIP3    H122942   2.544   3.809  16.130  0.2252 -1.2936  0.0223
  509TIP3    H222943   2.684   3.754  16.111  0.4266 -0.0868 -2.3366
  510TIP3   OH222944   6.274   0.437  15.246 -0.3090 -0.0998  0.1658
  510TIP3    H122945   6.242   0.441  15.155 -0.3079  0.0187  0.1714
  510TIP3    H222946   6.224   0.504  15.292 -0.8264 -0.6442  0.4095
  511TIP3   OH222947   3.211   1.138   2.074  0.1007 -0.0805  0.9242
  511TIP3    H122948   3.271   1.195   2.024  0.4743 -0.8414  0.4961
  511TIP3    H222949   3.255   1.053   2.077 -1.3072 -0.8828 -0.0778
  512TIP3   OH222950   5.628   1.685  15.911  0.0640 -0.1562  0.1961
  512TIP3    H122951   5.657   1.760  15.858 -2.2849  1.3848  0.9127
  512TIP3    H222952   5.567   1.723  15.974 -0.4315 -2.5655  1.2755
  513TIP3   OH222953   2.269   1.457  12.103  0.0644 -0.1307 -0.0211
  513TIP3    H122954   2.349   1.462  12.051  0.2028 -0.5325  0.1511
  513TIP3    H222955   2.279   1.525  12.170  0.9724 -1.2216  0.9849
  514TIP3   OH222956   6.729   4.483   1.556  0.5943 -0.2867  0.2021
  514TIP3    H122957   6.790   4.486   1.631 -0.0276 -1.7097  0.7850
  514TIP3    H222958   6.656   4.540   1.583  0.5578 -0.4763  0.5057
  515TIP3   OH222959   3.024   5.631  14.565 -0.1056 -0.5282 -0.2305
  515TIP3    H122960   3.077   5.561  14.526  0.4230  0.0572 -0.5607
  515TIP3    H222961   2.958   5.584  14.617  1.6463 -1.2734  1.4475
  516TIP3   OH222962   2.405   5.198  13.186 -0.1441 -0.4049 -0.4234
  516TIP3    H122963   2.311   5.192  13.199 -0.1950  0.2534 -0.4363
  516TIP3    H222964   2.443   5.181  13.272 -0.3037 -0.1072 -0.2925
  517TIP3   OH222965   5.437   1.450  17.061  0.3016  0.2350 -0.6065
  517TIP3    H122966   5.445   1.534  17.106  0.0732  0.1204 -0.3497
  517TIP3    H222967   5.488   1.461  16.981  0.9155  0.3605 -0.2061
  518TIP3   OH222968   5.236   0.326   3.487  0.1222  0.0966 -0.1701
  518TIP3    H122969   5.325   0.330   3.522  0.0048 -2.5935  0.6638
  518TIP3    H222970   5.180   0.317   3.564 -0.7144  0.0423 -0.7678
  519TIP3   OH222971   6.505   6.176   4.977  0.0490 -0.0980  0.3089
  519TIP3    H122972   6.463   6.100   5.015 -0.3235  0.4139  0.9506
  519TIP3    H222973   6.578   6.195   5.036 -1.0321  1.2040  1.3029
  520TIP3   OH222974   6.411   1.786  15.358 -0.6608  0.5358 -0.5707
  520TIP3    H122975   6.349   1.724  15.318 -0.6756  0.9875 -1.2579
  520TIP3    H222976   6.488   1.783  15.301 -0.2635  0.4086 -0.0424
  521TIP3   OH222977   4.029   5.160   1.312 -0.1380 -0.5140 -0.3245
  521TIP3    H122978   4.027   5.123   1.400 -1.0550  0.0874 -0.0828
  521TIP3    H222979   4.116   5.201   1.305 -0.6408  0.8434  0.9026
  522TIP3   OH222980   4.139   4.578  13.597 -0.1788 -0.1915 -0.1317
  522TIP3    H122981   4.120   4.604  13.507  0.5945 -0.8935 -0.5119
  522TIP3    H222982   4.216   4.629  13.621  0.1937 -0.7124 -0.2108
  523TIP3   OH222983   0.477   0.247   5.011  0.0635  0.2536 -0.4827
  523TIP3    H122984   0.483   0.167   4.960  2.2634 -1.0868  1.6760
  523TIP3    H222985   0.567   0.277   5.020 -0.4158  1.3326  1.2093
  524TIP3   OH222986   6.458   0.516  14.520 -0.3449 -0.0954  0.0241
  524TIP3    H122987   6.527   0.552  14.463 -0.5092 -2.1785 -1.5942
  524TIP3    H222988   6.387   0.580  14.515  0.5813  0.9703 -0.0830
  525TIP3   OH222989   4.792   5.111  11.896 -0.2197 -0.1024  0.2933
  525TIP3    H122990   4.848   5.136  11.970  1.1808 -0.5355 -0.5817
  525TIP3    H222991   4.822   5.167  11.825 -0.6844 -0.5797 -0.2825
  526TIP3   OH222992   5.080   2.382   1.201 -0.1146 -0.3424 -0.2517
  526TIP3    H122993   5.120   2.454   1.250 -0.7274 -0.5545  0.5784
  526TIP3    H222994   5.083   2.307   1.261 -0.9080 -0.5953 -0.5145
  527TIP3   OH222995   4.237   5.002   4.135  0.6385  0.2038  0.3814
  527TIP3    H122996   4.328   5.032   4.136  0.5720  0.4617  1.7848
  527TIP3    H222997   4.205   5.024   4.223 -0.2012 -1.6256  0.5595
  528TIP3   OH222998   2.478   5.364   0.447  0.4335  0.6713 -0.4326
  528TIP3    H122999   2.390   5.337   0.423  0.5100  0.1658 -0.1513
  528TIP3    H223000   2.536   5.305   0.399  0.5890 -0.1933  0.7959
  529TIP3   OH223001   2.128   0.845  15.049  0.4417 -0.5013  0.2184
  529TIP3    H123002   2.170   0.803  14.975  0.6133 -1.2580  0.7390
  529TIP3    H223003   2.097   0.773  15.104  1.6132  0.0125  1.6254
  530TIP3   OH223004   1.739   6.329   1.194  0.5610 -0.0428 -0.3585
  530TIP3    H123005   1.824   6.373   1.184  0.7602 -0.4460 -0.4397
  530TIP3    H223006   1.732   6.273   1.117  1.0164 -1.3603  0.5401
  531TIP3   OH223007   6.482   5.449   5.060 -0.4015 -0.1296  0.3064
  531TIP3    H123008   6.569   5.454   5.019 -0.3160 -0.7939  0.4064
  531TIP3    H223009   6.467   5.538   5.094 -0.3789  0.3764 -0.9492
  532TIP3   OH223010   2.771   2.667   1.691 -0.3441 -0.1611 -0.2567
  532TIP3    H123011   2.810   2.738   1.743  2.1952 -1.1983 -0.6174
  532TIP3    H223012   2.710   2.624   1.752 -0.6633  1.2662  0.4807
  533TIP3   OH223013   1.544   4.741  14.077 -0.2092  0.2844  0.4769
  533TIP3    H123014   1.623   4.771  14.032 -0.0347 -0.4171  0.3000
  533TIP3    H223015   1.504   4.679  14.015 -2.2849  2.4975 -0.5674
  534TIP3   OH223016   4.307   1.468  12.745  1.5624 -0.6705  0.4361
  534TIP3    H123017   4.337   1.541  12.691 -0.0520 -0.9817 -0.9623
  534TIP3    H223018   4.294   1.396  12.683 -0.5970 -0.9694  1.1730
  535TIP3   OH223019   0.321   2.396  15.480 -0.7753  0.5699  0.2668
  535TIP3    H123020   0.248   2.456  15.498 -0.7471  0.7108 -0.0859
  535TIP3    H223021   0.392   2.454  15.451 -0.9214  0.3161 -0.6202
  536TIP3   OH223022   4.478   4.219   2.528  0.3168 -0.4490 -0.3196
  536TIP3    H123023   4.484   4.308   2.494 -0.3983  0.0975  0.9316
  536TIP3    H223024   4.539   4.169   2.474  2.2324  1.1809  0.2102
  537TIP3   OH223025   6.592   0.343  15.305  0.1758 -0.4915 -0.1325
  537TIP3    H123026   6.652   0.271  15.287  0.1610 -0.2597 -1.1807
  537TIP3    H223027   6.550   0.361  15.221 -0.9055 -0.2340  0.4416
  538TIP3   OH223028   4.490   4.565  16.657 -0.3354  0.3236 -0.0291
  538TIP3    H123029   4.398   4.585  16.642 -1.5856 -3.3406  1.6453
  538TIP3    H223030   4.533   4.651  16.659 -3.5132  2.1308 -1.6654
  539TIP3   OH223031   1.461   4.077  13.130 -0.1409 -0.0226  0.1307
  539TIP3    H123032   1.479   4.071  13.224 -1.3787 -1.0738  0.3215
  539TIP3    H223033   1.382   4.131  13.123  0.2859  0.5547 -0.3565
  540TIP3   OH223034   0.905   0.230  17.136  0.2381  0.1373 -0.2070
  540TIP3    H123035   0.961   0.160  17.102  1.2459  0.0905  1.4583
  540TIP3    H223036   0.900   0.293  17.064  1.8576 -0.1985 -0.6611
  541TIP3   OH223037   2.226   3.728   4.663 -0.2453  0.0729  0.4530
  541TIP3    H123038   2.275   3.807   4.683 -1.2587  0.5855  1.0396
  541TIP3    H223039   2.232   3.675   4.743 -1.5721  0.6575  0.9733
  542TIP3   OH223040   4.913   0.921   0.739  0.1237 -0.4635  0.1861
  542TIP3    H123041   4.895   1.001   0.787  0.8577 -0.4542  0.4665
  542TIP3    H223042   4.995   0.888   0.778  0.1526 -1.0194 -0.3334
  543TIP3   OH223043   5.943   2.894  10.293 -0.0366  0.1873  0.5772
  543TIP3    H123044   5.915   2.973  10.339 -2.6120  0.4731 -1.2420
  543TIP3    H223045   5.883   2.826  10.322 -1.3872  0.2538 -1.7802
  544TIP3   OH223046   3.936   1.681  13.725 -0.1707  0.1551  0.5030
  544TIP3    H123047   4.002   1.670  13.657 -0.0387 -1.1236  0.8185
  544TIP3    H223048   3.860   1.718  13.679  0.8896  2.1159  0.2268
  545TIP3   OH223049   6.387   0.473   6.277 -0.1310 -0.1955 -0.0385
  545TIP3    H123050   6.454   0.413   6.309  1.2071  1.5705  0.6357
  545TIP3    H223051   6.423   0.507   6.195 -0.1888  0.7512  0.3181
  546TIP3   OH223052   4.693   6.714   4.529 -0.2802 -0.2218 -0.4295
  546TIP3    H123053   4.742   6.795   4.538 -0.1114 -0.2000 -1.4194
  546TIP3    H223054   4.635   6.712   4.605  0.7236  0.1117  0.3722
  547TIP3   OH223055   2.842   2.239   4.870 -0.2942 -0.2324  0.4474
  547TIP3    H123056   2.811   2.160   4.914 -0.8087  0.9424  2.2769
  547TIP3    H223057   2.938   2.232   4.873 -0.3342 -0.7493  0.6637
  548TIP3   OH223058   5.877   0.124   0.782  0.2952 -0.0904  0.2087
  548TIP3    H123059   5.863   0.097   0.691  0.9064  2.1770 -0.6349
  548TIP3    H223060   5.963   0.091   0.805  0.9180  0.8630 -0.6991
  549TIP3   OH223061   3.213   4.253   3.236 -0.1324  0.0711 -0.4153
  549TIP3    H123062   3.131   4.205   3.227  0.4623 -0.7146 -1.8870
  549TIP3    H223063   3.194   4.319   3.303 -1.4574 -1.1291  0.4555
  550TIP3   OH223064   3.501   3.700  15.352  0.2110 -0.4518 -0.1102
  550TIP3    H123065   3.415   3.706  15.310  0.6206  1.0614 -0.7977
  550TIP3    H223066   3.492   3.749  15.433  0.9725  1.6021 -1.2028
  551TIP3   OH223067   0.807   3.117  15.803  0.4850  0.3700 -0.4097
  551TIP3    H123068   0.802   3.126  15.708 -0.2225  1.3110 -0.3064
  551TIP3    H223069   0.740   3.178  15.836  0.5746 -0.0974  0.6793
  552TIP3   OH223070   4.933   5.432   3.281 -0.2677  0.0284 -0.4134
  552TIP3    H123071   5.023   5.399   3.283 -0.3890 -0.2802  0.6865
  552TIP3    H223072   4.879   5.356   3.303 -0.6501  0.6230  0.7907
  553TIP3   OH223073   1.003   5.847   3.092 -0.0341  0.6763 -0.1296
  553TIP3    H123074   1.046   5.874   3.011 -1.1324  0.5213 -0.7879
  553TIP3    H223075   0.926   5.798   3.063  0.4883 -0.8992  1.0243
  554TIP3   OH223076   4.161   6.616  12.579 -0.5472  0.3808 -0.5481
  554TIP3    H123077   4.180   6.692  12.633  1.1432  0.3394 -1.0498
  554TIP3    H223078   4.086   6.644  12.525 -2.4831  0.3090  1.9207
  555TIP3   OH223079   4.651   0.165   1.336 -0.6262  0.2390 -0.3483
  555TIP3    H123080   4.589   0.095   1.356 -0.5900 -0.1077 -1.3888
  555TIP3    H223081   4.627   0.237   1.395 -0.6931 -0.6260  0.6976
  556TIP3   OH223082   0.697   5.665   1.030  0.3482 -0.3071  0.2788
  556TIP3    H123083   0.629   5.730   1.050  0.3126 -0.6131  1.2294
  556TIP3    H223084   0.723   5.684   0.940  0.4697  1.1330  0.5887
  557TIP3   OH223085   3.136   4.322  12.219 -0.2986  0.3358  0.0946
  557TIP3    H123086   3.111   4.399  12.168 -3.0226  0.1272  0.9722
  557TIP3    H223087   3.163   4.358  12.304 -1.2087  0.3758  0.3781
  558TIP3   OH223088   2.727   3.809   2.241 -0.7147 -0.4288 -0.2971
  558TIP3    H123089   2.810   3.796   2.287 -0.5881 -3.8720 -1.2003
  558TIP3    H223090   2.660   3.789   2.306 -0.6856 -0.7973 -0.3742
  559TIP3   OH223091   2.190   1.528  15.191 -0.1095 -0.1942 -0.1641
  559TIP3    H123092   2.150   1.594  15.134 -0.8803 -0.3248  0.2106
  559TIP3    H223093   2.266   1.572  15.228 -0.9895  0.7348  0.6006
  560TIP3   OH223094   0.553   2.863  16.600  0.0902 -0.1300  0.2318
  560TIP3    H123095   0.571   2.872  16.507 -2.7781 -3.5545 -0.8846
  560TIP3    H223096   0.466   2.902  16.611  0.6572  0.8036  1.6583
  561TIP3   OH223097   2.037   6.690   2.671 -0.2190  0.2105  0.1263
  561TIP3    H123098   1.970   6.653   2.729  0.3810  0.6632  1.1245
  561TIP3    H223099   2.074   6.764   2.719  0.9605  0.0130 -0.4230
  562TIP3   OH223100   4.191   3.279  12.887 -0.0777 -0.3125 -0.4066
  562TIP3    H123101   4.167   3.307  12.976  0.1488 -1.6558  0.0978
  562TIP3    H223102   4.107   3.268  12.843 -0.2584 -1.1005  0.1147
  563TIP3   OH223103   0.934   1.715   5.328 -0.3326 -0.1336  0.2345
  563TIP3    H123104   0.918   1.636   5.277  0.6434  0.6041 -1.2871
  563TIP3    H223105   1.029   1.723   5.330 -0.3554  0.1198  1.8223
  564TIP3   OH223106   2.990   3.948  13.283  0.5407  0.1996  0.8453
  564TIP3    H123107   2.912   3.892  13.288 -0.2914  1.3191  0.7778
  564TIP3    H223108   3.035   3.920  13.204 -0.5705  0.5112  0.0850
  565TIP3   OH223109   1.270   0.638  12.821 -0.0231  0.2002 -0.4921
  565TIP3    H123110   1.305   0.550  12.839 -0.2105  0.2012 -0.1161
  565TIP3    H223111   1.268   0.644  12.725 -0.7130 -0.4925 -0.5338
  566TIP3   OH223112   6.289   4.348  12.046 -0.7509  0.2673 -0.2001
  566TIP3    H123113   6.272   4.310  12.132  2.3124 -0.8129  0.0896
  566TIP3    H223114   6.337   4.429  12.064 -1.6528  0.9799 -0.9058
  567TIP3   OH223115   0.164   2.944   2.514  0.0123  0.1460  0.4905
  567TIP3    H123116   0.072   2.964   2.530 -0.2821 -1.5693  1.1940
  567TIP3    H223117   0.162   2.872   2.451  0.8731  0.1443  0.4564
  568TIP3   OH223118   6.284   3.270   2.392  0.2803  0.0148 -0.1811
  568TIP3    H123119   6.375   3.300   2.400  0.2665 -0.1547  0.7540
  568TIP3    H223120   6.288   3.176   2.405 -0.0071 -0.0296 -0.3922
  569TIP3   OH223121   3.846   0.269   6.424  0.2839 -0.1310 -0.1856
  569TIP3    H123122   3.779   0.237   6.363  1.2020 -0.6614 -0.9532
  569TIP3    H223123   3.825   0.226   6.507 -0.6229  0.1174 -0.2751
  570TIP3   OH223124   2.851   6.317  12.365 -0.0587 -0.5322 -0.3264
  570TIP3    H123125   2.892   6.397  12.333 -1.0093  0.2938  0.4401
  570TIP3    H223126   2.857   6.323  12.460 -1.1741 -0.7862 -0.2205
  571TIP3   OH223127   3.353   0.428  14.235 -0.0729  0.0113 -0.1676
  571TIP3    H123128   3.373   0.491  14.166  1.4120 -1.0510 -0.7441
  571TIP3    H223129   3.390   0.467  14.314  0.8698 -0.1219 -0.5289
  572TIP3   OH223130   3.257   4.750  11.952  0.3220  0.0770 -0.1823
  572TIP3    H123131   3.202   4.733  11.876 -0.0638  1.9175 -0.3682
  572TIP3    H223132   3.294   4.837  11.936  0.1010  0.5908  1.8006
  573TIP3   OH223133   4.918   6.580  11.001 -0.2374 -0.5564  0.3475
  573TIP3    H123134   4.909   6.579  10.906 -1.2724  0.4617  0.4073
  573TIP3    H223135   4.875   6.499  11.030 -3.4091  0.8783  0.1305
  574TIP3   OH223136   2.923   4.410  16.456 -0.3650  0.3771 -0.1171
  574TIP3    H123137   2.897   4.452  16.374  0.2993  1.0126 -0.0108
  574TIP3    H223138   2.946   4.321  16.430 -0.0360  0.6080 -0.6520
  575TIP3   OH223139   1.732   2.311   5.513 -0.2296  0.2200 -0.0959
  575TIP3    H123140   1.793   2.310   5.439 -0.2938  0.2263 -0.1495
  575TIP3    H223141   1.781   2.349   5.585 -0.0017 -0.2579  0.0081
  576TIP3   OH223142   4.345   6.039   1.278 -0.2471 -0.1780  0.2348
  576TIP3    H123143   4.369   5.947   1.272  1.2941  0.1761  0.4429
  576TIP3    H223144   4.254   6.039   1.309 -0.0189 -1.6153  0.9822
  577TIP3   OH223145   1.149   3.578  14.031  0.0225  0.3197 -0.4113
  577TIP3    H123146   1.199   3.622  13.962  1.6322  0.8164  1.0132
  577TIP3    H223147   1.215   3.535  14.085 -1.2586 -0.7065  0.4190
  578TIP3   OH223148   5.615   3.748  14.155  0.7709  0.3472  0.3765
  578TIP3    H123149   5.600   3.799  14.075 -1.7366 -0.1491  0.4412
  578TIP3    H223150   5.701   3.707  14.141  1.1559  1.5982 -1.2971
  579TIP3   OH223151   2.573   5.884  13.206 -0.7144 -0.6004  0.3344
  579TIP3    H123152   2.606   5.935  13.280 -2.7225 -1.2963  1.7781
  579TIP3    H223153   2.617   5.923  13.130  0.9056  0.5769  1.7813
  580TIP3   OH223154   3.749   1.002   2.493 -0.2919  0.0762 -0.1981
  580TIP3    H123155   3.807   0.958   2.431 -0.7049 -1.1382  0.2671
  580TIP3    H223156   3.749   1.094   2.464 -0.4252 -0.4434 -1.9580
  581TIP3   OH223157   6.579   1.936  16.790 -0.4460 -0.1862 -0.9211
  581TIP3    H123158   6.581   1.849  16.750  2.4942 -1.4235  1.4806
  581TIP3    H223159   6.516   1.928  16.861 -0.9744  0.0249 -1.3572
  582TIP3   OH223160   0.245   4.209  12.845 -0.0573  0.5432 -0.4187
  582TIP3    H123161   0.157   4.200  12.880 -1.7343  1.9452 -3.8566
  582TIP3    H223162   0.268   4.300  12.860  1.4700 -0.1067  1.6329
  583TIP3   OH223163   6.262   0.611  16.108 -0.2856 -0.1355 -0.7949
  583TIP3    H123164   6.311   0.529  16.106  0.8465  0.5034 -0.3126
  583TIP3    H223165   6.187   0.596  16.050  1.6577 -0.4030 -3.4005
  584TIP3   OH223166   4.185   1.443  12.036  0.0289  0.5061  0.3476
  584TIP3    H123167   4.107   1.496  12.021  1.1138  1.8009 -1.1040
  584TIP3    H223168   4.155   1.353  12.032 -1.2171  0.9530 -1.4123
  585TIP3   OH223169   3.893   1.422  13.066 -0.3861  0.4886 -0.5049
  585TIP3    H123170   3.919   1.461  13.149  0.2070  0.8512 -0.8622
  585TIP3    H223171   3.809   1.464  13.045 -0.8336 -0.0271  0.1872
  586TIP3   OH223172   5.232   1.665  16.899  0.4326  0.0102  0.2785
  586TIP3    H123173   5.240   1.758  16.878  0.0924 -0.1186 -0.4492
  586TIP3    H223174   5.303   1.624  16.851 -0.2212 -0.2630 -0.4637
  587TIP3   OH223175   3.551   3.416  11.150  0.6269  0.7118  0.5919
  587TIP3    H123176   3.509   3.344  11.196  0.6666  0.3734  0.1119
  587TIP3    H223177   3.483   3.448  11.090  1.0631  0.1213 -0.2303
  588TIP3   OH223178   4.254   6.043  13.928  0.5109 -0.4673 -0.6772
  588TIP3    H123179   4.167   6.053  13.967  0.5324 -2.1735 -0.1114
  588TIP3    H223180   4.313   6.082  13.991  0.4624 -2.4622  0.6998
  589TIP3   OH223181   5.902   1.732  15.947 -0.5360  0.1411 -0.3685
  589TIP3    H123182   5.807   1.720  15.940 -0.7919  0.4824  1.8968
  589TIP3    H223183   5.915   1.826  15.933 -0.7172  0.3410  0.7344
  590TIP3   OH223184   5.222   3.501   3.845  0.1067  0.4803 -0.0423
  590TIP3    H123185   5.189   3.530   3.931  1.8801  1.1083  0.4764
  590TIP3    H223186   5.149   3.453   3.807 -0.7164  0.1045  1.8552
  591TIP3   OH223187   5.081   3.737  14.764 -0.0254  0.0506 -0.4099
  591TIP3    H123188   5.145   3.798  14.802  0.8500 -1.4783  0.7266
  591TIP3    H223189   5.122   3.706  14.683 -0.4766  0.9434 -0.9947
  592TIP3   OH223190   4.121   5.604   2.645  0.0262  0.1973  0.9664
  592TIP3    H123191   4.166   5.686   2.625 -0.1359 -0.0829 -0.6409
  592TIP3    H223192   4.166   5.539   2.592  0.9901 -1.0408  3.1713
  593TIP3   OH223193   3.940   4.772   0.659  0.0932  0.0863 -0.1085
  593TIP3    H123194   4.019   4.717   0.662 -0.5088 -0.8516 -0.9280
  593TIP3    H223195   3.912   4.778   0.750  2.9295  3.2251  0.7824
  594TIP3   OH223196   4.611   4.199   0.572 -0.3910  0.3372 -0.2836
  594TIP3    H123197   4.529   4.202   0.523 -0.0500 -0.3670 -0.9275
  594TIP3    H223198   4.678   4.189   0.504  0.0849 -0.7028  0.3145
  595TIP3   OH223199   5.269   1.503  13.893  0.2453  0.1277  0.5416
  595TIP3    H123200   5.211   1.432  13.864 -0.7574  0.0230  2.6192
  595TIP3    H223201   5.357   1.465  13.886 -0.2066 -1.0027  0.7447
  596TIP3   OH223202   4.691   3.957   3.630 -0.2814 -0.1228  0.3661
  596TIP3    H123203   4.720   3.911   3.552  1.2937  0.1397  0.7596
  596TIP3    H223204   4.602   3.924   3.646  0.2210 -1.8825 -0.2307
  597TIP3   OH223205   2.449   2.148   5.822  0.1915 -0.1021  0.0527
  597TIP3    H123206   2.474   2.062   5.788 -2.9114 -1.4245  0.7474
  597TIP3    H223207   2.454   2.206   5.746  0.1457 -1.4208 -0.9987
  598TIP3   OH223208   6.738   3.391  16.174  0.3042 -0.1445 -0.0628
  598TIP3    H123209   6.705   3.440  16.249  0.0305 -0.5504  0.0817
  598TIP3    H223210   6.780   3.314  16.213  2.3397  0.8367 -0.1543
  599TIP3   OH223211   6.117   5.675  12.085 -0.1513 -0.3448 -0.1256
  599TIP3    H123212   6.148   5.594  12.126 -0.2972  0.2067  1.1274
  599TIP3    H223213   6.197   5.722  12.061 -0.0671 -0.9420 -1.0426
  600TIP3   OH223214   2.660   3.461   3.653  0.3642 -0.6680  0.3181
  600TIP3    H123215   2.688   3.496   3.737  0.9439  2.1633 -0.9322
  600TIP3    H223216   2.572   3.496   3.640 -0.4569 -2.5608  0.4840
  601TIP3   OH223217   4.108   2.328   0.786  0.0457 -0.1867 -0.0203
  601TIP3    H123218   4.186   2.335   0.732  0.9611  0.8689  1.3712
  601TIP3    H223219   4.134   2.272   0.860 -0.0987  1.1263  1.0692
  602TIP3   OH223220   2.062   0.751   0.537 -0.3495  0.4905 -0.1218
  602TIP3    H123221   2.081   0.730   0.446  1.4684  2.2277 -0.2194
  602TIP3    H223222   1.968   0.764   0.540 -0.4837  0.0461 -1.6661
  603TIP3   OH223223   0.296   2.226  16.825  0.8965 -0.2741 -0.0289
  603TIP3    H123224   0.200   2.217  16.826  0.8750 -0.5348 -1.6545
  603TIP3    H223225   0.329   2.143  16.858  0.5821  0.2895  1.8173
  604TIP3   OH223226   0.027   1.605   3.597 -0.1595  0.1369 -0.5804
  604TIP3    H123227   0.044   1.521   3.553 -0.0700  1.1627 -2.6530
  604TIP3    H223228   0.009   1.581   3.688  1.6037 -1.9766 -0.6821
  605TIP3   OH223229   5.713   4.447   2.647  0.1193 -0.2037  0.2285
  605TIP3    H123230   5.742   4.459   2.557  2.5269 -0.3349  0.9308
  605TIP3    H223231   5.636   4.391   2.640 -0.8878  1.2694 -1.8454
  606TIP3   OH223232   1.126   3.368   0.649  0.2786  0.1649 -0.0596
  606TIP3    H123233   1.119   3.463   0.647 -1.0836  0.0880  0.4402
  606TIP3    H223234   1.050   3.337   0.601  0.0498 -0.6897  0.8212
  607TIP3   OH223235   0.604   6.074  16.309  0.0552  0.2819  0.1097
  607TIP3    H123236   0.561   6.084  16.394  1.5720  1.8970  0.7410
  607TIP3    H223237   0.532   6.074  16.246 -1.1039 -0.9021  1.3421
  608TIP3   OH223238   6.685   3.756   0.725  0.7068  0.3151 -0.0818
  608TIP3    H123239   6.648   3.702   0.655  0.5177  0.6857 -0.2702
  608TIP3    H223240   6.779   3.755   0.707  0.8021 -0.6299  0.4012
  609TIP3   OH223241   6.432   1.044  13.896 -0.1094  0.1464 -0.2243
  609TIP3    H123242   6.399   1.022  13.809 -1.5744 -1.9295  0.7683
  609TIP3    H223243   6.526   1.025  13.891 -0.1100  0.4251 -1.4550
  610TIP3   OH223244   2.164   4.821   6.062  0.8193 -0.7557  0.2319
  610TIP3    H123245   2.107   4.748   6.086 -0.0203  0.0577  0.8146
  610TIP3    H223246   2.230   4.824   6.132  0.0954 -0.1881  0.9137
  611TIP3   OH223247   2.630   4.603   5.760  0.3745 -0.3311  0.4704
  611TIP3    H123248   2.624   4.571   5.670  0.3148 -3.0406  1.3594
  611TIP3    H223249   2.577   4.543   5.811 -1.9540  2.7612  2.0453
  612TIP3   OH223250   5.333   3.665   4.306  0.5253 -0.3823  0.1557
  612TIP3    H123251   5.269   3.696   4.370  0.8231 -0.2709  0.4043
  612TIP3    H223252   5.372   3.745   4.270  1.0475 -0.4510  0.5476
  613TIP3   OH223253   0.032   0.493   2.117 -0.1623 -0.4070 -0.5775
  613TIP3    H123254   0.036   0.442   2.036 -0.2351  0.0356 -0.8626
  613TIP3    H223255  -0.061   0.502   2.135 -0.2136  0.8748 -1.3369
  614TIP3   OH223256   5.975   4.965  11.758  0.8584 -1.1644  0.3475
  614TIP3    H123257   5.883   4.978  11.734  1.0558 -0.0278  0.1647
  614TIP3    H223258   6.019   4.945  11.675  1.0937  0.1829  0.1349
  615TIP3   OH223259   3.361   1.445  16.451  0.3742  0.2728  0.2642
  615TIP3    H123260   3.331   1.354  16.458  1.4758 -0.0104  2.3485
  615TIP3    H223261   3.453   1.441  16.477  1.0527  1.7062 -1.7236
  616TIP3   OH223262   0.290   4.999  12.887 -0.2625 -0.2996 -0.5581
  616TIP3    H123263   0.345   5.073  12.913  0.2780  0.0648 -2.5892
  616TIP3    H223264   0.270   4.954  12.969  3.9980 -1.1223  0.2477
  617TIP3   OH223265   3.204   3.686   3.215  0.0043  0.4424  0.1137
  617TIP3    H123266   3.168   3.717   3.298 -0.8760  1.0408 -0.4670
  617TIP3    H223267   3.297   3.671   3.233 -0.7802 -2.9785  2.1795
  618TIP3   OH223268   0.820   4.285  15.931  0.1721 -0.3072 -0.5530
  618TIP3    H123269   0.735   4.244  15.919 -0.3378  0.7439 -0.6655
  618TIP3    H223270   0.803   4.362  15.985  0.5928  1.3606 -2.6484
  619TIP3   OH223271   5.594   1.867   3.438 -0.3205  0.1811 -0.4042
  619TIP3    H123272   5.645   1.913   3.371 -0.7523 -0.0142 -0.8713
  619TIP3    H223273   5.626   1.902   3.521 -0.4856  1.1689 -0.7468
  620TIP3   OH223274   3.867   6.495  13.732  0.1754  0.0320  0.2741
  620TIP3    H123275   3.855   6.402  13.712  0.6595  0.1784 -0.7378
  620TIP3    H223276   3.942   6.521  13.679  0.2399  0.9276  0.7991
  621TIP3   OH223277   1.651   6.069  16.416  0.7664 -0.4219 -0.0933
  621TIP3    H123278   1.602   6.002  16.464  0.7263 -1.2297 -1.2415
  621TIP3    H223279   1.682   6.129  16.485  1.1741 -1.8398  1.0121
  622TIP3   OH223280   1.320   3.548   1.097  0.3800  0.4319  0.0189
  622TIP3    H123281   1.348   3.466   1.057  0.6929  0.1625  0.7774
  622TIP3    H223282   1.293   3.525   1.185  1.4256  1.2764  0.5950
  623TIP3   OH223283   5.120   5.065   5.378  0.6903  0.7361  0.0513
  623TIP3    H123284   5.062   4.990   5.388 -0.7662  1.7173 -0.6118
  623TIP3    H223285   5.080   5.133   5.433  2.0025  1.0376  0.6756
  624TIP3   OH223286   3.139   0.883   4.535 -0.8298  0.3154 -0.2902
  624TIP3    H123287   3.145   0.801   4.584  2.5923 -0.9154 -2.4221
  624TIP3    H223288   3.128   0.950   4.603  2.6496 -1.3521  2.2671
  625TIP3   OH223289   3.512   1.685  13.820  0.3958 -0.7863  0.1277
  625TIP3    H123290   3.561   1.708  13.741 -3.3088 -0.2989 -2.2478
  625TIP3    H223291   3.535   1.594  13.837  2.6483 -0.3710 -0.3486
  626TIP3   OH223292   0.435   0.932   2.566  0.2439  0.0836  0.6649
  626TIP3    H123293   0.518   0.978   2.576  0.4185 -0.3269  1.1092
  626TIP3    H223294   0.427   0.917   2.472  0.9841 -0.4514  0.6851
  627TIP3   OH223295   6.585   6.274   3.671 -0.2885  0.0704 -0.2647
  627TIP3    H123296   6.608   6.268   3.578  0.4935  0.2946 -0.0899
  627TIP3    H223297   6.595   6.184   3.703 -0.6732 -0.0300 -0.4173
  628TIP3   OH223298   5.018   5.026  11.157 -0.1420  0.2118  0.1739
  628TIP3    H123299   5.070   5.059  11.084 -0.1303  2.5677  1.1785
  628TIP3    H223300   5.004   4.933  11.135  1.0438  0.4768 -2.0876
  629TIP3   OH223301   4.746   6.631  12.915 -0.0384  0.5040 -0.0202
  629TIP3    H123302   4.689   6.686  12.860  0.3608  0.3691 -0.5776
  629TIP3    H223303   4.779   6.691  12.982 -0.3054  0.7376 -0.0911
  630TIP3   OH223304   2.437   0.543   4.060 -0.1127 -0.0005 -0.1435
  630TIP3    H123305   2.443   0.634   4.032  0.9167 -0.1359 -0.4013
  630TIP3    H223306   2.443   0.492   3.979  1.1541 -0.3410  0.1441
  631TIP3   OH223307   2.376   0.406   2.688  0.6164 -0.6291 -0.0601
  631TIP3    H123308   2.384   0.384   2.781  0.2005 -0.7016 -0.0397
  631TIP3    H223309   2.314   0.342   2.653  0.7804 -0.6105 -0.3944
  632TIP3   OH223310   5.381   0.472  11.278 -0.0245 -0.5412  0.1583
  632TIP3    H123311   5.338   0.532  11.339 -1.6890 -0.8169 -0.6808
  632TIP3    H223312   5.343   0.386  11.300 -0.4076 -0.6872 -1.0249
  633TIP3   OH223313   1.379   1.115   5.851  0.2406  0.4592 -0.1552
  633TIP3    H123314   1.336   1.165   5.921 -1.3772 -0.2102 -0.6257
  633TIP3    H223315   1.351   1.158   5.770  2.0609  1.2001 -0.4596
  634TIP3   OH223316   4.847   5.000   5.839  0.0997 -0.4464  0.1285
  634TIP3    H123317   4.821   4.979   5.750  0.1438  0.1793 -0.0374
  634TIP3    H223318   4.864   5.095   5.838 -0.6568 -0.2853  0.9850
  635TIP3   OH223319   6.539   0.156   2.830 -0.0479  0.2822  0.8231
  635TIP3    H123320   6.487   0.081   2.861 -1.8651  1.0312 -0.2232
  635TIP3    H223321   6.543   0.144   2.735  1.8118  0.2259  0.8725
  636TIP3   OH223322   2.170   2.692  12.714  0.1467 -0.4203  0.5983
  636TIP3    H123323   2.194   2.717  12.803  1.4221  2.3767 -0.4179
  636TIP3    H223324   2.117   2.764  12.682  1.6358 -0.2021 -1.6278
  637TIP3   OH223325   1.713   1.238  12.130 -0.0944  0.0373 -0.2331
  637TIP3    H123326   1.789   1.230  12.072 -0.7284 -0.3976 -1.0122
  637TIP3    H223327   1.678   1.326  12.113  0.2782  0.2730  0.1931
  638TIP3   OH223328   1.544   5.694   2.210 -0.9930 -0.1270  0.3087
  638TIP3    H123329   1.566   5.640   2.286 -0.4785 -1.9995 -1.0715
  638TIP3    H223330   1.626   5.700   2.161 -1.1634  1.5757  0.1962
  639TIP3   OH223331   3.339   4.002   1.582 -0.6299 -0.0513 -0.1775
  639TIP3    H123332   3.371   3.946   1.511  0.4752  0.0191  0.2422
  639TIP3    H223333   3.400   4.076   1.583  0.5942 -0.9914  2.0730
  640TIP3   OH223334   1.117   3.877  14.137 -0.0456  0.1361 -0.3661
  640TIP3    H123335   1.188   3.909  14.082  0.0265  0.3820 -0.1320
  640TIP3    H223336   1.072   3.811  14.083  0.6854 -0.4115 -0.3088
  641TIP3   OH223337   6.099   2.126  12.610 -0.0824 -0.2230 -0.1679
  641TIP3    H123338   6.095   2.204  12.665 -0.4027 -1.4075  1.5671
  641TIP3    H223339   6.190   2.122  12.580  0.2646  0.0949  0.8185
  642TIP3   OH223340   0.553   0.770  11.789 -0.2748  0.3982 -0.0006
  642TIP3    H123341   0.612   0.708  11.747  0.3003  0.3136  0.8845
  642TIP3    H223342   0.575   0.855  11.750 -1.8655 -0.0882 -2.0531
  643TIP3   OH223343   6.505   1.042   2.704 -0.0378 -0.1876  0.0996
  643TIP3    H123344   6.567   0.991   2.756 -0.5099  0.5354  1.4410
  643TIP3    H223345   6.431   1.057   2.764 -0.7811  0.3508 -0.9222
  644TIP3   OH223346   1.207   0.901   3.170 -0.0923 -0.2114  0.1993
  644TIP3    H123347   1.294   0.862   3.161  0.8300  1.3755  1.5112
  644TIP3    H223348   1.160   0.842   3.228  0.1576 -0.9836 -0.3624
  645TIP3   OH223349   1.548   4.202  17.095  0.9859 -0.2052 -0.0517
  645TIP3    H123350   1.534   4.272  17.159  1.6390 -0.4145  0.3310
  645TIP3    H223351   1.519   4.122  17.139  0.4986 -0.2219 -0.3882
  646TIP3   OH223352   1.517   0.489   4.449 -0.5598 -0.0918 -0.3793
  646TIP3    H123353   1.553   0.565   4.494 -1.5027  0.2160 -0.1203
  646TIP3    H223354   1.594   0.438   4.422  0.0647  0.6927 -0.1173
  647TIP3   OH223355   3.229   6.134   4.969 -1.1066  0.3248  0.3858
  647TIP3    H123356   3.196   6.071   5.034  0.4063 -1.5610 -0.5928
  647TIP3    H223357   3.324   6.134   4.981 -0.6596 -0.8213 -2.3826
  648TIP3   OH223358   5.023   3.137   2.309 -0.8698  0.0695 -0.3025
  648TIP3    H123359   5.082   3.074   2.268 -1.0936 -0.0183 -0.4894
  648TIP3    H223360   4.937   3.095   2.307 -1.2953  0.9315 -1.6632
  649TIP3   OH223361   3.786   2.925   4.933 -0.1108  0.1384 -0.6195
  649TIP3    H123362   3.813   2.996   4.991  1.3283 -0.3004 -0.7115
  649TIP3    H223363   3.741   2.862   4.990  2.2043 -0.7952  0.2983
  650TIP3   OH223364   2.880   5.144  15.374  0.1315  0.1459 -0.1433
  650TIP3    H123365   2.900   5.231  15.405  0.7966  0.3613 -1.1246
  650TIP3    H223366   2.920   5.139  15.287 -1.0628 -0.6495 -0.6879
  651TIP3   OH223367   0.840   5.438  15.133 -0.4482 -0.2152  0.0977
  651TIP3    H123368   0.895   5.439  15.056  0.7475 -0.9832  0.9086
  651TIP3    H223369   0.753   5.414  15.101 -0.2939  0.8631 -1.1759
  652TIP3   OH223370   5.002   3.261  15.243 -0.2737  0.3641 -0.3307
  652TIP3    H123371   5.097   3.265  15.229 -0.5619 -1.0051 -3.1959
  652TIP3    H223372   4.972   3.351  15.230  0.4321  0.4941 -1.1019
  653TIP3   OH223373   5.543   5.463   5.496 -0.3353 -0.0904  0.3556
  653TIP3    H123374   5.492   5.491   5.420  2.9724 -0.3970 -2.2357
  653TIP3    H223375   5.534   5.367   5.497  1.3302 -0.3222 -1.1628
  654TIP3   OH223376   5.630   0.657  11.336 -0.3326  0.2294  0.4153
  654TIP3    H123377   5.593   0.570  11.322  0.3511 -0.0363  0.2296
  654TIP3    H223378   5.598   0.709  11.262  1.7382 -0.6721 -1.1965
  655TIP3   OH223379   0.873   4.604   1.521  0.0124  0.3605  0.1743
  655TIP3    H123380   0.926   4.559   1.455 -1.9107 -0.5243 -0.8612
  655TIP3    H223381   0.932   4.616   1.595  1.1158 -2.3688 -0.1501
  656TIP3   OH223382   2.924   2.250   0.496  0.6384  0.1337 -0.2095
  656TIP3    H123383   2.866   2.259   0.420  2.0708  1.6424 -1.1899
  656TIP3    H223384   2.913   2.159   0.524  0.9976 -0.8605 -3.0132
  657TIP3   OH223385   6.159   6.696   5.600 -0.0373 -0.3990  0.4280
  657TIP3    H123386   6.209   6.629   5.646  1.4657  0.5119  0.2237
  657TIP3    H223387   6.198   6.699   5.512 -1.8762 -1.0920 -0.4561
  658TIP3   OH223388   2.690   1.431  16.111  0.2121  0.2412  0.0322
  658TIP3    H123389   2.713   1.440  16.203  0.4323  0.8701 -0.0818
  658TIP3    H223390   2.771   1.402  16.068  0.4000  0.9931 -0.1291
  659TIP3   OH223391   3.376   2.713   4.477  0.4397 -0.0869 -0.3453
  659TIP3    H123392   3.312   2.677   4.539  1.5843 -0.0544  0.8968
  659TIP3    H223393   3.369   2.656   4.401  0.6641 -1.6199  0.7243
  660TIP3   OH223394   4.710   5.578  17.190  0.4950  0.4295 -0.1924
  660TIP3    H123395   4.715   5.502  17.132 -0.7566 -0.3612  0.6863
  660TIP3    H223396   4.641   5.633  17.152 -0.8825 -0.4655  0.9047
  661TIP3   OH223397   5.859   5.929  13.189 -0.3559 -0.4090  0.2929
  661TIP3    H123398   5.774   5.952  13.227  0.2899  0.5284  1.2369
  661TIP3    H223399   5.922   5.976  13.243  0.9081 -2.5916  0.8224
  662TIP3   OH223400   2.116   6.769   4.446  0.1783 -0.1486  0.0589
  662TIP3    H123401   2.191   6.814   4.406 -1.4970  2.3661 -0.4705
  662TIP3    H223402   2.072   6.836   4.497 -2.4750 -1.1689 -0.7436
  663TIP3   OH223403   4.946   0.530  13.721  0.0026 -0.0020  0.2200
  663TIP3    H123404   4.920   0.499  13.634  0.7573  1.1403 -0.4415
  663TIP3    H223405   4.863   0.546  13.766 -0.4320  0.7813 -0.8117
  664TIP3   OH223406   4.195   6.425  12.164  0.3794  0.5546  0.5773
  664TIP3    H123407   4.174   6.335  12.188 -2.1244  0.4242 -1.5739
  664TIP3    H223408   4.220   6.421  12.072  1.4714  1.9352  0.7689
  665TIP3   OH223409   0.348   2.868   6.101 -0.0526  0.0217 -0.5631
  665TIP3    H123410   0.283   2.847   6.168  1.2906 -2.0047  0.1935
  665TIP3    H223411   0.398   2.940   6.140  0.8038 -1.2185  0.7567
  666TIP3   OH223412   3.220   5.808  14.649 -0.2598 -0.2212 -0.1211
  666TIP3    H123413   3.291   5.759  14.608  0.2635  0.1909  0.2775
  666TIP3    H223414   3.141   5.757  14.630  0.2273 -1.0164 -0.0259
  667TIP3   OH223415   0.542   6.445  13.617  0.1287  0.0011  0.4625
  667TIP3    H123416   0.476   6.438  13.686 -0.4936  0.0573 -0.1080
  667TIP3    H223417   0.499   6.408  13.540  0.3184  1.1540 -0.2228
  668TIP3   OH223418   1.296   1.922  12.308 -0.2862  0.2518 -0.1084
  668TIP3    H123419   1.205   1.911  12.279 -0.9932 -0.3174  2.1641
  668TIP3    H223420   1.322   1.836  12.339  0.6125  0.7017  0.4149
  669TIP3   OH223421   5.117   6.359   0.299  0.4291  0.0533  0.1794
  669TIP3    H123422   5.196   6.396   0.339  0.9732 -0.1926 -0.6562
  669TIP3    H223423   5.147   6.279   0.255 -0.3686 -0.2905  0.2343
  670TIP3   OH223424   3.688   3.634   2.425 -0.3527 -0.3317 -0.1974
  670TIP3    H123425   3.728   3.548   2.414 -1.0923 -0.4792 -1.9621
  670TIP3    H223426   3.688   3.673   2.338 -0.7686  1.1344  0.4216
  671TIP3   OH223427   3.795   4.535   1.098 -0.5694  0.1067 -0.3653
  671TIP3    H123428   3.890   4.525   1.095 -0.6301 -1.0753  0.9585
  671TIP3    H223429   3.766   4.512   1.009  0.4117  1.1883 -0.9923
  672TIP3   OH223430   4.177   1.746   6.031  0.4649  0.1000 -0.0412
  672TIP3    H123431   4.183   1.820   6.092  0.6417 -0.2223  0.3370
  672TIP3    H223432   4.231   1.771   5.957 -1.1737  1.2898 -0.9005
  673TIP3   OH223433   1.535   2.897   4.917  0.0370 -0.1515  0.1049
  673TIP3    H123434   1.618   2.942   4.897  0.2327 -0.8960 -0.8354
  673TIP3    H223435   1.506   2.863   4.832 -1.1224 -0.0923  0.4659
  674TIP3   OH223436   3.441   2.177  14.912  0.0830 -0.5013 -0.0091
  674TIP3    H123437   3.431   2.238  14.839  0.2909  0.3099  0.6330
  674TIP3    H223438   3.524   2.132  14.894  0.5218  0.2473  0.1251
  675TIP3   OH223439   1.599   5.473   5.911 -0.5047  0.4406 -0.3961
  675TIP3    H123440   1.604   5.501   5.819  0.4234 -0.0672 -0.5041
  675TIP3    H223441   1.633   5.384   5.911  0.8257  0.9219  0.6487
  676TIP3   OH223442   2.582   6.791  11.190 -0.1207 -0.2382 -0.2085
  676TIP3    H123443   2.517   6.862  11.191  1.3800  1.1804 -0.3560
  676TIP3    H223444   2.561   6.741  11.112 -0.4055  0.8149 -0.8269
  677TIP3   OH223445   6.522   4.156   3.160 -0.2366  0.3441 -0.0456
  677TIP3    H123446   6.507   4.099   3.235 -0.1742 -1.9544 -1.6666
  677TIP3    H223447   6.435   4.166   3.120  0.0174 -0.1226 -0.7456
  678TIP3   OH223448   5.643   6.471   1.307 -0.1011  0.1545 -0.2692
  678TIP3    H123449   5.586   6.421   1.365  0.8129  1.3223  1.7700
  678TIP3    H223450   5.595   6.477   1.225 -1.6972 -1.1636  0.5087
  679TIP3   OH223451   5.625   2.990   2.360  0.0651 -0.2621  0.1867
  679TIP3    H123452   5.545   3.041   2.367  0.0740 -0.3808  1.2839
  679TIP3    H223453   5.687   3.047   2.315 -0.4046  0.1030  0.0009
  680TIP3   OH223454   1.400   0.586   2.151 -0.3389  0.5286 -0.3615
  680TIP3    H123455   1.365   0.582   2.241  2.4097 -1.4741  0.7534
  680TIP3    H223456   1.455   0.664   2.151  1.6811 -0.8306  0.5955
  681TIP3   OH223457   2.534   2.114  11.111  0.4432 -0.3681 -0.3719
  681TIP3    H123458   2.556   2.021  11.112  0.3022 -0.4011 -0.3042
  681TIP3    H223459   2.541   2.140  11.019 -0.0875 -0.5851 -0.4764
  682TIP3   OH223460   5.111   0.257  12.935 -0.0288  0.3777  0.1277
  682TIP3    H123461   5.188   0.205  12.957  0.0538  0.2983 -0.3359
  682TIP3    H223462   5.143   0.347  12.930 -0.0819  0.4161  0.4985
  683TIP3   OH223463   5.783   0.419  11.755 -0.4658 -0.2716 -0.0959
  683TIP3    H123464   5.862   0.377  11.787 -0.7181  0.0872  1.0434
  683TIP3    H223465   5.807   0.511  11.744 -0.7637 -0.1306  0.4096
  684TIP3   OH223466   3.116   5.416  12.953 -0.4736 -0.1485  0.7289
  684TIP3    H123467   3.068   5.369  12.886 -0.8448  2.2286 -0.8127
  684TIP3    H223468   3.199   5.369  12.961 -0.1559 -0.1957 -1.9046
  685TIP3   OH223469   5.902   1.142  15.494  0.0859  0.1982 -0.0282
  685TIP3    H123470   5.838   1.075  15.516  0.0890  0.3000  0.2846
  685TIP3    H223471   5.975   1.128  15.555  0.0452  0.5472  0.1054
  686TIP3   OH223472   5.922   4.018  13.390  0.0682 -0.3230 -0.4245
  686TIP3    H123473   5.996   3.976  13.433 -0.6420  0.6475  1.8937
  686TIP3    H223474   5.951   4.033  13.300  1.8512 -1.8969 -0.1600
  687TIP3   OH223475   4.967   6.517  11.306 -0.0831  0.2131  0.0356
  687TIP3    H123476   5.055   6.554  11.320  1.2384 -1.0458 -3.6823
  687TIP3    H223477   4.917   6.589  11.267  0.8233 -0.2316 -2.1188
  688TIP3   OH223478   0.694   3.899   3.978 -0.0032  0.4709 -0.0714
  688TIP3    H123479   0.784   3.869   3.991 -0.7377 -1.2926  1.4087
  688TIP3    H223480   0.660   3.841   3.910 -0.4740  0.0291  0.5242
  689TIP3   OH223481   2.790   3.197  12.771  0.0128 -0.0323 -0.5480
  689TIP3    H123482   2.737   3.181  12.849  0.6959  1.3871  0.2605
  689TIP3    H223483   2.758   3.281  12.737  0.4887 -0.0748 -1.1255
  690TIP3   OH223484   5.082   1.611  12.220  0.1379 -0.3638 -0.9241
  690TIP3    H123485   4.996   1.629  12.182 -0.9631  1.3229  1.9685
  690TIP3    H223486   5.119   1.698  12.238  1.2517 -1.0466  0.2809
  691TIP3   OH223487   5.486   4.600  14.482 -0.0092 -0.0402  0.7038
  691TIP3    H123488   5.510   4.559  14.565 -0.4082  0.6821  1.1877
  691TIP3    H223489   5.403   4.643  14.500  0.2328  0.6922  0.1241
  692TIP3   OH223490   1.099   3.653   0.226  0.6276  0.5452 -0.1258
  692TIP3    H123491   1.060   3.733   0.190  2.3798  1.1812 -0.7536
  692TIP3    H223492   1.063   3.646   0.314 -1.4650  0.6290 -0.9293
  693TIP3   OH223493   3.170   0.077  16.025 -0.2814  0.2271  0.0462
  693TIP3    H123494   3.141   0.166  16.043 -0.4536  0.3897 -0.9769
  693TIP3    H223495   3.203   0.045  16.109  1.2274  1.7846  0.0942
  694TIP3   OH223496   4.366   0.124   3.512  0.0727 -0.1885  0.1973
  694TIP3    H123497   4.321   0.051   3.553  1.3156 -1.3155 -0.3829
  694TIP3    H223498   4.375   0.098   3.420  0.7755  0.5580  0.0431
  695TIP3   OH223499   2.195   0.302   0.928 -0.7038 -0.2595 -0.3142
  695TIP3    H123500   2.288   0.300   0.905 -0.3522 -0.6291  1.0440
  695TIP3    H223501   2.194   0.328   1.020 -1.8836 -1.2178 -0.0331
  696TIP3   OH223502   2.043   3.336  14.236  0.4674  0.0873 -0.1724
  696TIP3    H123503   1.964   3.316  14.185  0.1002  0.0683  0.3896
  696TIP3    H223504   2.015   3.328  14.328  1.2788 -0.5311  0.0362
  697TIP3   OH223505   2.976   1.586  14.510  0.2092 -0.2821 -0.2898
  697TIP3    H123506   2.913   1.539  14.455  1.3680 -1.2301 -0.8431
  697TIP3    H223507   3.044   1.614  14.449  0.4168  0.6042  0.3322
  698TIP3   OH223508   4.508   2.297  16.195  0.1829  0.6642  0.4798
  698TIP3    H123509   4.603   2.288  16.200 -0.0086 -1.7891  0.8198
  698TIP3    H223510   4.475   2.244  16.269 -1.5438 -2.7998 -2.4645
  699TIP3   OH223511   1.987   1.782   2.752  0.0702  0.1840 -0.3256
  699TIP3    H123512   2.057   1.731   2.711 -0.9273 -0.7525 -0.9053
  699TIP3    H223513   2.013   1.787   2.844 -0.4021 -2.5022  0.0428
  700TIP3   OH223514   2.180   3.404   5.304 -0.0042  0.0723  0.1379
  700TIP3    H123515   2.114   3.334   5.305  0.0821 -0.0216  1.6246
  700TIP3    H223516   2.263   3.357   5.316  0.2165  0.2859 -0.5722
  701TIP3   OH223517   1.885   0.624  10.857  0.1114  0.1656  0.4537
  701TIP3    H123518   1.905   0.576  10.776 -0.5401 -0.4841  0.6607
  701TIP3    H223519   1.879   0.555  10.924 -2.6640  0.2817  0.4266
  702TIP3   OH223520   2.026   1.869  13.722  0.5600 -0.5164 -0.2208
  702TIP3    H123521   2.001   1.961  13.736 -0.3750 -0.7526 -0.2612
  702TIP3    H223522   1.943   1.823  13.715  1.0241 -1.4279  0.1561
  703TIP3   OH223523   4.304   2.761   1.951 -0.4488  0.3367  0.3710
  703TIP3    H123524   4.220   2.764   1.905 -1.1295  1.3289  1.6432
  703TIP3    H223525   4.308   2.841   2.002  1.8870  0.9722 -0.6442
  704TIP3   OH223526   6.105   4.620  11.818 -0.4333  0.4169 -0.3453
  704TIP3    H123527   6.105   4.626  11.722 -1.9595 -1.1606 -0.4831
  704TIP3    H223528   6.091   4.527  11.836  2.0425  0.3063  1.4408
  705TIP3   OH223529   4.909   6.199   1.595  0.2881 -0.9067  0.1565
  705TIP3    H123530   4.902   6.197   1.500  1.2095 -0.9655  0.0783
  705TIP3    H223531   4.852   6.271   1.622 -1.6115 -2.1938 -0.2610
  706TIP3   OH223532   2.191   6.182   5.259  0.2304 -0.4331 -0.0971
  706TIP3    H123533   2.096   6.190   5.265  0.0573 -0.2340 -2.1914
  706TIP3    H223534   2.208   6.089   5.274 -0.1212 -0.2389  1.6672
  707TIP3   OH223535   6.272   5.611   6.151  0.1349 -0.3023  0.1992
  707TIP3    H123536   6.202   5.546   6.152  0.1774 -0.3426  0.6554
  707TIP3    H223537   6.243   5.679   6.211  0.5099 -0.3494  0.4375
  708TIP3   OH223538   0.710   2.322   4.149 -0.0661  0.6504  0.1253
  708TIP3    H123539   0.773   2.391   4.130  0.8178  0.0012  0.5995
  708TIP3    H223540   0.762   2.255   4.194 -1.1660  0.2505  0.8320
  709TIP3   OH223541   2.113   3.225  11.890 -0.4043  0.5729 -0.1448
  709TIP3    H123542   2.098   3.132  11.905 -0.8615  0.6589 -0.0525
  709TIP3    H223543   2.056   3.247  11.817 -0.7815  0.9228  0.2536
  710TIP3   OH223544   0.028   1.030  11.716  0.8916  0.0165  0.0383
  710TIP3    H123545  -0.021   1.033  11.799 -0.6083  1.8072 -0.8325
  710TIP3    H223546   0.109   0.983  11.738 -1.5409 -4.1573  1.3367
  711TIP3   OH223547   5.759   2.151  16.906 -0.2100  0.2576  0.2025
  711TIP3    H123548   5.793   2.215  16.843 -1.2005  0.3446 -0.2602
  711TIP3    H223549   5.677   2.189  16.937 -2.0041 -1.7629 -1.7760
  712TIP3   OH223550   1.090   1.289  11.576 -0.2259 -0.0651 -0.5413
  712TIP3    H123551   1.009   1.312  11.622 -1.0874 -1.6313 -1.2187
  712TIP3    H223552   1.105   1.363  11.517  0.3309  1.4896  1.4111
  713TIP3   OH223553   5.135   4.163   2.615 -0.1738  0.0289 -0.0805
  713TIP3    H123554   5.071   4.234   2.607 -0.1617 -0.0875 -1.6290
  713TIP3    H223555   5.084   4.089   2.648 -0.3742  0.5079  0.7074
  714TIP3   OH223556   4.302   1.547  11.312  0.1089  0.2899  0.1759
  714TIP3    H123557   4.226   1.570  11.260 -0.1120 -2.5710 -0.9631
  714TIP3    H223558   4.273   1.554  11.403 -0.7514  1.5035 -0.1817
  715TIP3   OH223559   6.313   1.265   3.997  0.1489  0.0961  0.4101
  715TIP3    H123560   6.367   1.218   4.060  0.5002  1.1979  0.9545
  715TIP3    H223561   6.345   1.355   4.000 -0.8578  0.4940 -0.2111
  716TIP3   OH223562   6.745   5.668   3.601  0.4648  0.2722 -0.3844
  716TIP3    H123563   6.668   5.691   3.654 -0.3717 -0.0025 -1.4291
  716TIP3    H223564   6.736   5.574   3.587  0.4300  0.4134 -1.3634
  717TIP3   OH223565   5.988   4.766  12.318 -0.1323  0.1324 -0.1799
  717TIP3    H123566   6.001   4.689  12.374 -0.5013  0.3632  0.2365
  717TIP3    H223567   6.052   4.756  12.248  0.8166  0.1864  0.6576
  718TIP3   OH223568   4.874   5.932  16.303 -0.1482 -0.0303 -0.4012
  718TIP3    H123569   4.916   6.010  16.339 -0.5109 -0.0543  0.0756
  718TIP3    H223570   4.909   5.860  16.355  0.7317 -0.2866 -1.2963
  719TIP3   OH223571   4.578   1.166  14.404  0.2513 -0.5598  0.4436
  719TIP3    H123572   4.674   1.162  14.401  0.2102 -1.8773 -0.9557
  719TIP3    H223573   4.556   1.160  14.497  1.5257  0.0075  0.8002
  720TIP3   OH223574   0.339   6.350   4.702  0.6819 -0.2733  0.2295
  720TIP3    H123575   0.277   6.377   4.770  0.9408 -1.1350  0.8177
  720TIP3    H223576   0.403   6.295   4.747  1.5236  0.0851 -0.4928
  721TIP3   OH223577   4.456   0.782  14.578 -0.0254 -0.1721 -0.0299
  721TIP3    H123578   4.454   0.688  14.598  3.2634  0.1760  2.9388
  721TIP3    H223579   4.525   0.791  14.511  0.4599  0.2005  0.5114
  722TIP3   OH223580   6.237   4.934  11.663  0.2409 -0.1123  0.5803
  722TIP3    H123581   6.322   4.889  11.662  0.3754  0.1249 -0.8939
  722TIP3    H223582   6.255   5.018  11.706  0.8101  0.0431  0.0424
  723TIP3   OH223583   3.728   2.400   1.867 -0.3267 -0.8779 -0.6302
  723TIP3    H123584   3.762   2.331   1.923 -2.4339 -1.6745 -0.2213
  723TIP3    H223585   3.758   2.481   1.907  0.2056 -1.5053  0.2642
  724TIP3   OH223586   5.268   6.109   1.435  0.0821 -0.2551  0.0507
  724TIP3    H123587   5.357   6.113   1.470  0.1090  0.0723 -0.0568
  724TIP3    H223588   5.250   6.198   1.405  0.0302 -0.5131 -0.7025
  725TIP3   OH223589   6.064   1.395  11.366 -0.3887  0.0983 -0.0533
  725TIP3    H123590   6.011   1.334  11.313 -0.7205 -0.7722  1.2329
  725TIP3    H223591   6.131   1.427  11.305 -0.2948 -1.4390 -0.8230
  726TIP3   OH223592   1.477   4.846   4.624 -0.0380  0.3034  0.2369
  726TIP3    H123593   1.443   4.780   4.563 -0.4094  0.8924 -0.2041
  726TIP3    H223594   1.426   4.925   4.605  0.9905  0.9691  0.1647
  727TIP3   OH223595   5.547   2.520  14.936  0.1255 -0.0159  0.0919
  727TIP3    H123596   5.567   2.469  15.015 -0.1306 -0.7740 -0.3257
  727TIP3    H223597   5.622   2.504  14.878 -1.2350 -2.3057 -1.2017
  728TIP3   OH223598   1.931   1.518   4.923 -0.2656 -0.0637  0.6533
  728TIP3    H123599   1.946   1.551   4.835  0.1108 -1.1861  0.2726
  728TIP3    H223600   2.013   1.474   4.946 -0.4085  0.0969  1.5156
  729TIP3   OH223601   5.557   4.960   2.348  0.0528 -0.1218  0.5503
  729TIP3    H123602   5.475   4.998   2.380  0.9096  1.1128  1.3712
  729TIP3    H223603   5.547   4.959   2.253 -0.6282  0.7304  0.5938
  730TIP3   OH223604   4.582   5.970   5.049  0.5300  0.2968  0.3476
  730TIP3    H123605   4.529   5.930   4.980  0.4703 -1.6320  1.4467
  730TIP3    H223606   4.555   6.062   5.050 -1.5530 -0.2627 -0.2612
  731TIP3   OH223607   6.679   2.194  15.093  0.3182 -0.2581  0.7637
  731TIP3    H123608   6.606   2.179  15.032 -0.2756 -4.6124  2.1712
  731TIP3    H223609   6.658   2.277  15.135 -1.5331  0.7435 -1.8388
  732TIP3   OH223610   3.447   0.260  14.602 -0.0658  0.1498 -0.0952
  732TIP3    H123611   3.423   0.169  14.618  0.5305  0.2476  1.5491
  732TIP3    H223612   3.369   0.300  14.564 -0.3341 -1.0223 -0.8139
  733TIP3   OH223613   3.065   4.899   4.228 -0.5815  0.0179  0.1750
  733TIP3    H123614   3.045   4.825   4.171 -1.8563  0.4121  0.0696
  733TIP3    H223615   3.022   4.974   4.186 -0.4453  0.5562  0.9736
  734TIP3   OH223616   0.901   0.497   2.923  0.3303  0.0401  0.6556
  734TIP3    H123617   0.838   0.467   2.858 -1.5655  0.9451  1.9820
  734TIP3    H223618   0.914   0.590   2.903  0.1570  0.1904  1.2245
  735TIP3   OH223619   4.313   3.943  12.468 -0.3435  0.5637  0.2692
  735TIP3    H123620   4.225   3.922  12.499  0.3931  0.5858  2.5813
  735TIP3    H223621   4.323   4.037  12.487 -0.1152  0.7499 -0.7454
  736TIP3   OH223622   5.345   2.494   5.256  0.3092 -0.1241  0.1274
  736TIP3    H123623   5.286   2.441   5.310  1.6874 -1.1243  0.7210
  736TIP3    H223624   5.338   2.456   5.169  0.3328 -0.4725  0.2740
  737TIP3   OH223625   4.497   3.144   2.310  0.2101 -0.0795 -0.2776
  737TIP3    H123626   4.449   3.072   2.349  0.2981  0.4284  0.8153
  737TIP3    H223627   4.584   3.108   2.292  0.0037 -0.4696 -0.5140
  738TIP3   OH223628   3.127   3.063   0.239 -0.7724  0.3267  0.2663
  738TIP3    H123629   3.072   2.997   0.281 -0.8897 -0.0970 -0.5298
  738TIP3    H223630   3.067   3.114   0.184 -0.2918 -0.6632 -1.2604
  739TIP3   OH223631   0.833   0.013   5.313  0.4135 -0.3057 -0.0655
  739TIP3    H123632   0.792  -0.059   5.265  1.4961 -1.4170  0.6161
  739TIP3    H223633   0.806   0.000   5.404 -0.5355  1.0039 -0.1380
  740TIP3   OH223634   3.458   5.787   2.978  0.5402 -0.0962 -0.3449
  740TIP3    H123635   3.502   5.722   2.923  0.3201 -0.8243  0.3315
  740TIP3    H223636   3.418   5.736   3.048 -0.1058  0.7175 -0.1132
  741TIP3   OH223637   1.490   2.776   5.807  1.0884 -0.4731 -0.6096
  741TIP3    H123638   1.573   2.819   5.823  0.4406  0.5296  0.1804
  741TIP3    H223639   1.495   2.694   5.857  1.2715 -0.0102  0.1400
  742TIP3   OH223640   4.849   5.620   2.676  0.4079  0.1863 -0.2354
  742TIP3    H123641   4.776   5.563   2.700  1.6212 -0.6898  1.6552
  742TIP3    H223642   4.808   5.700   2.644 -1.4859  0.5356  2.6771
  743TIP3   OH223643   4.035   1.911  15.393  0.2293 -0.0303 -0.0289
  743TIP3    H123644   3.988   1.827  15.397  0.2756 -0.1487 -1.3420
  743TIP3    H223645   3.968   1.977  15.409 -0.1517 -0.2584 -0.6264
  744TIP3   OH223646   4.031   5.886  13.551 -0.4590  0.2633 -0.0207
  744TIP3    H123647   4.049   5.800  13.512 -0.1984  0.1889  0.2613
  744TIP3    H223648   4.045   5.948  13.479  1.1748  0.2382  0.2391
  745TIP3   OH223649   0.244   5.976   0.628  0.2932  0.4233  0.5571
  745TIP3    H123650   0.253   6.065   0.660  3.0387  1.0811 -1.6220
  745TIP3    H223651   0.291   5.922   0.691 -0.3420  0.6496  1.2405
  746TIP3   OH223652   6.737   2.403   3.936 -0.7617 -0.1897  0.7105
  746TIP3    H123653   6.819   2.449   3.920 -0.3984 -0.8752  0.5750
  746TIP3    H223654   6.669   2.464   3.906 -0.2469 -0.1335 -0.3803
  747TIP3   OH223655   6.077   2.895   2.237  0.2895 -0.4119 -0.1560
  747TIP3    H123656   6.080   2.990   2.230  0.1237 -0.4110 -0.2201
  747TIP3    H223657   6.156   2.872   2.286 -0.0013 -0.1942  0.4264
  748TIP3   OH223658   2.572   5.647  12.004  0.9360 -0.0828 -0.3003
  748TIP3    H123659   2.648   5.674  11.952  1.0167 -1.0941 -0.7268
  748TIP3    H223660   2.609   5.600  12.079  0.7576  0.1104 -0.0890
  749TIP3   OH223661   0.563   1.849  10.242  0.1065  0.3266 -0.0830
  749TIP3    H123662   0.600   1.935  10.258 -0.2363  0.3347  0.6940
  749TIP3    H223663   0.470   1.866  10.222  0.0718  0.1454 -0.0784
  750TIP3   OH223664   2.917   6.134  10.645  0.3876  0.1885 -0.3010
  750TIP3    H123665   2.897   6.077  10.719 -1.1062 -0.1181 -0.9069
  750TIP3    H223666   2.988   6.190  10.677  1.2000 -1.3116  0.6471
  751TIP3   OH223667   0.988   3.053   0.463  0.1833  0.2478 -0.1419
  751TIP3    H123668   0.949   3.133   0.499 -1.7895 -0.2299 -1.0765
  751TIP3    H223669   1.076   3.079   0.437  0.8182  1.2331  2.6261
  752TIP3   OH223670   0.121   5.255   5.693 -0.3747 -0.0090  0.1153
  752TIP3    H123671   0.086   5.170   5.667 -3.1029  1.3935 -1.1970
  752TIP3    H223672   0.070   5.280   5.770 -1.7619  1.6842 -1.2809
  753TIP3   OH223673   2.779   5.992  12.005 -0.3406 -0.2388  0.1640
  753TIP3    H123674   2.686   5.971  11.999 -0.3796  0.2332 -2.2948
  753TIP3    H223675   2.782   6.081  12.040 -1.1880  1.3464 -3.3428
  754TIP3   OH223676   0.754   3.891   5.929 -0.9563 -0.1325 -0.2978
  754TIP3    H123677   0.698   3.867   6.003 -0.9109 -0.0830 -0.2470
  754TIP3    H223678   0.701   3.952   5.878 -1.4500 -1.1030 -0.9646
  755TIP3   OH223679   4.178   5.639   6.202  0.5397 -0.2300  0.2032
  755TIP3    H123680   4.162   5.630   6.296 -0.6260  1.2965  0.1957
  755TIP3    H223681   4.183   5.549   6.170 -0.7086 -0.7980  1.4769
  756TIP3   OH223682   5.141   4.145  12.775 -0.0645 -0.4759 -0.1274
  756TIP3    H123683   5.156   4.140  12.680 -0.1117  1.5477 -0.2917
  756TIP3    H223684   5.129   4.238  12.792 -0.7132 -0.8645  1.7935
  757TIP3   OH223685   1.250   4.639   1.372  0.1300  0.1384 -0.0665
  757TIP3    H123686   1.200   4.662   1.294  2.1291  1.5389 -1.0271
  757TIP3    H223687   1.275   4.724   1.410  0.5824 -0.5218  1.1730
  758TIP3   OH223688   4.777   0.734  13.875  0.0038 -0.1219  0.1774
  758TIP3    H123689   4.730   0.810  13.911  0.8583  0.1275  0.8002
  758TIP3    H223690   4.725   0.707  13.799 -0.5790  0.7886  0.2400
  759TIP3   OH223691   2.643   3.742   5.874  0.2297  0.3525  0.4088
  759TIP3    H123692   2.704   3.810   5.905  1.1697 -0.4411  0.3507
  759TIP3    H223693   2.606   3.778   5.793  0.7713  0.7656  0.3379
  760TIP3   OH223694   5.331   1.553  16.324  0.6916  0.1982 -0.2818
  760TIP3    H123695   5.274   1.619  16.366  1.1140  0.0751  0.5066
  760TIP3    H223696   5.272   1.480  16.304  0.1640  0.9084 -1.4048
  761TIP3   OH223697   0.893   0.915  13.850  0.3931  0.0912 -0.0161
  761TIP3    H123698   0.814   0.867  13.872  1.0731 -0.3979  1.4389
  761TIP3    H223699   0.965   0.857  13.874  1.2148  0.5507 -1.2536
  762TIP3   OH223700   1.290   0.838  13.207  0.2759  0.0332 -0.1271
  762TIP3    H123701   1.372   0.851  13.255  0.0454 -0.9173  0.5581
  762TIP3    H223702   1.313   0.855  13.116  0.9671  0.8618  0.1920
  763TIP3   OH223703   2.094   2.728  11.634 -0.3948  0.2701  0.3978
  763TIP3    H123704   2.130   2.737  11.722  0.4367  1.1606 -0.0177
  763TIP3    H223705   2.157   2.773  11.578 -0.1789 -1.4952 -0.8492
  764TIP3   OH223706   5.365   3.573   3.445  0.1641 -0.5852 -0.6529
  764TIP3    H123707   5.322   3.491   3.469  0.2042 -1.4737 -3.2627
  764TIP3    H223708   5.451   3.546   3.412  0.8571  0.6937  0.0307
  765TIP3   OH223709   3.683   3.974  11.358 -0.2780 -0.1054 -0.3019
  765TIP3    H123710   3.704   3.886  11.326 -1.7816 -0.7661  0.4079
  765TIP3    H223711   3.635   4.015  11.286 -0.3913 -0.2188 -0.2922
  766TIP3   OH223712   4.746   4.991  15.719 -0.1188 -0.4020  0.2292
  766TIP3    H123713   4.828   4.971  15.676 -1.1372 -0.6929 -1.6726
  766TIP3    H223714   4.720   5.077  15.687 -0.9886 -0.6961  0.0930
  767TIP3   OH223715   6.408   6.551   1.861 -0.0705  0.5155  0.2501
  767TIP3    H123716   6.442   6.484   1.921 -0.6516  0.1846  0.2161
  767TIP3    H223717   6.461   6.540   1.782 -1.2664 -1.0716 -0.3933
  768TIP3   OH223718   1.830   2.587   3.503 -0.1936 -0.2766  0.0947
  768TIP3    H123719   1.910   2.623   3.465  0.3104 -1.1221  0.3167
  768TIP3    H223720   1.776   2.663   3.525  0.6597  0.3111  0.1714
  769TIP3   OH223721   4.540   1.100   5.457  0.8134 -0.1045  0.2046
  769TIP3    H123722   4.619   1.076   5.408  1.3291  2.3396 -0.3204
  769TIP3    H223723   4.468   1.084   5.396  1.2068  0.4514 -0.4263
  770TIP3   OH223724   1.045   1.455  16.788 -0.4139 -0.0123 -0.6068
  770TIP3    H123725   1.138   1.479  16.788 -0.7635  1.4567 -0.3664
  770TIP3    H223726   1.015   1.474  16.876 -1.9253  3.9772 -1.7406
  771TIP3   OH223727   3.560   5.057  16.830 -0.5389 -0.0651  0.8982
  771TIP3    H123728   3.618   4.992  16.870  0.0899 -0.5164 -0.6827
  771TIP3    H223729   3.530   5.017  16.749 -0.4822  1.4392  0.0926
  772TIP3   OH223730   1.862   2.580   1.844  0.3779 -0.3722 -0.0621
  772TIP3    H123731   1.795   2.638   1.809  0.1371 -0.9734 -0.6295
  772TIP3    H223732   1.917   2.636   1.900  0.7697  0.6161 -1.3895
  773TIP3   OH223733   1.904   1.941   0.378 -0.2090  0.4479  0.7151
  773TIP3    H123734   1.921   1.916   0.469 -1.3136 -1.5984  0.4322
  773TIP3    H223735   1.989   1.964   0.342  0.9627 -2.7552  1.1652
  774TIP3   OH223736   3.642   6.096  17.032 -0.3328  0.6288  0.0956
  774TIP3    H123737   3.716   6.062  16.982 -0.0032 -0.3371  1.2032
  774TIP3    H223738   3.665   6.186  17.052  0.4743  0.3834  0.2904
  775TIP3   OH223739   2.689   4.029  12.726  0.1027 -0.4671 -0.0620
  775TIP3    H123740   2.635   3.950  12.721  0.0159 -0.3941 -0.3234
  775TIP3    H223741   2.688   4.063  12.637 -3.0940  2.0144  0.7491
  776TIP3   OH223742   1.925   2.245   5.307  0.2570 -0.0323 -0.0583
  776TIP3    H123743   1.934   2.175   5.372  0.1288  0.1349  0.1391
  776TIP3    H223744   1.993   2.308   5.330 -0.1146  0.2698  0.2217
  777TIP3   OH223745   1.257   4.602   0.206 -0.4318 -0.0154 -0.6971
  777TIP3    H123746   1.289   4.556   0.283  1.2855  0.0399 -1.3129
  777TIP3    H223747   1.171   4.564   0.188 -0.8692 -0.0266  1.2114
  778TIP3   OH223748   4.998   4.722   4.482 -0.5253 -0.3370 -0.1283
  778TIP3    H123749   4.909   4.687   4.487 -0.2337 -1.0133  0.7418
  778TIP3    H223750   5.030   4.696   4.396 -0.8001 -1.0337 -0.0284
  779TIP3   OH223751   2.369   6.013   2.541 -0.6077 -0.2659  0.7297
  779TIP3    H123752   2.405   6.076   2.603  0.0185 -0.7092  0.8277
  779TIP3    H223753   2.381   5.928   2.584  1.0947 -0.7229 -0.5696
  780TIP3   OH223754   5.161   4.310  16.979 -0.3045  0.3965 -0.0282
  780TIP3    H123755   5.129   4.375  16.916  0.4490  1.8009  0.9767
  780TIP3    H223756   5.216   4.252  16.928 -0.3993  0.9908 -0.8217
  781TIP3   OH223757   1.591   5.137   3.863 -0.1853  0.8051  0.7881
  781TIP3    H123758   1.641   5.150   3.943  0.6375  0.9180  0.2692
  781TIP3    H223759   1.551   5.050   3.873  1.6404 -0.1265  0.4297
  782TIP3   OH223760   1.898   5.480   3.582  0.0164 -0.3683  0.2344
  782TIP3    H123761   1.885   5.458   3.490  0.7295 -1.8877  0.4486
  782TIP3    H223762   1.824   5.439   3.627  0.0512 -0.2521  0.3976
  783TIP3   OH223763   3.743   0.732  14.277  0.3362  0.2048 -0.0486
  783TIP3    H123764   3.746   0.740  14.181 -0.1476  0.1023 -0.0748
  783TIP3    H223765   3.696   0.811  14.305  0.5279  0.2626  0.1090
  784TIP3   OH223766   1.526   4.870   3.582  0.7248  0.0377  0.2318
  784TIP3    H123767   1.463   4.942   3.580  1.0809  0.3404 -0.3208
  784TIP3    H223768   1.476   4.794   3.554  0.4878  0.1820  0.2604
  785TIP3   OH223769   2.171   2.693   0.280  0.4093 -0.0544 -0.7075
  785TIP3    H123770   2.265   2.676   0.273  0.6816  0.0854  1.7514
  785TIP3    H223771   2.159   2.777   0.236  1.6558  0.4539 -0.1351
  786TIP3   OH223772   6.121   0.003  13.283 -0.0490  0.5035  0.1967
  786TIP3    H123773   6.040  -0.019  13.236  0.5463  2.4469 -1.8767
  786TIP3    H223774   6.090   0.048  13.362 -1.0011 -0.0938  0.1901
  787TIP3   OH223775   1.421   0.501   5.282  0.5156 -0.3860 -0.1386
  787TIP3    H123776   1.358   0.530   5.348  0.3771 -2.5342  0.7759
  787TIP3    H223777   1.370   0.443   5.225  1.2364 -0.7062 -0.4713
  788TIP3   OH223778   4.523   2.891  14.793 -0.1599  0.3500  0.4963
  788TIP3    H123779   4.488   2.805  14.770 -1.6374  1.2100 -0.6425
  788TIP3    H223780   4.515   2.895  14.889  2.1312 -1.6365  0.8691
  789TIP3   OH223781   5.031   2.795   4.273 -0.0279  0.5140 -0.3889
  789TIP3    H123782   5.056   2.880   4.308 -1.0602  0.2479  1.0903
  789TIP3    H223783   5.114   2.753   4.249  0.6625  1.0671  0.9578
  790TIP3   OH223784   4.718   5.573  11.811  0.2769 -0.1952  0.2111
  790TIP3    H123785   4.686   5.663  11.809  0.3145 -0.1107  1.7745
  790TIP3    H223786   4.683   5.532  11.732  0.8742  1.3840 -0.9133
  791TIP3   OH223787   6.512   3.735  17.154 -0.0196 -0.4553 -1.0788
  791TIP3    H123788   6.526   3.827  17.177  0.9794  0.0802 -3.5450
  791TIP3    H223789   6.600   3.699  17.144 -0.4004 -1.2071 -1.8264
  792TIP3   OH223790   5.769   3.051   1.487  0.1680  0.7273  0.0204
  792TIP3    H123791   5.722   3.042   1.404 -1.0522  0.4681  0.7300
  792TIP3    H223792   5.855   3.086   1.461  0.3086 -0.6189 -1.4811
  793TIP3   OH223793   4.492   2.494  15.039 -0.2733  0.3178 -0.1311
  793TIP3    H123794   4.445   2.427  14.989  0.5548  0.6789 -1.4347
  793TIP3    H223795   4.555   2.531  14.977  0.1623  1.4245  0.9284
  794TIP3   OH223796   3.062   0.141  11.990 -0.5186 -0.4602 -0.1003
  794TIP3    H123797   2.998   0.074  11.966  1.8990 -2.8804 -0.2986
  794TIP3    H223798   3.147   0.097  11.982  1.0874  1.9159  2.1882
  795TIP3   OH223799   2.663   1.167  16.009  0.3882  0.1288 -0.6708
  795TIP3    H123800   2.753   1.140  16.026  0.3448 -0.5622 -1.4713
  795TIP3    H223801   2.648   1.241  16.068  1.1942 -0.2913  0.0850
  796TIP3   OH223802   6.556   2.408  12.526 -0.0623 -0.2234 -0.2617
  796TIP3    H123803   6.525   2.368  12.607  0.7383 -0.9030 -0.2780
  796TIP3    H223804   6.583   2.496  12.552 -2.6733  0.7016 -0.3971
  797TIP3   OH223805   4.177   0.213  11.375  0.3575  0.3459  0.4289
  797TIP3    H123806   4.227   0.292  11.394 -1.5955  1.6314  0.5292
  797TIP3    H223807   4.190   0.197  11.282  2.0919 -0.2391  0.7318
  798TIP3   OH223808   0.097   4.129   3.390  0.0807 -0.0218  0.0494
  798TIP3    H123809   0.075   4.221   3.402 -1.9999 -0.5151  0.4298
  798TIP3    H223810   0.066   4.086   3.470 -0.4309 -1.2578 -0.7727
  799TIP3   OH223811   3.307   4.194   4.595  0.3090 -0.1421  0.0469
  799TIP3    H123812   3.234   4.241   4.553 -0.9060 -1.9772 -0.0047
  799TIP3    H223813   3.385   4.240   4.565 -0.7099  0.5622 -1.6747
  800TIP3   OH223814   3.992   6.288  12.487  0.0494 -0.6825 -0.4272
  800TIP3    H123815   4.081   6.261  12.509 -0.2261 -0.6452  0.8286
  800TIP3    H223816   3.971   6.356  12.551 -0.3584  0.3782 -1.6462
  801TIP3   OH223817   3.165   2.779   1.196 -0.7697 -0.0077 -0.0964
  801TIP3    H123818   3.256   2.796   1.219 -0.6693  0.4708 -0.8124
  801TIP3    H223819   3.155   2.684   1.208  0.0247 -0.1797 -0.6861
  802TIP3   OH223820   3.231   0.851   2.457  0.2063 -0.5723 -0.0681
  802TIP3    H123821   3.252   0.905   2.534  0.3150  2.2964 -1.9477
  802TIP3    H223822   3.314   0.813   2.430  0.3313 -0.8321  0.6621
  803TIP3   OH223823   6.549   5.473   2.763 -0.2686  0.2203  0.3075
  803TIP3    H123824   6.579   5.563   2.753 -0.1340  0.3046  1.3622
  803TIP3    H223825   6.629   5.421   2.763 -0.3693  0.0345 -0.7576
  804TIP3   OH223826   6.434   5.736   5.051 -0.4165 -0.5656  0.0340
  804TIP3    H123827   6.509   5.775   5.094 -1.5435  1.3668  0.3847
  804TIP3    H223828   6.434   5.773   4.963 -0.9565 -0.5400  0.0392
  805TIP3   OH223829   2.168   6.197  11.551  0.3031 -0.2032  0.5788
  805TIP3    H123830   2.090   6.252  11.560  0.2510 -0.1586 -0.0572
  805TIP3    H223831   2.140   6.110  11.579  0.3941  0.0959  1.6233
  806TIP3   OH223832   6.262   6.753  15.816  0.4078 -0.5099  0.4964
  806TIP3    H123833   6.274   6.752  15.911 -1.2432  0.5799  0.7562
  806TIP3    H223834   6.171   6.783  15.803  1.2446  1.4681 -1.4624
  807TIP3   OH223835   3.290   5.442  13.252 -0.4549 -0.0912  0.3163
  807TIP3    H123836   3.350   5.505  13.211  0.2132  0.7058  2.3406
  807TIP3    H223837   3.207   5.489  13.259 -0.7772 -0.4872 -0.7277
  808TIP3   OH223838   1.224   3.620  11.960 -0.4404  0.0912  0.0851
  808TIP3    H123839   1.163   3.546  11.956  1.0169 -1.1289 -0.9095
  808TIP3    H223840   1.221   3.658  11.872  1.1930 -0.8523 -0.4223
  809TIP3   OH223841   3.080   3.192  14.417 -0.1904  0.5244  0.7460
  809TIP3    H123842   3.172   3.202  14.394 -0.3322 -0.0094 -0.0639
  809TIP3    H223843   3.037   3.162  14.337 -0.8236 -0.6824  1.4987
  810TIP3   OH223844   4.266   0.324  12.683 -0.1699 -0.0325 -0.3380
  810TIP3    H123845   4.267   0.395  12.747  1.1072  0.0629 -0.4432
  810TIP3    H223846   4.243   0.366  12.600 -0.1565  0.1216 -0.2634
  811TIP3   OH223847   3.936   5.348  11.395 -0.3699  0.0276  0.4360
  811TIP3    H123848   3.857   5.371  11.347  0.8990  1.9029 -0.9477
  811TIP3    H223849   3.962   5.263  11.361 -1.0083  0.0611 -0.1397
  812TIP3   OH223850   1.429   5.375   0.760  0.0526  0.1771 -0.0926
  812TIP3    H123851   1.391   5.458   0.787  2.0066  1.0712  0.0259
  812TIP3    H223852   1.443   5.384   0.666 -1.5540 -0.8156 -0.4730
  813TIP3   OH223853   0.861   0.905  13.571 -0.1877 -0.8414 -0.0686
  813TIP3    H123854   0.864   0.973  13.638 -0.2718 -0.6651 -0.2420
  813TIP3    H223855   0.916   0.834  13.605  5.9119  1.8651 -2.7645
  814TIP3   OH223856   6.299   1.970   5.932 -0.0465 -0.6751 -0.4294
  814TIP3    H123857   6.246   1.910   5.879  0.8987 -2.4113  0.5213
  814TIP3    H223858   6.306   1.927   6.017  2.0063  0.0086 -0.1994
  815TIP3   OH223859   5.815   1.160   1.984  0.1719  0.4359  0.2216
  815TIP3    H123860   5.809   1.099   1.910  0.9565  0.3794  0.1977
  815TIP3    H223861   5.810   1.104   2.061  1.0874  0.3075  0.1993
  816TIP3   OH223862   2.638   6.314   3.749  0.3602 -0.2734  0.4038
  816TIP3    H123863   2.599   6.228   3.764 -1.5777  0.4919  0.1525
  816TIP3    H223864   2.713   6.297   3.692  0.3247 -1.8388  0.7855
  817TIP3   OH223865   2.584   3.581   2.632 -0.5305  0.3963 -0.3566
  817TIP3    H123866   2.629   3.583   2.548  0.5965  1.8053  0.2408
  817TIP3    H223867   2.621   3.505   2.677 -1.3066 -0.5044 -1.1782
  818TIP3   OH223868   2.909   1.753   3.260  0.0648 -0.0522 -0.6165
  818TIP3    H123869   2.904   1.668   3.218 -0.9316 -0.0610 -0.5057
  818TIP3    H223870   2.915   1.816   3.188 -3.1285  0.0542 -0.9569
  819TIP3   OH223871   0.158   3.571  12.624  0.1848  0.2781  0.2052
  819TIP3    H123872   0.252   3.574  12.603  0.6804  0.6107  2.2213
  819TIP3    H223873   0.135   3.479  12.617  0.2987  0.3568 -1.6212
  820TIP3   OH223874   1.932   3.539  11.247 -0.0504  0.1785  0.5156
  820TIP3    H123875   1.871   3.465  11.249  0.9451 -0.6797  0.3634
  820TIP3    H223876   1.891   3.603  11.189  0.1315 -1.2474 -1.2902
  821TIP3   OH223877   1.081   4.995   4.188 -0.5779 -0.5676 -0.2351
  821TIP3    H123878   1.121   5.067   4.138 -1.8439 -0.7895 -1.6399
  821TIP3    H223879   1.084   4.920   4.129  0.8706 -1.7704  1.2693
  822TIP3   OH223880   1.194   6.532  12.743 -0.3717  0.2287 -0.2048
  822TIP3    H123881   1.146   6.545  12.661  0.5610 -0.2447 -0.8371
  822TIP3    H223882   1.258   6.603  12.745  0.0452 -0.1455 -0.2063
  823TIP3   OH223883   1.553   1.978   1.042 -0.3826 -0.0745 -0.2281
  823TIP3    H123884   1.640   2.011   1.020  0.0025 -0.6439  0.4090
  823TIP3    H223885   1.557   1.884   1.023 -0.1218 -0.5436  1.8656
  824TIP3   OH223886   0.897   6.579   1.578 -0.4085  0.3475  0.4569
  824TIP3    H123887   0.939   6.581   1.664  0.6275  0.0791 -0.0214
  824TIP3    H223888   0.858   6.492   1.571  0.9201 -0.2416  0.0290
  825TIP3   OH223889   2.848   0.684  10.702  0.1774 -0.3769  0.0752
  825TIP3    H123890   2.830   0.647  10.615  0.2103  0.5858 -0.3493
  825TIP3    H223891   2.939   0.713  10.696 -0.3473  1.2980 -0.1634
  826TIP3   OH223892   0.283   2.524   0.291 -0.1926 -0.1570 -0.7138
  826TIP3    H123893   0.290   2.553   0.382 -0.0354  1.5775 -1.2367
  826TIP3    H223894   0.249   2.435   0.296  0.9648 -0.5351  1.0835
  827TIP3   OH223895   6.656   2.563   3.567  0.2699  0.3158 -0.5414
  827TIP3    H123896   6.731   2.577   3.508  0.2435 -0.7671 -0.8554
  827TIP3    H223897   6.589   2.623   3.535  0.8940  1.0815 -0.4479
  828TIP3   OH223898   3.748   3.009   2.422 -0.5027 -0.0775 -0.2122
  828TIP3    H123899   3.786   3.012   2.334 -0.7551 -2.1148 -0.4324
  828TIP3    H223900   3.769   2.921   2.454 -0.4058  0.6265  1.7859
  829TIP3   OH223901   2.729   5.780   4.006 -0.0269  0.1864  0.1324
  829TIP3    H123902   2.821   5.778   4.034  0.7239  0.0734 -2.1305
  829TIP3    H223903   2.701   5.870   4.023 -0.0365 -0.1769  2.2999
  830TIP3   OH223904   5.650   2.861  11.623  0.1881 -0.1784 -0.4434
  830TIP3    H123905   5.663   2.779  11.670 -1.0537 -0.2710 -0.2191
  830TIP3    H223906   5.725   2.916  11.648 -1.0985  0.3139  2.8437
  831TIP3   OH223907   6.127   0.992  17.015 -0.5181  0.4884  0.1421
  831TIP3    H123908   6.101   1.084  17.021 -1.6548  0.3777 -2.1309
  831TIP3    H223909   6.194   0.990  16.947  0.4674 -0.2336  1.0898
  832TIP3   OH223910   1.390   2.230   4.167 -0.1460  0.0116  0.0227
  832TIP3    H123911   1.473   2.253   4.210  0.2052  0.3643 -0.8114
  832TIP3    H223912   1.334   2.198   4.237  0.5870  0.0927  0.6536
  833TIP3   OH223913   1.615   5.461   4.010  0.0706 -0.0301  0.3237
  833TIP3    H123914   1.548   5.520   3.975  0.3010  0.2471  0.3401
  833TIP3    H223915   1.566   5.387   4.046 -0.1073 -1.2429 -2.2028
  834TIP3   OH223916   2.475   3.657   3.343 -0.1414 -0.3381 -0.0310
  834TIP3    H123917   2.466   3.691   3.254 -0.0431 -0.9953 -0.2976
  834TIP3    H223918   2.567   3.671   3.365 -0.1952 -0.0545  0.0207
  835TIP3   OH223919   3.374   2.124   3.315  0.3123  0.2775 -0.0644
  835TIP3    H123920   3.366   2.052   3.252 -2.7698  0.6893 -0.2915
  835TIP3    H223921   3.306   2.107   3.379  0.8873  1.9363  1.0450
  836TIP3   OH223922   2.988   4.148  10.817 -0.1473  0.0052 -0.4686
  836TIP3    H123923   2.963   4.222  10.761 -0.3837 -1.3045 -2.2100
  836TIP3    H223924   2.923   4.080  10.796  2.0180 -1.8761 -1.5942
  837TIP3   OH223925   5.631   2.855   3.544  0.3626  0.2967 -0.0728
  837TIP3    H123926   5.601   2.928   3.490 -0.1385  0.6745  0.7100
  837TIP3    H223927   5.603   2.877   3.633  0.7331 -0.5612  0.2670
  838TIP3   OH223928   5.131   4.591   4.932 -0.1974 -0.1944  0.2014
  838TIP3    H123929   5.057   4.574   4.873  0.7641  1.3504 -1.5491
  838TIP3    H223930   5.159   4.504   4.961 -1.7170 -0.8955 -0.3082
  839TIP3   OH223931   2.880   1.236  11.301 -0.5807 -0.4737 -0.2135
  839TIP3    H123932   2.915   1.298  11.365 -0.8760 -0.1659 -0.3497
  839TIP3    H223933   2.928   1.155  11.318  0.8611  0.1831 -1.0135
  840TIP3   OH223934   3.241   5.814  13.042 -0.0383 -0.4062 -0.1129
  840TIP3    H123935   3.207   5.860  13.119 -1.4209  0.8784 -1.4430
  840TIP3    H223936   3.270   5.729  13.077 -1.2466 -0.1263  1.7147
  841TIP3   OH223937   4.172   4.796  12.003  0.3732  0.1471 -0.5837
  841TIP3    H123938   4.209   4.876  12.040 -0.9951 -0.0373  1.3278
  841TIP3    H223939   4.246   4.736  11.994  1.1784  1.1473 -0.6823
  842TIP3   OH223940   3.428   2.336   1.762  0.9077 -0.0146  0.2573
  842TIP3    H123941   3.458   2.426   1.772 -1.0776  0.5825  1.2988
  842TIP3    H223942   3.348   2.331   1.815  0.5138 -2.1561 -0.4431
  843TIP3   OH223943   5.973   4.185  16.481  0.1545  0.4892 -0.0050
  843TIP3    H123944   6.049   4.149  16.436 -0.3534 -0.0882 -0.4314
  843TIP3    H223945   5.992   4.172  16.574  0.7052  0.6336 -0.0928
  844TIP3   OH223946   2.594   3.433  13.858 -0.4036  0.1602  0.1553
  844TIP3    H123947   2.681   3.452  13.891 -0.2881  0.6634 -0.4177
  844TIP3    H223948   2.548   3.393  13.932  0.3467 -0.2241  0.4182
  845TIP3   OH223949   4.706   2.874   0.683  0.1393  0.1012 -0.1542
  845TIP3    H123950   4.656   2.892   0.603  0.8964 -2.9178 -1.4496
  845TIP3    H223951   4.648   2.900   0.754 -1.7873  0.1595 -1.6548
  846TIP3   OH223952   5.338   5.246   1.944  0.3326  0.3460  0.2305
  846TIP3    H123953   5.316   5.292   2.025 -2.1629 -0.4930  0.1205
  846TIP3    H223954   5.319   5.309   1.874 -0.8886 -0.0637  0.1770
  847TIP3   OH223955   3.750   1.704  13.548  0.8576  0.0499  0.0877
  847TIP3    H123956   3.710   1.664  13.471  1.0654  0.8715 -0.4591
  847TIP3    H223957   3.691   1.776  13.571 -0.0504 -1.1323  1.6688
  848TIP3   OH223958   5.018   6.184   1.087 -0.1836 -0.0918 -0.1029
  848TIP3    H123959   4.925   6.202   1.077 -0.6897 -0.5160  2.9764
  848TIP3    H223960   5.021   6.103   1.138  1.8994 -0.4079 -0.6422
  849TIP3   OH223961   1.580   5.797   3.266  0.3311 -0.3167  0.4569
  849TIP3    H123962   1.548   5.709   3.286  0.1155 -0.4396 -0.3619
  849TIP3    H223963   1.505   5.841   3.226  0.5994  0.0481  0.3495
  850TIP3   OH223964   6.458   1.475  16.249  0.4744  0.6460  0.6441
  850TIP3    H123965   6.463   1.516  16.335  0.9444  0.9888  0.4589
  850TIP3    H223966   6.376   1.508  16.212  1.5444  2.6450 -0.0992
  851TIP3   OH223967   5.462   0.098   0.738 -1.0517 -0.3412  0.6831
  851TIP3    H123968   5.518   0.050   0.798  0.0525 -1.8016 -1.4124
  851TIP3    H223969   5.509   0.180   0.721 -1.0939 -0.1799  1.3062
  852TIP3   OH223970   4.896   4.773   3.266 -0.6090 -0.0670  0.9717
  852TIP3    H123971   4.830   4.841   3.280 -0.5467 -0.1565  1.7724
  852TIP3    H223972   4.978   4.812   3.296 -0.0440  0.4748 -1.1415
  853TIP3   OH223973   2.474   0.065   0.379 -0.1864  0.4815  0.0023
  853TIP3    H123974   2.382   0.092   0.384 -0.1861  0.5160 -0.1779
  853TIP3    H223975   2.508   0.079   0.467  0.1146  2.1396 -0.3307
  854TIP3   OH223976   3.000   3.184   6.551 -0.4711  0.8194 -0.3328
  854TIP3    H123977   3.020   3.114   6.613 -1.3187  0.0810 -0.8573
  854TIP3    H223978   3.084   3.207   6.512 -0.2151 -0.1285 -0.3659
  855TIP3   OH223979   0.200   1.913  13.632 -0.2901 -0.3185  0.4139
  855TIP3    H123980   0.121   1.860  13.625 -0.5497  0.1558 -0.2949
  855TIP3    H223981   0.256   1.881  13.561 -0.1327 -0.1617  0.4677
  856TIP3   OH223982   3.846   0.147   4.977 -0.0173  0.1349 -0.3301
  856TIP3    H123983   3.932   0.167   4.940  0.3296  0.2607  0.5364
  856TIP3    H223984   3.816   0.071   4.927  1.2291 -0.8075  0.3038
  857TIP3   OH223985   3.225   3.464  13.054 -0.8118 -0.1932 -0.7074
  857TIP3    H123986   3.268   3.419  13.126  0.3472  1.0751 -0.5494
  857TIP3    H223987   3.225   3.401  12.982  1.7962 -0.1554 -0.8519
  858TIP3   OH223988   3.277   3.432  15.359  0.6722  0.3387  0.0021
  858TIP3    H123989   3.269   3.457  15.267  1.9572  0.2292 -0.1623
  858TIP3    H223990   3.371   3.415  15.371  0.3336 -1.0926  0.9495
  859TIP3   OH223991   3.401   4.295   6.646  0.3306  0.1247 -0.2121
  859TIP3    H123992   3.308   4.313   6.634  0.3918 -0.0369 -0.9878
  859TIP3    H223993   3.442   4.381   6.645 -0.0312  0.3972  2.4592
  860TIP3   OH223994   1.747   0.694   3.664  0.2109 -0.1105  0.0540
  860TIP3    H123995   1.780   0.783   3.666 -0.1816  0.0320  0.8340
  860TIP3    H223996   1.660   0.702   3.624  1.0554 -0.4782 -1.9628
  861TIP3   OH223997   5.941   5.720   0.666  0.0362 -0.2282 -0.4894
  861TIP3    H123998   5.879   5.766   0.723 -0.9484 -1.3404 -0.6226
  861TIP3    H223999   6.027   5.740   0.703 -0.4469  0.6905  0.1803
  862TIP3   OH224000   3.496   6.051   2.872 -0.6345  0.1929 -0.2846
  862TIP3    H124001   3.545   6.034   2.792 -0.5627  0.4667 -0.2996
  862TIP3    H224002   3.502   5.969   2.922  2.2360  1.0384  0.9739
  863TIP3   OH224003   0.093   0.062  11.585 -0.2045 -0.0185 -0.4763
  863TIP3    H124004   0.075  -0.013  11.530 -1.7005  0.1250 -0.2326
  863TIP3    H224005   0.010   0.080  11.629  0.2055  1.5763 -0.2882
  864TIP3   OH224006   2.012   3.289   5.030 -0.1286 -0.1696 -0.1301
  864TIP3    H124007   2.052   3.375   5.017 -1.1107  0.3202 -0.0104
  864TIP3    H224008   2.050   3.233   4.963  2.1984 -0.2462  1.1607
  865TIP3   OH224009   6.458   6.340  15.970 -0.3560 -0.0586 -0.0125
  865TIP3    H124010   6.442   6.305  15.883  0.4600 -1.2876  0.3062
  865TIP3    H224011   6.389   6.303  16.025  0.1795 -0.7466  0.2116
  866TIP3   OH224012   0.232   3.265   4.442 -0.5037 -0.4081  0.3430
  866TIP3    H124013   0.315   3.299   4.475 -0.8547  0.1084  0.7099
  866TIP3    H224014   0.165   3.318   4.485 -0.9908  0.0523 -0.9334
  867TIP3   OH224015   3.586   0.565   0.476  0.2707 -0.5036  0.4428
  867TIP3    H124016   3.540   0.491   0.436  0.2133 -0.6447  0.7724
  867TIP3    H224017   3.517   0.626   0.500  0.3551 -0.1077 -0.3054
  868TIP3   OH224018   1.560   5.173  13.296  0.2910  0.1275 -0.3261
  868TIP3    H124019   1.539   5.138  13.383 -1.6572  1.4406 -0.2029
  868TIP3    H224020   1.489   5.143  13.240 -0.6687  2.5498 -0.5178
  869TIP3   OH224021   3.537   0.284   2.306 -0.1165 -0.4016  0.1058
  869TIP3    H124022   3.588   0.234   2.243  1.7973  0.6973  0.6952
  869TIP3    H224023   3.452   0.241   2.309 -0.1665 -0.7048 -2.9511
  870TIP3   OH224024   5.659   4.876   0.339  0.1783  0.0736 -0.2060
  870TIP3    H124025   5.663   4.782   0.320  2.1609  0.0118  0.2733
  870TIP3    H224026   5.577   4.905   0.299 -0.6321 -1.8999 -0.1253
  871TIP3   OH224027   5.596   4.497  11.494 -0.2354  0.3664  0.2756
  871TIP3    H124028   5.689   4.516  11.485  0.1009 -1.5970 -0.6978
  871TIP3    H224029   5.587   4.405  11.470 -2.2528  0.1652  1.5380
  872TIP3   OH224030   1.087   1.550  13.940 -0.2640  0.1040 -0.1688
  872TIP3    H124031   1.041   1.566  13.858 -0.6582  0.2362  0.0793
  872TIP3    H224032   1.086   1.634  13.985 -1.9129 -0.4719  0.9213
  873TIP3   OH224033   2.285   4.532   2.728  0.4025 -0.4271  0.1039
  873TIP3    H124034   2.346   4.490   2.789 -1.0876 -1.7885  0.7463
  873TIP3    H224035   2.230   4.460   2.696 -0.1972  0.5916 -1.2449
  874TIP3   OH224036   1.937   2.569   0.879 -0.4169  0.6369 -0.4250
  874TIP3    H124037   1.891   2.583   0.962 -0.8606  1.2396 -0.7692
  874TIP3    H224038   1.867   2.561   0.814 -0.0614  0.4556 -0.7908
  875TIP3   OH224039   0.958   0.237  11.098  0.3359  0.1163 -0.2427
  875TIP3    H124040   0.988   0.313  11.147  0.3863  0.3878 -0.6852
  875TIP3    H224041   1.039   0.195  11.067  0.2956  0.1353 -0.3739
  876TIP3   OH224042   5.100   1.030  15.811  0.2619 -0.8810  0.7212
  876TIP3    H124043   5.172   1.091  15.828  0.0415 -0.8590  1.6712
  876TIP3    H224044   5.070   1.052  15.723  1.1389 -0.6094  0.4811
  877TIP3   OH224045   2.954   5.501  12.569 -0.2830 -0.0009  0.3147
  877TIP3    H124046   2.998   5.425  12.607 -2.6430 -1.5802  0.0992
  877TIP3    H224047   2.957   5.486  12.475  1.5405  1.5916  0.0572
  878TIP3   OH224048   5.241   6.746   0.263  0.1969  0.0128  0.0756
  878TIP3    H124049   5.200   6.740   0.349  0.2097 -1.1018  0.0231
  878TIP3    H224050   5.180   6.799   0.211  0.0354  0.4264  0.6754
  879TIP3   OH224051   5.958   2.370   2.977  0.7993  0.2292 -0.4144
  879TIP3    H124052   5.966   2.323   2.894  1.0309 -2.9473  1.2530
  879TIP3    H224053   5.864   2.368   2.997  0.9143 -0.3898  0.0963
  880TIP3   OH224054   3.664   4.778   6.616  0.7139  0.2818  0.6304
  880TIP3    H124055   3.754   4.804   6.635  1.5764 -1.6907 -0.4106
  880TIP3    H224056   3.622   4.770   6.702  2.2487 -1.0486  1.3037
  881TIP3   OH224057   3.652   6.063  11.149 -0.0582  0.2628 -0.5753
  881TIP3    H124058   3.658   6.132  11.215 -0.0021 -0.2318 -0.0554
  881TIP3    H224059   3.732   6.070  11.097 -0.4815  1.1840 -1.1247
  882TIP3   OH224060   6.087   3.660   2.940  0.5352  0.6929  0.4683
  882TIP3    H124061   6.151   3.667   3.012  1.3331  0.1457 -0.1671
  882TIP3    H224062   6.098   3.571   2.907 -0.4295  0.6626  0.2150
  883TIP3   OH224063   0.833   0.425   1.136 -0.1974 -0.2496 -0.2392
  883TIP3    H124064   0.854   0.472   1.217 -1.8811  0.5760 -0.2402
  883TIP3    H224065   0.780   0.486   1.086 -0.9140 -1.5004 -1.0585
  884TIP3   OH224066   2.451   6.368   0.192  0.5369  0.0167 -0.1228
  884TIP3    H124067   2.510   6.300   0.225  1.2575  0.6160 -0.1474
  884TIP3    H224068   2.480   6.382   0.101  0.1415  0.0870 -0.2412
  885TIP3   OH224069   2.619   3.248  12.426 -0.3402  0.1291 -0.6867
  885TIP3    H124070   2.571   3.208  12.353 -0.6547  0.9431 -0.9299
  885TIP3    H224071   2.581   3.335  12.435 -0.8729 -0.2512  0.9954
  886TIP3   OH224072   1.306   3.670  14.551 -0.7119 -0.2486  0.0968
  886TIP3    H124073   1.301   3.725  14.629  0.9511 -0.1842  0.1945
  886TIP3    H224074   1.304   3.732  14.478 -0.5307 -0.1758  0.1520
  887TIP3   OH224075   4.146   0.531   3.403  0.8248 -0.2636 -0.0861
  887TIP3    H124076   4.147   0.490   3.317  1.1290 -1.2491  0.3710
  887TIP3    H224077   4.054   0.530   3.429  1.1351 -4.0204  1.4291
  888TIP3   OH224078   0.668   4.843   0.358 -0.5135  0.2182 -0.7200
  888TIP3    H124079   0.583   4.866   0.321 -0.9381 -0.8637 -0.4304
  888TIP3    H224080   0.650   4.772   0.419  0.2897  1.4142  1.0068
  889TIP3   OH224081   2.290   1.789   5.071 -0.0994  0.0469 -0.0044
  889TIP3    H124082   2.335   1.868   5.042  1.6111  0.7071  3.8581
  889TIP3    H224083   2.215   1.821   5.121 -0.9899 -0.8964 -0.6881
  890TIP3   OH224084   0.154   1.204  12.622  0.8987  0.0837 -0.5012
  890TIP3    H124085   0.170   1.123  12.670  0.2995  0.0067 -0.4204
  890TIP3    H224086   0.191   1.272  12.677 -0.9000  0.1368  0.7303
  891TIP3   OH224087   0.081   1.971  13.959 -0.2643  0.8690  0.1055
  891TIP3    H124088   0.114   2.007  14.042  0.0843 -0.3367  0.5122
  891TIP3    H224089   0.020   1.902  13.986 -0.7408  0.9833 -0.6543
  892TIP3   OH224090   0.118   0.279   5.381 -0.1281 -0.1831  0.7753
  892TIP3    H124091   0.044   0.282   5.321  0.1294 -1.8098  0.3437
  892TIP3    H224092   0.194   0.300   5.326 -0.0301 -0.5312  0.7767
  893TIP3   OH224093   1.957   2.198  13.551 -0.5996  0.0465 -0.6203
  893TIP3    H124094   1.882   2.216  13.606  0.1481 -1.6090  1.0455
  893TIP3    H224095   2.025   2.166  13.611  0.4432 -1.3319 -2.3995
  894TIP3   OH224096   3.095   2.308   3.736  0.1825  0.7312  0.3609
  894TIP3    H124097   3.190   2.308   3.747  0.2445  0.5733 -0.1163
  894TIP3    H224098   3.069   2.217   3.747  0.0074  0.8659  1.0871
  895TIP3   OH224099   5.788   6.403  13.376 -0.0211 -0.3870 -0.2660
  895TIP3    H124100   5.765   6.444  13.459 -1.1124 -0.1685 -0.6667
  895TIP3    H224101   5.705   6.371  13.340 -0.2503  2.7487 -3.0261
  896TIP3   OH224102   6.629   6.207  16.307 -0.0476 -0.6190 -0.2182
  896TIP3    H124103   6.667   6.295  16.309  1.2587 -1.1219 -1.2500
  896TIP3    H224104   6.551   6.214  16.361  0.9725  0.7216  1.1772
  897TIP3   OH224105   3.925   4.490   3.920  0.5537  0.0822  0.0863
  897TIP3    H124106   3.848   4.533   3.883  1.5212  1.6329 -0.2139
  897TIP3    H224107   3.980   4.470   3.845  0.0618 -1.9453  0.1948
  898TIP3   OH224108   0.607   2.039  13.611  0.4920 -0.1328 -0.0715
  898TIP3    H124109   0.656   2.115  13.641  1.5410 -0.4878 -0.8058
  898TIP3    H224110   0.565   2.068  13.530  0.9458 -0.3325 -0.3874
  899TIP3   OH224111   6.428   4.168  11.863 -0.0097 -0.4761  0.4552
  899TIP3    H124112   6.388   4.233  11.920 -0.5979  0.5299 -1.0494
  899TIP3    H224113   6.363   4.098  11.856  0.1206 -0.6704  1.0930
  900TIP3   OH224114   1.431   3.223  15.428 -0.0135 -0.2845  0.1272
  900TIP3    H124115   1.390   3.198  15.346 -0.4451  0.1054  0.2201
  900TIP3    H224116   1.490   3.295  15.404  0.5172 -0.7519  0.0175
  901TIP3   OH224117   2.021   4.487   1.968 -0.2886  0.3006  0.3105
  901TIP3    H124118   2.007   4.395   1.990 -0.2635  0.2801  0.2414
  901TIP3    H224119   2.039   4.487   1.874  3.3660 -0.0525  0.8814
  902TIP3   OH224120   1.715   2.520  10.339 -0.6777  0.2571 -0.4456
  902TIP3    H124121   1.731   2.482  10.253  1.0720  2.4381 -1.1647
  902TIP3    H224122   1.700   2.613  10.323 -0.4807  0.6910  1.5862
  903TIP3   OH224123   0.747   5.792   2.955  0.3995  0.1953 -0.4009
  903TIP3    H124124   0.773   5.766   2.867  0.3760 -1.0375 -0.0591
  903TIP3    H224125   0.692   5.720   2.986  2.2702 -0.5026  1.4848
  904TIP3   OH224126   1.578   5.582  13.614  0.5998 -0.4347 -1.1008
  904TIP3    H124127   1.620   5.564  13.698  0.3274 -1.0356 -1.0910
  904TIP3    H224128   1.607   5.511  13.557 -1.1402 -1.4362 -0.8303
  905TIP3   OH224129   2.103   5.130   0.922 -0.0844  0.5967  0.3062
  905TIP3    H124130   2.012   5.156   0.934 -0.7742 -1.5153  0.0382
  905TIP3    H224131   2.103   5.080   0.840  0.6305 -2.2552  1.9513
  906TIP3   OH224132   2.318   3.403   4.237  0.2664  0.2548 -1.0770
  906TIP3    H124133   2.353   3.339   4.298  1.3401 -0.9392 -2.8279
  906TIP3    H224134   2.225   3.383   4.231  0.1442  0.4134  0.1681
  907TIP3   OH224135   4.252   2.324  11.040 -0.5977  0.1586  0.2057
  907TIP3    H124136   4.246   2.262  10.967  2.7316  1.3803 -1.3261
  907TIP3    H224137   4.205   2.401  11.010 -0.4361  0.1534 -0.0676
  908TIP3   OH224138   0.753   0.259   4.290 -0.1932  0.1314 -0.0971
  908TIP3    H124139   0.744   0.201   4.214 -0.7717  0.5070 -0.3205
  908TIP3    H224140   0.682   0.232   4.349  0.1601 -0.0581  0.2404
  909TIP3   OH224141   1.017   2.003  15.194  0.2838  0.3874  0.1210
  909TIP3    H124142   0.944   2.026  15.137  0.2852 -0.1656 -0.1109
  909TIP3    H224143   0.982   1.933  15.250  0.1765  1.1466  1.0295
  910TIP3   OH224144   4.110   5.887  14.849 -0.2056  0.0871 -0.2632
  910TIP3    H124145   4.059   5.968  14.855  1.4009  1.2360 -1.1305
  910TIP3    H224146   4.201   5.916  14.853  0.4241 -1.6559 -0.8856
  911TIP3   OH224147   4.792   2.899   1.852  0.3006  0.2784 -0.1752
  911TIP3    H124148   4.807   2.953   1.930 -0.3867  1.6316 -0.9396
  911TIP3    H224149   4.723   2.946   1.804  0.9985 -0.2966 -1.7949
  912TIP3   OH224150   3.085   2.533  13.088  0.2738 -0.5661  0.2351
  912TIP3    H124151   3.131   2.560  13.168 -0.6842  0.8544  0.3343
  912TIP3    H224152   3.152   2.536  13.020  0.9673 -1.2429  0.8594
  913TIP3   OH224153   2.053   6.216  12.797 -0.4444  0.3479  0.1110
  913TIP3    H124154   1.998   6.246  12.868 -0.2727 -0.0703  0.4252
  913TIP3    H224155   2.089   6.296  12.758 -0.0212  0.5508  0.9095
  914TIP3   OH224156   2.024   2.896   2.633 -0.1515 -0.3752  0.0530
  914TIP3    H124157   2.044   2.923   2.722  1.0496  0.2003 -0.3720
  914TIP3    H224158   1.932   2.871   2.635 -0.6194  1.3226  1.0450
  915TIP3   OH224159   2.746   3.195   3.681  0.5313  0.0472  0.0212
  915TIP3    H124160   2.707   3.282   3.688 -2.7935 -0.9470 -3.0914
  915TIP3    H224161   2.732   3.155   3.766  1.4740  2.2439  1.2817
  916TIP3   OH224162   4.842   2.856   5.050  0.2148 -0.3935 -0.0368
  916TIP3    H124163   4.885   2.936   5.021  0.4889 -0.2888  0.6539
  916TIP3    H224164   4.769   2.844   4.988  0.7144 -0.1075 -0.6879
  917TIP3   OH224165   5.773   4.716   2.239  0.1693 -0.1148 -0.0279
  917TIP3    H124166   5.794   4.629   2.273 -0.1613 -0.0617  0.3137
  917TIP3    H224167   5.692   4.704   2.190  0.2831 -0.0581 -0.2285
  918TIP3   OH224168   3.989   4.297   5.189  0.1595 -0.5814  0.0730
  918TIP3    H124169   3.926   4.281   5.260 -1.0500  1.7421 -0.3943
  918TIP3    H224170   3.943   4.269   5.110  0.1938 -0.0731 -0.1313
  919TIP3   OH224171   3.864   6.292   4.824  0.9901 -0.1981 -0.4026
  919TIP3    H124172   3.890   6.255   4.909  0.9042 -2.2337 -1.2088
  919TIP3    H224173   3.790   6.349   4.845  1.5417  0.0498  1.0041
  920TIP3   OH224174   1.643   1.941   4.838  0.4464 -0.3415 -0.2943
  920TIP3    H124175   1.663   1.856   4.878  0.7923 -0.5634 -0.9240
  920TIP3    H224176   1.609   1.994   4.910 -1.6053 -1.6129 -0.2483
  921TIP3   OH224177   5.501   3.343   6.125 -0.0908  0.3752  0.4284
  921TIP3    H124178   5.441   3.343   6.050 -0.4435 -1.5742  0.6538
  921TIP3    H224179   5.517   3.250   6.142  0.3604  0.7903  2.4720
  922TIP3   OH224180   1.347   1.426  12.070  0.7608  0.2413 -0.3741
  922TIP3    H124181   1.298   1.505  12.048  0.0159 -0.1452 -0.1411
  922TIP3    H224182   1.297   1.355  12.029  1.0004 -0.1822  0.0520
  923TIP3   OH224183   5.436   2.465   0.103 -0.5232 -0.0439  0.2222
  923TIP3    H124184   5.468   2.429   0.020  0.2760  1.3920 -0.1220
  923TIP3    H224185   5.342   2.444   0.102 -1.2061  2.4374 -2.4812
  924TIP3   OH224186   3.018   6.266   4.427 -0.8893  0.1428 -0.4857
  924TIP3    H124187   2.937   6.218   4.445  0.8777 -2.9810 -0.0915
  924TIP3    H224188   3.031   6.320   4.504 -0.8743 -2.0229  1.1305
  925TIP3   OH224189   1.775   6.403   2.750 -0.0793 -0.3825 -0.0300
  925TIP3    H124190   1.865   6.392   2.720 -0.5108 -0.6794 -1.2658
  925TIP3    H224191   1.775   6.369   2.839  1.2418  0.5195  0.3504
  926TIP3   OH224192   1.139   3.048   3.310 -0.2729  0.0325  0.2317
  926TIP3    H124193   1.173   3.018   3.226  1.3483  1.8320  0.1860
  926TIP3    H224194   1.143   2.970   3.366 -0.7310 -1.0205 -1.1189
  927TIP3   OH224195   3.264   1.057  11.234 -0.4788  0.2018  0.0461
  927TIP3    H124196   3.245   0.971  11.196  2.2351 -0.9249  0.9704
  927TIP3    H224197   3.257   1.044  11.328  1.9694  0.2947  0.3271
  928TIP3   OH224198   2.582   6.661  12.574  0.2487 -0.6187 -0.5542
  928TIP3    H124199   2.594   6.571  12.544  1.1327 -1.2026  1.3725
  928TIP3    H224200   2.514   6.697  12.517 -1.3093 -3.0318 -0.3457
  929TIP3   OH224201   1.215   5.563  15.007  0.2609 -0.5993 -0.1044
  929TIP3    H124202   1.232   5.559  15.101  1.1845 -0.5196 -0.2516
  929TIP3    H224203   1.269   5.493  14.970  0.1486 -0.4320 -0.5969
  930TIP3   OH224204   6.740   2.465  12.802  0.6468  0.5636  0.4236
  930TIP3    H124205   6.734   2.555  12.832 -0.6763  0.9442 -0.8045
  930TIP3    H224206   6.794   2.469  12.723  1.1173  0.1673  0.7179
  931TIP3   OH224207   4.125   0.769  11.383  0.1897  0.3248  0.3414
  931TIP3    H124208   4.054   0.817  11.342 -0.7326 -0.9686  0.3483
  931TIP3    H224209   4.082   0.711  11.446  1.2520 -0.3727  0.4657
  932TIP3   OH224210   3.451   4.663   5.815 -0.0341 -0.4287  0.3214
  932TIP3    H124211   3.515   4.676   5.745 -0.0223  1.4470  0.6213
  932TIP3    H224212   3.378   4.616   5.773  0.8292 -1.1393 -0.4207
  933TIP3   OH224213   5.284   3.467   1.658  0.0520 -0.2863 -0.1694
  933TIP3    H124214   5.330   3.501   1.735 -0.6936 -0.7213  0.4827
  933TIP3    H224215   5.266   3.375   1.679  1.8309 -1.0697 -1.8020
  934TIP3   OH224216   1.339   6.563  11.513  0.8207  0.1400 -0.4948
  934TIP3    H124217   1.289   6.637  11.479  0.8198  0.2278 -0.3015
  934TIP3    H224218   1.358   6.510  11.435  0.3143  0.0348 -0.5512
  935TIP3   OH224219   5.230   0.740  15.446 -0.4608 -0.6965 -0.8251
  935TIP3    H124220   5.277   0.788  15.377  0.2770  0.9823  0.7560
  935TIP3    H224221   5.293   0.734  15.518 -0.9059 -3.1828 -0.5547
  936TIP3   OH224222   2.720   4.222   4.463 -0.0226  0.1399  0.2157
  936TIP3    H124223   2.730   4.315   4.444  0.8696 -0.1536 -0.8092
  936TIP3    H224224   2.712   4.218   4.559 -2.2748  1.4524  0.1534
  937TIP3   OH224225   1.505   1.850   2.668 -0.7989  0.1078  0.3571
  937TIP3    H124226   1.430   1.845   2.728  0.0586  1.3751  1.5794
  937TIP3    H224227   1.465   1.850   2.581 -2.2263  0.7380  0.9672
  938TIP3   OH224228   4.376   5.842   5.684 -0.1517 -0.1313  0.4329
  938TIP3    H124229   4.331   5.921   5.654  1.1023  0.4100 -0.0950
  938TIP3    H224230   4.469   5.862   5.675  0.1993 -1.6073  0.4716
  939TIP3   OH224231   5.619   1.120  13.262  0.5935 -0.1281 -0.2099
  939TIP3    H124232   5.575   1.136  13.346  0.2308 -0.4262 -0.3429
  939TIP3    H224233   5.579   1.040  13.229 -0.5814  0.9684 -1.5476
  940TIP3   OH224234   3.099   5.762   6.315 -0.8294  0.2968 -0.1129
  940TIP3    H124235   3.072   5.817   6.241 -0.5448  0.5552 -0.0239
  940TIP3    H224236   3.023   5.762   6.373 -0.1703  2.1613  0.8087
  941TIP3   OH224237   1.222   4.954  14.637  0.3555  0.4716  0.5929
  941TIP3    H124238   1.233   5.043  14.670 -2.8553  1.4696 -0.6528
  941TIP3    H224239   1.174   4.965  14.555  0.5519 -2.3868  0.0042
  942TIP3   OH224240   5.040   0.953   4.949 -0.0473 -0.2539  0.1940
  942TIP3    H124241   5.065   0.985   5.036 -0.2314  0.5215 -0.0327
  942TIP3    H224242   5.090   1.006   4.888 -0.2324 -0.5144 -0.1894
  943TIP3   OH224243   5.569   6.586  16.750  0.0390  0.0713  0.1419
  943TIP3    H124244   5.570   6.613  16.842 -1.2858  0.5043  0.0429
  943TIP3    H224245   5.522   6.655  16.704  1.1628  0.1440 -0.9792
  944TIP3   OH224246   6.114   1.856   3.702  0.2209 -0.2843  0.1205
  944TIP3    H124247   6.081   1.939   3.667 -0.4188  0.5997  2.6022
  944TIP3    H224248   6.208   1.859   3.686 -0.0481 -0.0364 -1.6145
  945TIP3   OH224249   3.803   5.120  16.636  0.2780  0.0433  0.0956
  945TIP3    H124250   3.818   5.056  16.706  2.0181  0.3695  0.0624
  945TIP3    H224251   3.881   5.175  16.637 -0.7827  1.6119 -0.4771
  946TIP3   OH224252   5.630   1.524   2.701 -0.1063  0.4188 -0.6822
  946TIP3    H124253   5.678   1.539   2.782 -1.2374 -1.5090  0.4266
  946TIP3    H224254   5.552   1.476   2.728 -0.1239 -1.0348 -3.0134
  947TIP3   OH224255   5.155   1.293   5.331  0.5254 -0.0829  0.4504
  947TIP3    H124256   5.129   1.236   5.404  0.7581  1.7383  2.0497
  947TIP3    H224257   5.188   1.372   5.374  0.7113  1.0418 -1.6613
  948TIP3   OH224258   5.347   0.157   4.908 -0.4059  0.3171 -0.1937
  948TIP3    H124259   5.307   0.083   4.955 -0.5489 -0.9528 -2.2018
  948TIP3    H224260   5.341   0.230   4.970 -0.9821 -1.1399  1.5741
  949TIP3   OH224261   4.213   4.715   2.648 -0.0673 -0.2798  0.2213
  949TIP3    H124262   4.266   4.646   2.689 -0.6801 -1.4481 -0.8744
  949TIP3    H224263   4.144   4.733   2.712 -0.5759 -1.5376  0.0686
  950TIP3   OH224264   3.615   1.076   2.719  0.1321  0.0333 -0.3277
  950TIP3    H124265   3.527   1.101   2.691  0.3853  0.1057 -1.0769
  950TIP3    H224266   3.661   1.057   2.637  0.7911 -0.0694  0.0677
  951TIP3   OH224267   4.583   3.456   5.684 -0.4969  0.2281 -0.1777
  951TIP3    H124268   4.506   3.438   5.737 -0.6634 -0.1824 -0.5562
  951TIP3    H224269   4.616   3.539   5.718 -1.7017  0.9404 -0.6960
  952TIP3   OH224270   5.647   2.787   2.194 -0.4497  0.1227  0.0536
  952TIP3    H124271   5.719   2.831   2.149  1.0123 -1.6440  0.5701
  952TIP3    H224272   5.628   2.843   2.269  1.8800 -0.4239  1.1293
  953TIP3   OH224273   1.971   0.346  11.291  0.4843  0.0747  0.1801
  953TIP3    H124274   2.030   0.372  11.363  2.5600 -0.6991 -1.1511
  953TIP3    H224275   1.965   0.425  11.236 -0.5074  0.4385  0.7903
  954TIP3   OH224276   3.326   6.438   2.240 -0.1813  0.3747  0.0810
  954TIP3    H124277   3.297   6.349   2.261 -2.3500  1.0868  0.3625
  954TIP3    H224278   3.411   6.426   2.196 -0.4467 -1.8157  0.0517
  955TIP3   OH224279   4.872   4.615   0.281 -0.3158  0.2678 -0.3100
  955TIP3    H124280   4.912   4.678   0.340  0.9917  0.2479 -1.1463
  955TIP3    H224281   4.906   4.530   0.310 -0.4670  0.1540 -0.4649
  956TIP3   OH224282   4.396   4.722   4.941  0.1303  0.3182  0.0329
  956TIP3    H124283   4.476   4.670   4.942  1.1911  1.8715  0.7501
  956TIP3    H224284   4.335   4.674   4.998  0.6943 -0.6511 -0.1696
  957TIP3   OH224285   2.598   2.598  15.904 -0.3408 -0.2764  0.1345
  957TIP3    H124286   2.532   2.544  15.861 -2.1641  0.5629  1.7207
  957TIP3    H224287   2.681   2.565  15.872 -1.4696 -2.4154 -0.7685
  958TIP3   OH224288   4.715   1.408   6.096  0.2088 -0.1857 -0.2016
  958TIP3    H124289   4.736   1.443   6.182 -1.6540  0.5332  0.0158
  958TIP3    H224290   4.633   1.360   6.109 -0.2025  0.0781 -1.5908
  959TIP3   OH224291   2.455   1.307  14.240  0.2285 -0.2035 -0.0956
  959TIP3    H124292   2.507   1.384  14.216 -1.3537  0.8248 -0.4181
  959TIP3    H224293   2.447   1.312  14.335  0.4268 -0.1719 -0.0809
  960TIP3   OH224294   3.478   0.129  11.603  0.0242  0.6710  0.4918
  960TIP3    H124295   3.558   0.100  11.561  0.3986  0.9940  0.9668
  960TIP3    H224296   3.455   0.210  11.558 -0.7829 -0.1078 -0.5439
  961TIP3   OH224297   4.041   3.678   5.796 -0.1159 -0.4436 -0.0044
  961TIP3    H124298   4.116   3.679   5.855 -0.2220  0.9883  0.1423
  961TIP3    H224299   3.969   3.712   5.849 -0.2343  0.7775 -0.9196
  962TIP3   OH224300   4.813   1.743  15.973  0.0255  0.3826  0.0695
  962TIP3    H124301   4.759   1.745  16.052  0.6063  1.1508  0.4625
  962TIP3    H224302   4.867   1.664  15.983 -0.2378  0.2205  0.2125
  963TIP3   OH224303   5.501   6.493   4.938  0.2065  0.2000 -0.2651
  963TIP3    H124304   5.409   6.500   4.966  0.6273  0.1628  1.2294
  963TIP3    H224305   5.536   6.581   4.945 -0.1267  0.5659 -2.5195
  964TIP3   OH224306   5.364   0.297  12.559 -0.4576 -0.1493  0.2008
  964TIP3    H124307   5.301   0.244  12.608  0.0072  0.1719  1.1619
  964TIP3    H224308   5.312   0.338  12.490 -1.2107 -0.2660  0.6866
  965TIP3   OH224309   5.118   2.338   2.629 -0.1179 -0.5032 -0.2122
  965TIP3    H124310   5.055   2.270   2.604  0.4357 -0.8232 -0.7372
  965TIP3    H224311   5.146   2.377   2.546 -0.7447  0.6667  0.1006
  966TIP3   OH224312   1.822   1.502   0.115  0.1532 -0.2949  0.3782
  966TIP3    H124313   1.797   1.410   0.127 -0.2991 -0.1274  0.7364
  966TIP3    H224314   1.747   1.552   0.148  0.1220  0.2043 -0.4382
  967TIP3   OH224315   5.686   2.522   1.262 -0.2404  0.1939 -0.2430
  967TIP3    H124316   5.679   2.436   1.221  1.6674  0.2539 -0.8088
  967TIP3    H224317   5.714   2.580   1.191  0.5918  0.8245  0.5753
  968TIP3   OH224318   3.115   3.172   0.513  0.1028 -0.3406 -0.0484
  968TIP3    H124319   3.125   3.138   0.424 -0.1651  0.2324 -0.3001
  968TIP3    H224320   3.044   3.236   0.507  0.1427 -0.2330  0.5586
  969TIP3   OH224321   0.632   4.830  16.199  0.1522  0.1518 -0.4489
  969TIP3    H124322   0.642   4.912  16.247  0.2767  0.3641 -0.8386
  969TIP3    H224323   0.721   4.808  16.171  0.0425  0.1588 -0.8007
  970TIP3   OH224324   6.055   2.716  11.302 -0.2629  0.4108 -0.5760
  970TIP3    H124325   6.107   2.753  11.372 -1.6516 -0.2467  0.8649
  970TIP3    H224326   5.990   2.661  11.346 -1.0539 -0.1992 -2.3840
  971TIP3   OH224327   5.892   0.994  13.215 -0.1591 -0.2632  0.1503
  971TIP3    H124328   5.904   0.952  13.130  0.1552  0.2285 -0.0559
  971TIP3    H224329   5.818   1.053  13.202  1.2828  1.5158 -0.4774
  972TIP3   OH224330   5.976   5.043   3.096  0.3132 -0.1174 -0.0746
  972TIP3    H124331   6.027   5.108   3.143  0.9923 -0.3724 -0.4487
  972TIP3    H224332   5.951   4.979   3.162  0.0239  0.2787  0.2086
  973TIP3   OH224333   6.603   0.100  12.080 -0.0179  0.0570 -0.3179
  973TIP3    H124334   6.584   0.136  11.994  0.2283  0.9096 -0.0181
  973TIP3    H224335   6.518   0.070  12.112 -0.1551 -0.0106 -0.7399
  974TIP3   OH224336   3.667   4.826   4.206  0.3174  0.3391  0.0490
  974TIP3    H124337   3.688   4.744   4.250  0.1856  0.2455 -0.0626
  974TIP3    H224338   3.751   4.870   4.194  0.2710  0.8266  1.3138
  975TIP3   OH224339   4.741   4.703   2.066 -0.0324  0.1565 -0.2959
  975TIP3    H124340   4.822   4.690   2.017  0.9858  3.2956  0.3079
  975TIP3    H224341   4.672   4.704   1.999  0.1559 -3.5961 -0.7122
  976TIP3   OH224342   4.989   5.899  15.231  0.4038 -0.4595 -0.0556
  976TIP3    H124343   4.898   5.876  15.248 -0.1432  1.8521  0.3728
  976TIP3    H224344   5.037   5.859  15.303 -0.7017  0.9456  1.5307
  977TIP3   OH224345   0.440   4.708   6.363 -0.1943  0.1140  0.1431
  977TIP3    H124346   0.415   4.746   6.448  1.2306 -0.9873  1.1163
  977TIP3    H224347   0.498   4.773   6.324 -0.5790  0.4795  0.1837
  978TIP3   OH224348   5.005   4.646  13.795 -0.4264  0.2327  0.0682
  978TIP3    H124349   5.059   4.618  13.869 -1.3729 -1.5205  0.1637
  978TIP3    H224350   5.058   4.628  13.718 -0.0258  0.6373  0.2438
  979TIP3   OH224351   0.138   5.195   2.764  0.2312 -0.2941  0.2467
  979TIP3    H124352   0.152   5.113   2.811  2.2878 -0.0321  0.2042
  979TIP3    H224353   0.127   5.169   2.673 -0.1204 -0.5885  0.3728
  980TIP3   OH224354   5.984   4.933  15.081  0.3642  0.1813 -0.4839
  980TIP3    H124355   5.995   4.843  15.112 -0.6323 -0.2273 -1.2546
  980TIP3    H224356   5.950   4.924  14.992 -0.9703  1.3005 -0.1326
  981TIP3   OH224357   6.784   2.629  16.958  0.0122 -0.2261 -0.0225
  981TIP3    H124358   6.819   2.544  16.986 -0.8934  0.3613  3.2105
  981TIP3    H224359   6.695   2.609  16.927  0.3497 -0.6161 -0.7886
  982TIP3   OH224360   6.787   4.571   0.246  0.2078  0.5530 -0.1462
  982TIP3    H124361   6.699   4.548   0.216 -0.2021  1.8356  0.0462
  982TIP3    H224362   6.840   4.494   0.224 -0.6161  0.3941 -1.7112
  983TIP3   OH224363   6.386   4.809   3.394 -0.5738  0.6568  0.5248
  983TIP3    H124364   6.381   4.816   3.490 -0.7603  0.9985  0.4889
  983TIP3    H224365   6.479   4.796   3.376 -0.6735 -0.7197  0.8441
  984TIP3   OH224366   6.508   0.568   0.454  0.2418  0.4241  0.2258
  984TIP3    H124367   6.494   0.663   0.453 -1.3110  0.2115 -0.7800
  984TIP3    H224368   6.559   0.553   0.534  1.6349  2.2376 -0.2648
  985TIP3   OH224369   6.130   3.895  14.059 -0.5041 -0.5806 -0.2952
  985TIP3    H124370   6.118   3.885  14.153 -0.1917  1.0401 -0.0537
  985TIP3    H224371   6.206   3.841  14.038  0.8569  0.8313  0.8150
  986TIP3   OH224372   5.903   6.640   2.036  0.7961  0.0696 -0.1694
  986TIP3    H124373   5.891   6.569   2.100  0.3753  0.7572  0.5289
  986TIP3    H224374   5.992   6.671   2.052  0.8476 -0.0504 -0.2199
  987TIP3   OH224375   1.815   6.223  11.836  0.0226  0.4546 -0.8962
  987TIP3    H124376   1.871   6.247  11.911  0.0341  1.1334 -1.1192
  987TIP3    H224377   1.749   6.165  11.874  0.8293 -0.2999 -0.6110
  988TIP3   OH224378   2.964   3.193  14.177  0.1114 -0.3475  0.6609
  988TIP3    H124379   2.995   3.141  14.102 -0.2972  0.6510 -0.2211
  988TIP3    H224380   2.887   3.147  14.208 -1.0696  0.4351 -0.9932
  989TIP3   OH224381   0.369   2.143   2.713  0.3056  0.3225  0.6046
  989TIP3    H124382   0.286   2.169   2.672 -0.4292 -1.4223  0.8716
  989TIP3    H224383   0.378   2.201   2.788 -0.5082  0.7640  0.3730
  990TIP3   OH224384   0.203   1.895  11.621  0.4608 -0.4320 -0.3277
  990TIP3    H124385   0.225   1.976  11.667  1.2475 -1.5177  1.2954
  990TIP3    H224386   0.274   1.835  11.642  1.0540 -0.9528 -3.2548
  991TIP3   OH224387   4.297   2.990  15.462 -0.0193  0.0744  0.0817
  991TIP3    H124388   4.299   2.953  15.550  1.2833 -3.4152 -1.2366
  991TIP3    H224389   4.379   2.960  15.422 -2.5914 -2.6842 -3.7663
  992TIP3   OH224390   6.280   5.316   4.688  0.5416  0.1905  0.6004
  992TIP3    H124391   6.233   5.242   4.725  3.3889 -0.6682  2.8918
  992TIP3    H224392   6.347   5.277   4.632 -0.6920  1.3310 -1.8297
  993TIP3   OH224393   0.141   5.412  16.329 -0.3427 -0.4096  0.0627
  993TIP3    H124394   0.187   5.417  16.246 -0.3386 -0.2884  0.0726
  993TIP3    H224395   0.209   5.417  16.395 -0.3696 -0.2382  0.0781
  994TIP3   OH224396   3.457   4.691  14.144 -0.4363  0.0289  0.1774
  994TIP3    H124397   3.444   4.606  14.187  1.5381 -0.4066  0.0347
  994TIP3    H224398   3.472   4.669  14.052  0.1865  0.5184  0.1599
  995TIP3   OH224399   1.888   0.408   1.844  0.6521 -0.1358 -0.3369
  995TIP3    H124400   1.875   0.399   1.938 -0.2731  0.3386 -0.4079
  995TIP3    H224401   1.925   0.495   1.832 -2.8713  1.4496 -0.6799
  996TIP3   OH224402   6.419   4.040   5.198  0.1065  0.2916 -0.0185
  996TIP3    H124403   6.510   4.029   5.171  0.3338  0.2892  0.7336
  996TIP3    H224404   6.400   4.132   5.181 -0.0003  0.1222 -0.8895
  997TIP3   OH224405   5.734   3.682   2.568 -0.9626 -0.3217 -0.0956
  997TIP3    H124406   5.761   3.667   2.478 -0.3948 -1.1381  0.2035
  997TIP3    H224407   5.802   3.739   2.605 -0.8367 -0.5400  0.0101
  998TIP3   OH224408   5.112   0.502   6.024 -0.3073  0.0493 -0.1473
  998TIP3    H124409   5.030   0.466   6.058 -1.5209  1.6149 -1.2828
  998TIP3    H224410   5.141   0.564   6.092 -0.0154 -0.5435  0.2783
  999TIP3   OH224411   2.199   5.801  16.668 -0.2446 -0.2452  0.4385
  999TIP3    H124412   2.182   5.827  16.759  0.2800  0.0809  0.4423
  999TIP3    H224413   2.196   5.705  16.670  2.2485 -0.3825  1.3179
 1000TIP3   OH224414   2.034   0.088   0.175  0.4456  0.0539 -0.1592
 1000TIP3    H124415   2.109   0.064   0.121  1.1904 -0.6441  1.1180
 1000TIP3    H224416   2.014   0.008   0.225  2.0607  1.5294  3.1619
 1001TIP3   OH224417   2.366   1.178   2.503 -0.2908  0.2368 -0.6831
 1001TIP3    H124418   2.404   1.212   2.584  0.1366  1.5341 -1.3901
 1001TIP3    H224419   2.288   1.130   2.530  0.0560  0.3254  0.5139
 1002TIP3   OH224420   5.653   5.002  12.640 -0.1541  0.0235  0.6484
 1002TIP3    H124421   5.722   5.043  12.691  0.8801  2.5560 -2.4161
 1002TIP3    H224422   5.699   4.959  12.567 -1.6761  0.7441 -0.8121
 1003TIP3   OH224423   3.157   1.756  12.672 -0.4397 -0.1162  0.4954
 1003TIP3    H124424   3.182   1.848  12.679 -1.3011  0.0077  2.7996
 1003TIP3    H224425   3.187   1.716  12.754 -0.9154 -1.6891 -0.0550
 1004TIP3   OH224426   6.607   3.442  12.496  0.4761  0.1799  0.8141
 1004TIP3    H124427   6.641   3.531  12.500 -0.6557  0.6670  0.0088
 1004TIP3    H224428   6.646   3.404  12.417 -0.3744  0.5595  0.1913
 1005TIP3   OH224429   6.136   6.531   2.980  0.2278  0.2387 -0.1381
 1005TIP3    H124430   6.131   6.444   3.020  0.6678 -0.8401 -2.2619
 1005TIP3    H224431   6.047   6.565   2.983 -0.3502 -1.1335 -0.9867
 1006TIP3   OH224432   0.092   4.843   2.632 -0.0678  0.8012 -0.0887
 1006TIP3    H124433   0.049   4.758   2.624  0.1479  0.6378  0.4417
 1006TIP3    H224434   0.033   4.904   2.588 -1.2583  0.7086  1.2852
 1007TIP3   OH224435   6.609   1.271  16.691  0.1332 -0.3080  0.3866
 1007TIP3    H124436   6.642   1.185  16.666 -0.3385 -0.3886  0.0406
 1007TIP3    H224437   6.523   1.278  16.650  0.8752  1.0274 -1.0659
 1008TIP3   OH224438   0.602   1.197  13.996 -0.4711 -0.0068 -0.0250
 1008TIP3    H124439   0.613   1.292  13.993 -0.7276  0.0568  0.8148
 1008TIP3    H224440   0.510   1.184  14.017 -0.4132 -0.4423 -0.0243
 1009TIP3   OH224441   1.644   6.455  13.418 -0.1012  0.4320 -0.0463
 1009TIP3    H124442   1.701   6.514  13.368 -0.5534 -0.2400 -1.3976
 1009TIP3    H224443   1.674   6.464  13.509  1.0651  1.3218 -0.4961
 1010TIP3   OH224444   6.801   0.956  12.884 -0.0474 -0.4906 -0.2431
 1010TIP3    H124445   6.778   0.992  12.969  0.6725 -0.9853  0.1693
 1010TIP3    H224446   6.897   0.952  12.884 -0.0444 -0.6285 -1.0163
 1011TIP3   OH224447   1.837   1.028  15.724  0.0924 -0.6814 -0.6409
 1011TIP3    H124448   1.855   0.945  15.768 -2.6564 -0.8831  0.2578
 1011TIP3    H224449   1.907   1.086  15.754  1.5886 -2.4059 -0.6305
 1012TIP3   OH224450   4.443   3.956  16.778 -0.9461 -0.2805 -0.1948
 1012TIP3    H124451   4.529   3.954  16.822 -0.7853 -1.1018 -0.5293
 1012TIP3    H224452   4.403   4.037  16.809  1.2384  1.8708 -2.5242
 1013TIP3   OH224453   4.410   1.751   0.779  0.0335 -0.3039  0.0032
 1013TIP3    H124454   4.437   1.797   0.699 -0.2173 -0.1280  0.0194
 1013TIP3    H224455   4.381   1.820   0.838  2.7448 -0.1327  1.2899
 1014TIP3   OH224456   5.632   0.977  12.727  0.4718 -0.0901 -0.2547
 1014TIP3    H124457   5.562   1.037  12.702  0.0273 -0.2728  0.5086
 1014TIP3    H224458   5.588   0.904  12.769  1.1682  0.3539  1.3455
 1015TIP3   OH224459   1.303   6.427   0.344 -0.5719 -0.1909  0.6265
 1015TIP3    H124460   1.337   6.339   0.356 -0.0101  0.0347  0.7203
 1015TIP3    H224461   1.373   6.484   0.375 -0.3161  0.3340 -0.8559
 1016TIP3   OH224462   3.001   1.545   6.293 -0.6313 -0.4567 -0.4633
 1016TIP3    H124463   2.934   1.505   6.237  0.1239  0.2898 -1.9466
 1016TIP3    H224464   3.075   1.484   6.290 -0.3325 -0.0749 -0.8405
 1017TIP3   OH224465   2.198   4.305  12.231 -0.4675  0.0460  0.7296
 1017TIP3    H124466   2.182   4.394  12.263  0.2221 -0.1379  1.6085
 1017TIP3    H224467   2.272   4.314  12.171 -2.4138  0.5670 -1.7698
 1018TIP3   OH224468   2.031   6.485   1.262  0.0431  0.6943 -0.8542
 1018TIP3    H124469   2.019   6.549   1.333  0.2671 -1.5707  1.3650
 1018TIP3    H224470   2.114   6.509   1.221  1.4027  0.4245  1.5729
 1019TIP3   OH224471   0.074   1.659   1.728  0.2664  0.4888 -0.5925
 1019TIP3    H124472   0.131   1.617   1.793  0.0425 -0.0366 -0.7271
 1019TIP3    H224473   0.128   1.729   1.691  0.4094  0.7729  0.1316
 1020TIP3   OH224474   5.134   6.588   0.597 -0.1836 -0.2545  0.4135
 1020TIP3    H124475   5.190   6.539   0.537  0.9537  0.5281  0.8072
 1020TIP3    H224476   5.179   6.672   0.609 -1.2534  0.2566  1.0387
 1021TIP3   OH224477   1.590   5.364  12.179 -0.0435  0.4533  0.1151
 1021TIP3    H124478   1.644   5.382  12.101 -0.3235  3.7923  0.5289
 1021TIP3    H224479   1.510   5.414  12.164 -0.3718  0.6485  2.2591
 1022TIP3   OH224480   2.674   1.308   4.651  0.5558  0.0889  0.0967
 1022TIP3    H124481   2.652   1.349   4.734  1.1943  1.2062 -0.2633
 1022TIP3    H224482   2.769   1.319   4.642  0.6652 -1.0248 -0.2542
 1023TIP3   OH224483   0.570   3.400   3.379 -0.1094 -0.4922 -0.4852
 1023TIP3    H124484   0.506   3.337   3.410 -0.3061  0.4891  1.1903
 1023TIP3    H224485   0.643   3.393   3.441  0.0594  0.5833 -0.5384
 1024TIP3   OH224486   3.913   4.115   5.791  0.1506  0.3827 -0.2149
 1024TIP3    H124487   3.920   4.029   5.832  0.5499 -0.0312 -1.1255
 1024TIP3    H224488   3.821   4.121   5.764 -0.0419  0.5344  0.4510
 1025TIP3   OH224489   3.334   5.770   3.442  0.7806  0.1422  0.8823
 1025TIP3    H124490   3.278   5.693   3.428  0.9988  0.0792  0.3214
 1025TIP3    H224491   3.298   5.836   3.383  1.5329 -0.0261  0.2122
 1026TIP3   OH224492   5.901   0.386  13.941  0.6638  0.0931  0.6002
 1026TIP3    H124493   5.838   0.458  13.950  1.3537  0.8051 -0.0470
 1026TIP3    H224494   5.941   0.379  14.027  1.0620  0.9496  0.4994
 1027TIP3   OH224495   1.284   6.193   3.016  0.3189 -0.4636  0.5084
 1027TIP3    H124496   1.335   6.250   2.959 -0.8402  0.5909  0.4714
 1027TIP3    H224497   1.228   6.143   2.957  0.3415 -0.6204  0.6196
 1028TIP3   OH224498   0.909   6.501   0.354  0.5645 -0.0646  0.8206
 1028TIP3    H124499   0.946   6.530   0.270 -0.3843 -2.0066 -0.3470
 1028TIP3    H224500   0.958   6.421   0.375 -0.1602 -0.3668  1.3820
 1029TIP3   OH224501   5.115   1.819   0.665 -0.3895  0.0066  0.3926
 1029TIP3    H124502   5.176   1.875   0.713 -1.2225  1.3197 -0.0207
 1029TIP3    H224503   5.159   1.800   0.583  0.3472 -0.8666  0.9697
 1030TIP3   OH224504   2.347   1.041   3.877  0.0755 -0.9379  0.6912
 1030TIP3    H124505   2.349   1.067   3.785  2.4214 -0.6570  0.7769
 1030TIP3    H224506   2.253   1.033   3.897 -0.5078 -2.7243 -2.1501
 1031TIP3   OH224507   2.473   5.709   2.804 -0.3398 -0.1940  0.1523
 1031TIP3    H124508   2.391   5.731   2.760  0.1786  0.1903 -0.6608
 1031TIP3    H224509   2.511   5.639   2.750 -0.4094 -0.7831  0.8567
 1032TIP3   OH224510   3.976   1.868   5.593 -0.4426  0.2520  0.4688
 1032TIP3    H124511   3.919   1.903   5.524 -0.5428 -1.0247 -0.1346
 1032TIP3    H224512   4.002   1.782   5.560  3.5254  1.5370 -0.2538
 1033TIP3   OH224513   4.810   0.283  14.057 -0.4025  0.3425  0.2226
 1033TIP3    H124514   4.735   0.338  14.034 -1.6121 -0.7613  1.3321
 1033TIP3    H224515   4.819   0.223  13.983 -2.4987 -1.3777  1.2320
 1034TIP3   OH224516   0.191   6.797  17.188  0.5619 -0.0976  0.1079
 1034TIP3    H124517   0.272   6.817  17.235  1.0258  0.9033 -1.0425
 1034TIP3    H224518   0.122   6.808  17.253  1.3940 -2.2916  1.4895
 1035TIP3   OH224519   2.142   4.078   3.026 -0.3632  0.3919 -0.2935
 1035TIP3    H124520   2.065   4.023   3.038  0.3352 -0.3408  1.0536
 1035TIP3    H224521   2.178   4.052   2.942 -1.5056  0.6633 -0.8842
 1036TIP3   OH224522   6.706   4.656   2.393  0.2188 -0.5259  0.3670
 1036TIP3    H124523   6.662   4.624   2.472  2.0170 -0.9038  1.2568
 1036TIP3    H224524   6.708   4.751   2.404  0.2129 -0.5555  0.6369
 1037TIP3   OH224525   2.137   4.657  12.961 -0.2863  0.3411 -0.2328
 1037TIP3    H124526   2.229   4.646  12.941 -0.9544 -1.2447 -2.8229
 1037TIP3    H224527   2.119   4.749  12.941  0.4859  0.3853 -0.7475
 1038TIP3   OH224528   1.910   5.367  16.488 -0.2746  0.5009  0.4169
 1038TIP3    H124529   1.834   5.343  16.436 -0.0045 -0.3449  0.4095
 1038TIP3    H224530   1.892   5.457  16.516 -1.2440  0.3314  0.3623
 1039TIP3   OH224531   5.045   2.134  14.143  0.4077  0.7835 -0.3651
 1039TIP3    H124532   4.971   2.189  14.169  0.4370  0.3955  0.5878
 1039TIP3    H224533   5.108   2.195  14.105  0.4380  1.4242  0.6652
 1040TIP3   OH224534   3.135   1.805  15.849 -0.0212 -0.3029 -0.2148
 1040TIP3    H124535   3.204   1.738  15.854  0.7793  0.5451  0.5667
 1040TIP3    H224536   3.104   1.813  15.939  1.2893  1.7547  0.1210
 1041TIP3   OH224537   1.445   1.439  15.105  0.2569  0.0216 -0.4758
 1041TIP3    H124538   1.388   1.395  15.168  2.8859 -1.1471  1.2649
 1041TIP3    H224539   1.495   1.368  15.064 -0.0631  0.9297 -2.5703
 1042TIP3   OH224540   2.698   3.826   0.607 -0.1499  0.2327 -0.2727
 1042TIP3    H124541   2.679   3.915   0.578  0.4031  0.7505  0.8871
 1042TIP3    H224542   2.703   3.775   0.526  0.3408  1.4209 -1.0247
 1043TIP3   OH224543   5.404   5.455   6.222  0.0030 -0.0558 -0.3355
 1043TIP3    H124544   5.461   5.434   6.296 -0.3795 -1.0754 -0.3125
 1043TIP3    H224545   5.421   5.384   6.159  0.3258  0.7968 -1.2251
 1044TIP3   OH224546   4.964   2.534  11.780 -0.0291  0.5193 -0.2969
 1044TIP3    H124547   4.959   2.448  11.738  0.8020 -0.7707  2.0607
 1044TIP3    H224548   5.049   2.569  11.754  1.1174 -0.9011  1.3243
 1045TIP3   OH224549   2.093   5.386  13.903  0.1826  0.3765 -0.2343
 1045TIP3    H124550   2.187   5.404  13.907 -0.1870  2.6735 -0.4284
 1045TIP3    H224551   2.054   5.444  13.969 -0.9867 -1.8595  1.1742
 1046TIP3   OH224552   2.038   2.965  12.005  0.4491  0.1025  0.4357
 1046TIP3    H124553   2.076   2.911  11.935 -0.7082  0.3719 -0.4169
 1046TIP3    H224554   2.061   2.919  12.086  3.7230  0.9029  0.1092
 1047TIP3   OH224555   1.300   1.651   3.274 -0.5362 -0.7238 -0.3490
 1047TIP3    H124556   1.215   1.613   3.251 -2.1447  2.2827  0.1499
 1047TIP3    H224557   1.306   1.641   3.369 -0.7863 -0.1300 -0.2659
 1048TIP3   OH224558   2.046   5.471  13.352  0.6727  0.3260  0.1157
 1048TIP3    H124559   2.080   5.395  13.305  1.9859 -0.2646  1.8967
 1048TIP3    H224560   2.123   5.520  13.379  0.1827 -0.2215  2.9417
 1049TIP3   OH224561   0.479   3.759  12.822  0.1057 -0.2473 -0.5856
 1049TIP3    H124562   0.459   3.848  12.793 -0.0908 -0.0587  0.0917
 1049TIP3    H224563   0.411   3.705  12.782 -1.1548  0.2376  0.8047
 1050TIP3   OH224564   0.305   2.030   4.628  0.2197 -0.2504 -0.5148
 1050TIP3    H124565   0.280   2.001   4.716 -1.4786 -0.1761 -0.9503
 1050TIP3    H224566   0.381   2.086   4.643  0.6504 -1.1159  0.7883
 1051TIP3   OH224567   0.342   5.091   2.977 -0.0016  0.1858  0.1693
 1051TIP3    H124568   0.314   5.167   3.028  0.4164  1.5078 -1.4899
 1051TIP3    H224569   0.269   5.029   2.983  0.4815 -0.2368  3.2682
 1052TIP3   OH224570   0.968   4.367   2.956 -0.3844  0.2780  0.0756
 1052TIP3    H124571   0.996   4.364   2.864 -0.2350  0.4441  0.1135
 1052TIP3    H224572   0.874   4.383   2.952 -0.1828  1.5950 -0.0446
 1053TIP3   OH224573   4.018   5.614  13.407  0.2100  0.0853 -0.1230
 1053TIP3    H124574   4.083   5.670  13.365  2.2799 -1.0837  1.3173
 1053TIP3    H224575   4.024   5.531  13.360  1.4165 -0.7299  1.3880
 1054TIP3   OH224576   5.975   3.921   0.531 -0.6851 -0.1672 -0.6434
 1054TIP3    H124577   5.954   3.831   0.508  1.5892 -1.2217  1.0624
 1054TIP3    H224578   5.920   3.941   0.606  0.2269 -0.9110  0.2551
 1055TIP3   OH224579   2.847   2.459   1.060 -0.4192  0.1376 -0.2180
 1055TIP3    H124580   2.784   2.391   1.037  0.2383  0.1936 -2.3883
 1055TIP3    H224581   2.800   2.541   1.046 -0.1791  0.1669 -0.8621
 1056TIP3   OH224582   5.566   6.062  15.949  0.5626  0.1331  0.7533
 1056TIP3    H124583   5.544   6.092  15.861  1.7935 -0.2879  0.2902
 1056TIP3    H224584   5.481   6.049  15.991 -0.0457  0.1082 -0.4404
 1057TIP3   OH224585   2.960   3.672   5.239 -0.3596 -0.7204 -0.4619
 1057TIP3    H124586   2.876   3.714   5.218  0.0439  1.0902  1.2870
 1057TIP3    H224587   2.955   3.653   5.332  0.7414 -1.6973 -0.5773
 1058TIP3   OH224588   1.782   5.711   6.029 -0.7489  0.3561 -0.3145
 1058TIP3    H124589   1.761   5.681   5.941 -0.5529 -1.3836  0.1924
 1058TIP3    H224590   1.730   5.655   6.087  0.3332  0.3783  0.7226
 1059TIP3   OH224591   1.856   2.068  11.044 -0.0598  0.6303  0.3350
 1059TIP3    H124592   1.800   2.057  10.966 -1.3476  0.7792  1.2098
 1059TIP3    H224593   1.902   2.150  11.029 -1.3520  1.3906  0.3296
 1060TIP3   OH224594   5.208   6.732  11.391 -0.2254  0.4326  0.0559
 1060TIP3    H124595   5.187   6.721  11.298 -0.2277  1.1062 -0.0252
 1060TIP3    H224596   5.124   6.722  11.436 -0.0765 -0.8848  0.0820
 1061TIP3   OH224597   1.613   4.207   2.989  0.6778  0.4869  0.6882
 1061TIP3    H124598   1.650   4.266   3.055  0.7084 -0.1056  1.2056
 1061TIP3    H224599   1.653   4.122   3.007  2.0794  0.6831 -1.2272
 1062TIP3   OH224600   3.209   2.915  12.223  0.1186 -0.9283 -0.2679
 1062TIP3    H124601   3.175   2.999  12.192  0.4858 -0.7649 -0.2292
 1062TIP3    H224602   3.174   2.907  12.312  2.0008  0.3146  0.6490
 1063TIP3   OH224603   5.597   4.956   3.597 -0.0951  0.0349  0.0727
 1063TIP3    H124604   5.563   4.970   3.686 -0.7596  1.9009 -0.4165
 1063TIP3    H224605   5.659   5.028   3.584  0.2394 -0.4120 -0.8636
 1064TIP3   OH224606   0.872   3.267  17.038 -0.0044  0.8959  0.2801
 1064TIP3    H124607   0.913   3.337  17.089 -1.4134  1.4973  0.6349
 1064TIP3    H224608   0.783   3.297  17.023 -0.2187 -0.1917 -0.8129
 1065TIP3   OH224609   0.782   5.125   4.373  0.5088 -0.4442 -0.1383
 1065TIP3    H124610   0.765   5.105   4.281 -0.7057 -1.1597  0.2263
 1065TIP3    H224611   0.762   5.044   4.420  1.2463 -0.1294  0.7502
 1066TIP3   OH224612   4.161   1.659  13.369 -0.3734  0.1674  0.5355
 1066TIP3    H124613   4.203   1.651  13.283 -1.3511  3.0414 -0.3149
 1066TIP3    H224614   4.227   1.702  13.424 -0.4439  0.1228  0.6562
 1067TIP3   OH224615   2.323   2.382   3.122 -0.0487 -0.7093 -0.7145
 1067TIP3    H124616   2.303   2.291   3.100 -1.7160 -0.0423 -2.1349
 1067TIP3    H224617   2.270   2.401   3.200 -0.5274 -0.6580 -1.0477
 1068TIP3   OH224618   6.578   1.246  14.996 -0.4255 -0.0578 -0.2597
 1068TIP3    H124619   6.535   1.304  14.933 -2.8631 -0.8979  0.4828
 1068TIP3    H224620   6.534   1.266  15.079  0.8367 -0.8231  0.6196
 1069TIP3   OH224621   6.437   5.132   4.546 -0.1943 -0.2131 -0.3224
 1069TIP3    H124622   6.440   5.047   4.590 -1.2530 -1.0221 -1.7070
 1069TIP3    H224623   6.525   5.144   4.510  0.3511 -0.0625  1.0036
 1070TIP3   OH224624   3.556   1.525   2.493 -0.1571 -0.3278  0.0347
 1070TIP3    H124625   3.542   1.611   2.453  2.8481  0.6233  0.7527
 1070TIP3    H224626   3.482   1.472   2.463 -2.2606  2.5262 -0.2497
 1071TIP3   OH224627   3.811   0.993   5.558 -0.2749  0.0431 -0.1082
 1071TIP3    H124628   3.869   1.068   5.573  0.4353 -0.4828 -0.1419
 1071TIP3    H224629   3.853   0.945   5.487  0.2508 -1.3363  1.0960
 1072TIP3   OH224630   5.257   1.569  15.732 -0.5144 -0.1057  0.0644
 1072TIP3    H124631   5.188   1.507  15.757  1.4292 -1.8615  1.4093
 1072TIP3    H224632   5.329   1.514  15.702  0.5419  1.6427 -0.7604
 1073TIP3   OH224633   0.065   4.294   0.239  0.5080  0.2234  0.2557
 1073TIP3    H124634   0.102   4.242   0.168 -0.3518 -1.3577  0.8920
 1073TIP3    H224635   0.139   4.340   0.278  1.3299 -0.6078 -0.3037
 1074TIP3   OH224636   2.833   0.148   1.737  0.0545 -0.0495 -0.0838
 1074TIP3    H124637   2.917   0.155   1.692  0.1865 -1.2876 -0.0560
 1074TIP3    H224638   2.850   0.187   1.823  0.1732  1.0555 -0.5809
 1075TIP3   OH224639   0.173   0.220  14.049  0.0862  0.2859  0.2585
 1075TIP3    H124640   0.176   0.212  13.954  0.4710  1.2187  0.1821
 1075TIP3    H224641   0.248   0.168  14.080  0.0597  0.1201  0.0484
 1076TIP3   OH224642   4.022   1.241   4.207 -0.5110  0.1359 -0.1608
 1076TIP3    H124643   3.940   1.271   4.247  0.0071  2.1682 -0.5007
 1076TIP3    H224644   4.086   1.243   4.278 -0.5528 -0.6399 -0.0898
 1077TIP3   OH224645   0.221   6.083  15.196  0.6437 -0.0580  0.3556
 1077TIP3    H124646   0.214   6.177  15.216 -0.0160  0.5363 -2.2383
 1077TIP3    H224647   0.306   6.057  15.230  0.9484  1.5670  0.9134
 1078TIP3   OH224648   1.215   0.740  13.729 -0.1694 -0.2864 -0.3360
 1078TIP3    H124649   1.308   0.733  13.707 -0.5698  1.3720 -2.9331
 1078TIP3    H224650   1.197   0.834  13.731 -2.0015 -0.5748 -1.0041
 1079TIP3   OH224651   0.727   1.934  11.540 -0.6810  0.0928  0.0303
 1079TIP3    H124652   0.763   2.015  11.575 -1.0200 -0.8167  2.7425
 1079TIP3    H224653   0.770   1.922  11.455  0.7868  2.1087  0.4345
 1080TIP3   OH224654   3.572   1.859   4.244  0.6745 -0.3865  0.1325
 1080TIP3    H124655   3.533   1.783   4.287  2.2298 -0.3130  1.7944
 1080TIP3    H224656   3.615   1.907   4.315  0.5828  1.5225 -1.0383
 1081TIP3   OH224657   5.976   5.294   2.637  0.2450  0.3376 -0.3644
 1081TIP3    H124658   5.968   5.353   2.563 -1.0724 -1.1286 -1.4695
 1081TIP3    H224659   6.043   5.333   2.693  0.8012  1.8128 -1.9985
 1082TIP3   OH224660   2.566   6.307   4.926  0.5318  0.4583 -0.6972
 1082TIP3    H124661   2.506   6.334   4.995  0.2434 -1.1335 -0.2844
 1082TIP3    H224662   2.593   6.389   4.884  0.3566  1.4180  0.9892
 1083TIP3   OH224663   1.449   0.575  16.735 -0.2428  0.4932  0.6624
 1083TIP3    H124664   1.475   0.604  16.647  0.1922 -0.9750  0.2827
 1083TIP3    H224665   1.426   0.483  16.724 -1.1822  0.5589  1.9020
 1084TIP3   OH224666   0.259   5.570  17.139  0.3623  0.6726 -0.0342
 1084TIP3    H124667   0.234   5.631  17.209 -1.6723 -1.6202  1.3618
 1084TIP3    H224668   0.220   5.487  17.164  2.1214 -1.0058 -2.4170
 1085TIP3   OH224669   2.411   2.764   2.913 -0.2325  0.7021  0.4643
 1085TIP3    H124670   2.434   2.754   3.005  1.2303 -0.8023 -0.0272
 1085TIP3    H224671   2.480   2.818   2.875  0.6777 -0.8972 -0.2724
 1086TIP3   OH224672   2.470   6.089  16.452  0.6940  0.1333 -0.1219
 1086TIP3    H124673   2.501   6.156  16.391 -0.1475  1.6198  0.9922
 1086TIP3    H224674   2.383   6.065  16.419 -0.9185  2.8366  1.7506
 1087TIP3   OH224675   2.017   5.785   2.473  0.7044  0.1072  0.2198
 1087TIP3    H124676   2.017   5.880   2.486  2.8763 -0.0589  2.0501
 1087TIP3    H224677   1.994   5.773   2.381 -0.6036  2.3287  0.1840
 1088TIP3   OH224678   0.805   3.762  11.771 -0.6872  0.0153  0.4251
 1088TIP3    H124679   0.727   3.781  11.719 -0.7248 -1.9709 -0.3422
 1088TIP3    H224680   0.773   3.714  11.847 -0.2799 -0.4312  0.3237
 1089TIP3   OH224681   0.357   4.612  12.544  0.3868  0.2126  0.2529
 1089TIP3    H124682   0.296   4.639  12.613 -0.1136 -0.5350  0.1226
 1089TIP3    H224683   0.336   4.668  12.470 -0.5464 -0.4177  0.0262
 1090TIP3   OH224684   6.081   4.321  11.874 -0.2712  0.3033 -0.5685
 1090TIP3    H124685   6.002   4.273  11.900  0.9463 -1.5910 -0.1842
 1090TIP3    H224686   6.142   4.307  11.946  0.7653  0.9082 -1.3078
 1091TIP3   OH224687   3.526   2.796  13.834 -0.1838  0.0288 -0.1964
 1091TIP3    H124688   3.607   2.839  13.860 -0.3600  0.2563 -0.0153
 1091TIP3    H224689   3.477   2.785  13.916 -0.0776 -0.6478 -0.2184
 1092TIP3   OH224690   1.811   1.492  12.152  0.5787 -0.4194  0.1089
 1092TIP3    H124691   1.744   1.514  12.086  0.2807  1.5015  0.9737
 1092TIP3    H224692   1.894   1.511  12.108  0.5458 -1.9764 -0.6759
 1093TIP3   OH224693   3.489   0.180   5.007  0.1881 -0.9714  0.0638
 1093TIP3    H124694   3.524   0.202   4.921 -0.5984 -2.6798 -0.7461
 1093TIP3    H224695   3.551   0.217   5.069  0.7155  0.3863 -1.2264
 1094TIP3   OH224696   5.658   6.738  12.236 -0.0767  0.0732 -0.2698
 1094TIP3    H124697   5.612   6.672  12.184 -1.3160  0.6545  0.0534
 1094TIP3    H224698   5.613   6.738  12.320  0.7743  0.3976  0.1887
 1095TIP3   OH224699   3.585   4.176   2.720  0.1967  0.1787 -0.2438
 1095TIP3    H124700   3.678   4.194   2.706  0.1703  0.4690 -0.0607
 1095TIP3    H224701   3.540   4.244   2.670  0.0664 -0.5633 -1.1537
 1096TIP3   OH224702   2.897   2.305   3.535 -0.0479 -0.0007  0.1157
 1096TIP3    H124703   2.962   2.321   3.604  0.9880  1.2685 -1.0910
 1096TIP3    H224704   2.820   2.272   3.582  0.8141  0.2420  1.7976
 1097TIP3   OH224705   0.948   4.590  13.228  0.4832  0.3642  0.4856
 1097TIP3    H124706   1.041   4.576  13.244  0.2969 -1.6474  0.0241
 1097TIP3    H224707   0.906   4.562  13.309  0.2345  0.7574  0.4959
 1098TIP3   OH224708   1.380   3.484  11.159  0.4546  0.5639 -0.6287
 1098TIP3    H124709   1.390   3.474  11.254 -0.0938 -0.5159 -0.6599
 1098TIP3    H224710   1.353   3.397  11.129 -0.8215  1.2621 -1.5827
 1099TIP3   OH224711   2.252   1.885   2.430 -0.1422  0.1024 -0.5545
 1099TIP3    H124712   2.234   1.917   2.518 -0.1502  0.5364 -0.7099
 1099TIP3    H224713   2.168   1.888   2.385 -0.4556 -1.5304 -0.1551
 1100TIP3   OH224714   2.738   3.421   5.415 -0.0777  0.3061  0.6522
 1100TIP3    H124715   2.831   3.434   5.399 -0.4534  0.8579 -1.3100
 1100TIP3    H224716   2.735   3.356   5.485  1.7707  0.0333  0.5337
 1101TIP3   OH224717   4.071   4.692   5.462 -0.6628  0.2632 -0.0970
 1101TIP3    H124718   4.091   4.778   5.500  0.9834  0.0285 -0.3692
 1101TIP3    H224719   4.036   4.712   5.376 -1.2714  0.6913  0.2456
 1102TIP3   OH224720   0.589   0.639  12.562  0.0643  0.2623  0.1236
 1102TIP3    H124721   0.554   0.685  12.638  0.7035  1.9487 -0.5486
 1102TIP3    H224722   0.678   0.615  12.587 -0.1675 -0.3739  0.3641
 1103TIP3   OH224723   3.085   4.395   3.839  0.4055 -0.3355 -0.2360
 1103TIP3    H124724   3.025   4.322   3.849 -0.8702  0.9578  2.7404
 1103TIP3    H224725   3.036   4.460   3.788 -1.1378  0.9185  2.6008
 1104TIP3   OH224726   3.408   4.872   4.143 -0.0921 -0.1658  0.0148
 1104TIP3    H124727   3.436   4.952   4.098 -0.2394 -0.5460 -0.7591
 1104TIP3    H224728   3.489   4.835   4.178  0.6610 -1.8203 -3.1143
 1105TIP3   OH224729   0.481   1.561  15.660 -0.5150 -0.1138 -0.2199
 1105TIP3    H124730   0.413   1.576  15.725 -0.8454  0.5109 -0.6998
 1105TIP3    H224731   0.440   1.584  15.577  0.8463  2.1614 -0.3465
 1106TIP3   OH224732   5.877   0.062  10.942 -0.2764 -0.7377 -0.2363
 1106TIP3    H124733   5.868   0.058  10.847  0.4173 -0.4009 -0.3169
 1106TIP3    H224734   5.787   0.069  10.974 -0.8252 -3.8553 -0.7025
 1107TIP3   OH224735   2.254   0.368   1.215 -0.1094  0.1776  0.0394
 1107TIP3    H124736   2.255   0.272   1.216 -1.7042  0.0816  2.9306
 1107TIP3    H224737   2.346   0.393   1.205  0.3991 -1.6452 -0.2224
 1108TIP3   OH224738   5.034   4.202  16.096  0.2349  0.0592 -0.0878
 1108TIP3    H124739   5.032   4.275  16.035  2.1660 -0.2303 -0.5507
 1108TIP3    H224740   5.006   4.126  16.044  1.6489 -0.1452 -0.5703
 1109TIP3   OH224741   0.861   4.731   5.646  0.1591 -0.2752 -0.9470
 1109TIP3    H124742   0.779   4.774   5.620  0.2626 -1.3708 -3.2872
 1109TIP3    H224743   0.909   4.719   5.564  2.1474 -0.7741  0.2211
 1110TIP3   OH224744   2.719   6.457   1.709 -0.0439 -0.6763 -0.5329
 1110TIP3    H124745   2.801   6.416   1.679 -0.1705  0.1428 -2.1107
 1110TIP3    H224746   2.747   6.543   1.741 -0.1014 -0.9991  0.4031
 1111TIP3   OH224747   6.555   3.763   0.270  0.9302  0.1935 -0.1897
 1111TIP3    H124748   6.521   3.815   0.343  2.2065  0.5468  0.1818
 1111TIP3    H224749   6.626   3.816   0.234  2.0687 -1.1371  0.0062
 1112TIP3   OH224750   2.771   2.685  15.425  0.0907  0.3806  0.0062
 1112TIP3    H124751   2.848   2.740  15.435  1.2695 -1.3302  0.6560
 1112TIP3    H224752   2.749   2.657  15.514  0.6153 -1.6134 -0.4438
 1113TIP3   OH224753   1.653   4.171   6.804 -0.0949  0.3057 -0.2120
 1113TIP3    H124754   1.658   4.243   6.741  0.1637  0.1094 -0.4226
 1113TIP3    H224755   1.561   4.167   6.829 -0.1080  0.7121 -0.1958
 1114TIP3   OH224756   1.930   0.725  11.444  0.1019  0.5391  0.4099
 1114TIP3    H124757   1.989   0.701  11.514  0.9317  2.0963  0.3025
 1114TIP3    H224758   1.958   0.814  11.419 -0.9873  0.5187 -1.0067
 1115TIP3   OH224759   4.393   4.036   5.273  0.2598  0.1692 -0.3231
 1115TIP3    H124760   4.314   4.014   5.322  1.5944 -1.1279  1.3955
 1115TIP3    H224761   4.446   3.956   5.276  1.9841  1.2270 -0.7129
 1116TIP3   OH224762   3.491   0.523   4.965 -0.7314  0.0668 -0.0510
 1116TIP3    H124763   3.504   0.471   5.044  0.4097 -1.3433 -1.1174
 1116TIP3    H224764   3.564   0.499   4.908 -3.0648 -1.2064 -2.7096
 1117TIP3   OH224765   1.499   1.569   4.803 -0.8292  0.4598  0.1127
 1117TIP3    H124766   1.560   1.613   4.862 -0.7813 -0.6904  0.9544
 1117TIP3    H224767   1.554   1.510   4.752 -0.9648  0.9598 -0.6242
 1118TIP3   OH224768   3.841   0.384   0.319 -0.3370  0.0420  0.2263
 1118TIP3    H124769   3.876   0.462   0.275  1.3966 -1.8748 -2.0616
 1118TIP3    H224770   3.905   0.363   0.386  0.0433 -0.2983 -0.2362
 1119TIP3   OH224771   4.357   4.315   1.598  0.1957  0.5256  0.2212
 1119TIP3    H124772   4.349   4.409   1.583 -0.4507  0.2292 -1.5110
 1119TIP3    H224773   4.450   4.302   1.617  0.7268  1.2853 -1.6116
 1120TIP3   OH224774   2.662   0.719   4.668  0.4661  0.2214  0.2745
 1120TIP3    H124775   2.664   0.768   4.750 -0.6503 -0.7679  0.9274
 1120TIP3    H224776   2.638   0.630   4.694 -3.7376  0.6285 -1.3845
 1121TIP3   OH224777   0.879   6.298  10.548 -0.2535  0.0366 -0.2200
 1121TIP3    H124778   0.783   6.297  10.551 -0.2770 -0.2369 -0.8364
 1121TIP3    H224779   0.901   6.391  10.545 -0.5591  0.0897 -1.3093
 1122TIP3   OH224780   6.366   1.505   1.322 -0.1317  0.7449 -0.3299
 1122TIP3    H124781   6.293   1.563   1.343  1.0162  1.7638  1.0255
 1122TIP3    H224782   6.444   1.561   1.327  0.8745 -0.5863 -0.4614
 1123TIP3   OH224783   6.574   4.924   2.649  0.3584  0.0336 -0.0183
 1123TIP3    H124784   6.489   4.942   2.609  0.2987  0.5798  0.3391
 1123TIP3    H224785   6.566   4.835   2.684 -0.0974  0.1206  0.1038
 1124TIP3   OH224786   3.721   0.621   4.664  0.0391 -0.4124 -0.7446
 1124TIP3    H124787   3.743   0.666   4.583  1.2909 -0.8901 -0.7048
 1124TIP3    H224788   3.764   0.535   4.656  0.1357 -0.4903  0.3834
 1125TIP3   OH224789   2.398   1.508  16.469  0.3803  0.1708 -0.4422
 1125TIP3    H124790   2.429   1.428  16.427 -0.6988 -0.4978 -0.0104
 1125TIP3    H224791   2.428   1.579  16.412  2.3733 -0.4294 -0.2219
 1126TIP3   OH224792   1.855   0.274   3.220  0.6363  0.2019 -0.2926
 1126TIP3    H124793   1.810   0.210   3.275  2.5605 -1.6729 -0.7529
 1126TIP3    H224794   1.791   0.296   3.152  0.2241 -2.0935 -0.7302
 1127TIP3   OH224795   2.119   2.387   4.952 -0.2310 -0.3929 -0.0771
 1127TIP3    H124796   2.068   2.368   4.874 -1.7275  2.0642  0.1965
 1127TIP3    H224797   2.161   2.471   4.934  1.7503 -1.1552  0.6984
 1128TIP3   OH224798   6.395   2.695  11.036 -0.5653 -0.2889  0.1432
 1128TIP3    H124799   6.315   2.650  11.008 -0.3792 -1.3815  1.2766
 1128TIP3    H224800   6.461   2.626  11.040  0.0983  0.3529  0.5491
 1129TIP3   OH224801   3.660   1.948   2.236  0.6827 -0.5814 -0.6075
 1129TIP3    H124802   3.650   2.036   2.272  1.3518 -1.0194  0.7043
 1129TIP3    H224803   3.613   1.951   2.152  0.3511  0.8948 -0.3970
 1130TIP3   OH224804   0.271   5.286   3.218 -0.4773  0.3577 -0.5321
 1130TIP3    H124805   0.182   5.318   3.235 -0.6757 -0.8711  0.9435
 1130TIP3    H224806   0.272   5.198   3.254  2.2816  1.4745  2.6438
 1131TIP3   OH224807   2.184   1.475   2.109  0.1037 -0.0325 -0.6477
 1131TIP3    H124808   2.197   1.421   2.187 -0.8675 -1.0936 -1.1849
 1131TIP3    H224809   2.271   1.506   2.087  0.3026  0.9947  1.3311
 1132TIP3   OH224810   0.369   2.548   4.353  0.4440 -0.0499  0.2510
 1132TIP3    H124811   0.401   2.562   4.442  1.5013 -0.0262 -0.1176
 1132TIP3    H224812   0.407   2.465   4.327  0.0821 -0.0899 -0.1589
 1133TIP3   OH224813   5.111   0.851  12.744 -0.1288  0.0206 -0.8462
 1133TIP3    H124814   5.193   0.801  12.742 -0.3426 -0.3298 -1.0638
 1133TIP3    H224815   5.111   0.900  12.662  1.2272  2.2920  0.3982
 1134TIP3   OH224816   4.126   0.157   0.722  0.0042  0.3995 -0.6397
 1134TIP3    H124817   4.174   0.183   0.801 -0.9601 -0.5309  0.2855
 1134TIP3    H224818   4.144   0.064   0.712  1.7940  0.8809 -2.7614
 1135TIP3   OH224819   5.309   3.994   3.625  0.2733  0.0604  0.3999
 1135TIP3    H124820   5.297   4.088   3.639 -0.9584 -0.1486  0.8625
 1135TIP3    H224821   5.360   3.965   3.701  0.2547  0.2679  0.4930
 1136TIP3   OH224822   5.250   1.944   6.529 -0.0295  0.2599 -0.2825
 1136TIP3    H124823   5.198   1.949   6.449  1.1098  0.7614 -1.0184
 1136TIP3    H224824   5.193   1.979   6.597 -0.8425  0.2884 -0.9686
 1137TIP3   OH224825   1.651   2.302   4.255 -0.1148 -0.8325 -0.3274
 1137TIP3    H124826   1.660   2.318   4.161 -0.7536 -0.3670 -0.3124
 1137TIP3    H224827   1.737   2.325   4.291 -0.1988  0.0439 -0.6591
 1138TIP3   OH224828   3.308   2.908  14.300  0.6103 -0.6185  0.3742
 1138TIP3    H124829   3.346   2.959  14.228  0.3368 -0.0081  0.6493
 1138TIP3    H224830   3.214   2.905  14.281  0.4564  0.0187  0.9754
 1139TIP3   OH224831   4.468   1.941   2.515 -0.4249 -0.5642 -0.5516
 1139TIP3    H124832   4.491   1.858   2.557  0.3809 -1.0262 -1.8359
 1139TIP3    H224833   4.513   2.008   2.567  0.4961 -1.1089 -0.6299
 1140TIP3   OH224834   6.481   4.639   4.600  0.4836 -0.5537 -0.1525
 1140TIP3    H124835   6.396   4.665   4.566  0.2274 -0.1231  0.7719
 1140TIP3    H224836   6.470   4.547   4.624  1.4404 -1.6968 -3.5861
 1141TIP3   OH224837   1.961   2.985   3.168 -0.3244  0.7434  0.1703
 1141TIP3    H124838   1.895   3.047   3.198 -0.6348  0.2314  0.5643
 1141TIP3    H224839   1.956   2.912   3.230 -0.3413  0.0735 -0.6021
 1142TIP3   OH224840   1.823   0.030  16.512 -0.1804 -0.4746  0.3439
 1142TIP3    H124841   1.913   0.012  16.482 -0.3933 -1.9262  0.4812
 1142TIP3    H224842   1.788  -0.057  16.534 -0.0601  0.4098  4.7814
 1143TIP3   OH224843   5.083   5.110  12.621  0.4522  0.1583 -0.4146
 1143TIP3    H124844   5.045   5.031  12.583 -0.0950 -0.3495  1.1501
 1143TIP3    H224845   5.176   5.107  12.595  0.1948 -0.4065 -1.2935
 1144TIP3   OH224846   1.397   1.529   0.249 -0.1115 -0.6738 -0.0095
 1144TIP3    H124847   1.404   1.436   0.271 -0.1655 -1.0570 -1.5311
 1144TIP3    H224848   1.339   1.565   0.316  0.3592 -1.5999  0.9379
 1145TIP3   OH224849   3.721   1.613  12.972  0.1016  0.0084  0.4466
 1145TIP3    H124850   3.781   1.645  12.905  1.0511 -0.5778  0.9977
 1145TIP3    H224851   3.641   1.663  12.958  0.2553 -0.1306 -1.1499
 1146TIP3   OH224852   6.245   0.737  17.080  0.4074  0.0709 -0.3766
 1146TIP3    H124853   6.212   0.827  17.080 -0.0192 -0.0751 -1.2755
 1146TIP3    H224854   6.314   0.736  17.013  0.5445 -0.2217 -0.2338
 1147TIP3   OH224855   1.742   5.554   0.282  0.1665 -0.5918 -0.0395
 1147TIP3    H124856   1.717   5.552   0.374  0.3655 -0.8553  0.0091
 1147TIP3    H224857   1.837   5.559   0.283  0.1235  0.5528 -0.2205
 1148TIP3   OH224858   5.900   5.854  15.755  0.2812 -0.1209  0.1965
 1148TIP3    H124859   5.908   5.758  15.748 -2.2386 -0.4513  0.6534
 1148TIP3    H224860   5.936   5.875  15.841 -1.1954 -1.0505  1.1078
 1149TIP3   OH224861   4.964   0.724  16.230 -0.2545  0.1046  0.2410
 1149TIP3    H124862   5.008   0.744  16.147 -1.2149  1.8287  0.0803
 1149TIP3    H224863   5.005   0.783  16.293 -1.4149  0.8179  0.3600
 1150TIP3   OH224864   5.984   5.306  13.293  0.4400 -0.0214 -0.2497
 1150TIP3    H124865   5.938   5.241  13.240  2.6109 -1.1929 -0.8395
 1150TIP3    H224866   6.006   5.376  13.231 -0.3188  0.4268 -0.0210
 1151TIP3   OH224867   3.497   4.162  13.434  0.1552  0.2042  0.3086
 1151TIP3    H124868   3.406   4.131  13.438  0.0548  0.4438 -0.0227
 1151TIP3    H224869   3.494   4.250  13.472  0.0301  0.6672 -0.7162
 1152TIP3   OH224870   5.749   5.860  16.552 -0.5358 -0.4320  0.1604
 1152TIP3    H124871   5.682   5.863  16.485 -0.2860 -1.9645 -0.2022
 1152TIP3    H224872   5.707   5.894  16.631 -1.7774 -1.4740 -0.0312
 1153TIP3   OH224873   2.944   3.572   4.208  0.1281 -0.0612  0.2549
 1153TIP3    H124874   2.965   3.632   4.280  1.1306  0.6519 -0.6151
 1153TIP3    H224875   2.991   3.491   4.230  0.3811  0.1338  0.4299
 1154TIP3   OH224876   5.811   1.019  11.292 -0.2305 -0.1811 -0.1767
 1154TIP3    H124877   5.834   1.089  11.231 -2.0030  1.2637  0.7238
 1154TIP3    H224878   5.813   0.940  11.239 -0.8363  0.9019 -1.9193
 1155TIP3   OH224879   3.829   5.996   6.223 -0.5386  0.0493 -0.2153
 1155TIP3    H124880   3.887   5.956   6.158 -0.2059  1.0980 -0.5866
 1155TIP3    H224881   3.763   5.929   6.241 -0.6579 -0.2457 -1.6600
 1156TIP3   OH224882   1.736   4.373   1.972  0.7560  0.0479 -0.0471
 1156TIP3    H124883   1.696   4.460   1.970  2.4753  0.8691 -1.4792
 1156TIP3    H224884   1.701   4.329   1.894  1.3922  0.1878 -0.4151
 1157TIP3   OH224885   5.593   2.719  15.426 -0.2634 -0.6098  0.0908
 1157TIP3    H124886   5.588   2.721  15.521 -1.7485  1.0651  0.0241
 1157TIP3    H224887   5.672   2.770  15.405  0.4716 -1.5932  0.4261
 1158TIP3   OH224888   4.734   1.891   4.732 -0.1409  0.3236  0.3411
 1158TIP3    H124889   4.656   1.912   4.680  0.8420 -1.2835 -1.9371
 1158TIP3    H224890   4.700   1.836   4.803 -1.1557 -0.1248 -0.4599
 1159TIP3   OH224891   1.625   0.643  14.716  0.6166 -0.4553  0.3120
 1159TIP3    H124892   1.571   0.578  14.671 -1.7874 -0.0412  2.3303
 1159TIP3    H224893   1.697   0.593  14.754  1.2683 -1.1783 -1.7576
 1160TIP3   OH224894   4.089   0.080   1.240 -0.0317  0.1580 -0.0680
 1160TIP3    H124895   4.157   0.116   1.297 -0.3682  1.4099 -0.4486
 1160TIP3    H224896   4.007   0.109   1.279 -0.2685  1.0663 -1.1872
 1161TIP3   OH224897   6.728   6.278  13.818 -0.7429  0.1701 -0.8561
 1161TIP3    H124898   6.654   6.273  13.757 -0.3322  1.4011 -1.4866
 1161TIP3    H224899   6.696   6.332  13.890 -1.7713 -2.5607  0.9088
 1162TIP3   OH224900   1.147   2.681  15.035  0.0188  0.4916  0.3095
 1162TIP3    H124901   1.190   2.729  14.963 -0.0218 -1.2487 -0.9315
 1162TIP3    H224902   1.128   2.749  15.100  1.7256  1.8370 -0.4991
 1163TIP3   OH224903   4.808   2.501   2.363  0.4399 -0.1435 -0.2098
 1163TIP3    H124904   4.893   2.546   2.368 -0.1241  1.1233 -1.4695
 1163TIP3    H224905   4.769   2.532   2.281 -2.0510  0.7175  1.1981
 1164TIP3   OH224906   5.249   5.450   1.740  0.0707  0.1402 -1.0214
 1164TIP3    H124907   5.195   5.433   1.663  1.3546  0.3892 -2.0180
 1164TIP3    H224908   5.305   5.523   1.715 -0.7493  1.5012  0.8265
 1165TIP3   OH224909   5.308   0.366   1.255  0.2270 -0.1461  0.1993
 1165TIP3    H124910   5.364   0.417   1.314  0.4492  1.8535 -1.6265
 1165TIP3    H224911   5.339   0.388   1.167 -3.6913  1.6315 -0.9918
 1166TIP3   OH224912   5.815   0.268   4.412 -0.4004  0.4781 -0.1295
 1166TIP3    H124913   5.851   0.202   4.470  0.9914  1.6011  0.3438
 1166TIP3    H224914   5.755   0.319   4.467  1.1859  1.7654  0.4884
 1167TIP3   OH224915   4.536   1.715   4.479  0.1435 -0.1478 -0.3249
 1167TIP3    H124916   4.557   1.626   4.505 -0.4801 -0.5330 -1.1096
 1167TIP3    H224917   4.621   1.754   4.456  0.6236 -0.0145  1.5118
 1168TIP3   OH224918   2.318   4.144  12.677  0.3875 -0.2646  0.3748
 1168TIP3    H124919   2.223   4.136  12.678  0.4649 -1.2464  0.9234
 1168TIP3    H224920   2.349   4.076  12.737  1.5404 -1.9111 -1.8971
 1169TIP3   OH224921   0.002   6.667  15.112 -0.6523 -0.1532  0.0203
 1169TIP3    H124922   0.089   6.688  15.079 -0.0305 -0.8900  1.1222
 1169TIP3    H224923   0.018   6.618  15.193 -2.0933 -0.0013  0.4321
 1170TIP3   OH224924   2.781   2.978   1.477  0.2244  0.2264  0.0404
 1170TIP3    H124925   2.697   2.984   1.433 -0.0505  0.7532  0.6192
 1170TIP3    H224926   2.826   2.905   1.434  1.1637  2.4654 -3.1001
 1171TIP3   OH224927   5.223   4.109   3.088  0.1934 -1.0305  0.1126
 1171TIP3    H124928   5.215   4.163   3.168 -0.6173 -1.4720  0.3437
 1171TIP3    H224929   5.316   4.090   3.081  0.4652  0.1576  0.1889
 1172TIP3   OH224930   0.462   4.279  15.789  0.6711  0.2711  0.4567
 1172TIP3    H124931   0.399   4.349  15.802 -0.3940 -0.7074  0.7290
 1172TIP3    H224932   0.508   4.302  15.709 -1.6282 -0.1255 -1.0683
 1173TIP3   OH224933   4.851   3.479   3.061  0.1655  0.1427 -0.3393
 1173TIP3    H124934   4.842   3.514   2.972 -1.3859  2.0979  0.5145
 1173TIP3    H224935   4.804   3.396   3.058  0.0788  0.2081 -1.3382
 1174TIP3   OH224936   3.609   1.583  14.714  0.3377 -0.3504 -0.3120
 1174TIP3    H124937   3.641   1.548  14.797  0.6977 -0.4373 -0.4827
 1174TIP3    H224938   3.689   1.608  14.667  0.1583 -0.6331 -0.7746
 1175TIP3   OH224939   1.920   0.324  15.873 -0.3442 -0.3151  0.0786
 1175TIP3    H124940   1.883   0.402  15.915 -0.2488 -0.3380  0.2053
 1175TIP3    H224941   1.904   0.338  15.779 -0.5682 -0.2695  0.1229
 1176TIP3   OH224942   2.739   0.771  15.543  0.1278 -0.1285  0.3278
 1176TIP3    H124943   2.696   0.739  15.464  0.3081 -1.0451  0.5935
 1176TIP3    H224944   2.754   0.693  15.596  0.4747  0.4103  1.0437
 1177TIP3   OH224945   4.574   0.803   0.041  0.0876  0.4724 -0.0688
 1177TIP3    H124946   4.510   0.774   0.106  1.3481 -1.0163  0.5530
 1177TIP3    H224947   4.614   0.723   0.008  1.4605  1.3399 -0.6176
 1178TIP3   OH224948   6.123   4.852   3.423  0.1954  0.6320 -0.5949
 1178TIP3    H124949   6.123   4.852   3.519  1.0149  3.1922 -0.5173
 1178TIP3    H224950   6.212   4.828   3.398  0.0411  0.1754 -0.7090
 1179TIP3   OH224951   3.908   6.702   2.111 -0.1240  0.2891 -0.4421
 1179TIP3    H124952   3.931   6.655   2.031  1.7583  2.6822 -1.4187
 1179TIP3    H224953   3.963   6.661   2.179 -1.7226 -1.7403 -0.2434
 1180TIP3   OH224954   6.462   0.235  13.499 -0.2349 -0.4341 -0.2856
 1180TIP3    H124955   6.382   0.283  13.480 -0.1216 -0.0462  0.1888
 1180TIP3    H224956   6.530   0.302  13.504  0.6349 -0.9421 -3.1463
 1181TIP3   OH224957   5.627   5.560  16.671  0.3569 -0.8182  0.4852
 1181TIP3    H124958   5.538   5.540  16.643  0.7721  0.2627 -1.8710
 1181TIP3    H224959   5.682   5.502  16.619  1.1177  0.1877  0.1264
 1182TIP3   OH224960   3.142   1.870  12.329  0.3395  0.0682 -0.6169
 1182TIP3    H124961   3.159   1.904  12.241  0.2247 -0.2830 -0.7773
 1182TIP3    H224962   3.196   1.792  12.335  1.1620  0.6683  0.0177
 1183TIP3   OH224963   0.615   5.941  15.998  1.0593 -0.3884 -0.7739
 1183TIP3    H124964   0.674   6.009  16.031 -1.9914  1.0913  2.1898
 1183TIP3    H224965   0.547   5.987  15.950  0.0524 -1.5594 -0.5369
 1184TIP3   OH224966   2.567   2.760   6.617 -0.6044  0.2606  0.2210
 1184TIP3    H124967   2.572   2.831   6.553 -1.0863  0.6628  0.6210
 1184TIP3    H224968   2.483   2.774   6.661 -1.1220 -1.0849 -0.3042
 1185TIP3   OH224969   0.128   0.656  17.007 -0.3509  0.0841  0.0146
 1185TIP3    H124970   0.057   0.701  17.053 -1.6353 -1.7989 -0.0000
 1185TIP3    H224971   0.087   0.624  16.926  0.5623 -0.8894 -0.0829
 1186TIP3   OH224972   0.942   5.211  12.810 -0.3112 -0.1189  0.4552
 1186TIP3    H124973   0.970   5.146  12.875 -0.3238 -0.0196  0.5612
 1186TIP3    H224974   0.867   5.169  12.766 -0.4207 -0.1136  0.6319
 1187TIP3   OH224975   2.684   3.686   4.525  0.0187  0.1269 -0.0152
 1187TIP3    H124976   2.750   3.725   4.582 -1.0237  0.9987  0.6419
 1187TIP3    H224977   2.622   3.757   4.508  0.5700  0.0465 -2.7098
 1188TIP3   OH224978   4.803   3.243   5.069 -0.0048 -0.2603 -0.3560
 1188TIP3    H124979   4.828   3.323   5.115  2.1684 -0.8067 -0.4846
 1188TIP3    H224980   4.859   3.175   5.106  0.4860 -1.0808 -2.4436
 1189TIP3   OH224981   0.051   5.816   3.080  0.5130 -0.5069  0.0920
 1189TIP3    H124982   0.007   5.899   3.060 -0.9051 -1.8086 -2.7261
 1189TIP3    H224983   0.053   5.813   3.175  0.4112  2.6295  0.3085
 1190TIP3   OH224984   6.373   1.174  12.383 -0.3713  0.0801 -0.1094
 1190TIP3    H124985   6.379   1.165  12.478  3.0922 -2.2046 -0.3793
 1190TIP3    H224986   6.445   1.232  12.359 -0.6574 -0.0689 -1.4427
 1191TIP3   OH224987   0.311   2.467  13.702  0.1501 -0.3180  0.0289
 1191TIP3    H124988   0.328   2.375  13.685  0.2122 -0.1345 -0.9662
 1191TIP3    H224989   0.233   2.468  13.756  0.4714 -0.9741  0.5163
 1192TIP3   OH224990   2.933   1.842   5.074  0.3581 -0.2798  0.1654
 1192TIP3    H124991   2.842   1.863   5.096  0.2503  1.7610 -1.8724
 1192TIP3    H224992   2.926   1.790   4.994  0.9807  0.4099 -0.3472
 1193TIP3   OH224993   1.252   1.206  14.944 -0.2353  0.2504  0.4673
 1193TIP3    H124994   1.228   1.288  14.902  2.0468  0.9510  0.4017
 1193TIP3    H224995   1.284   1.151  14.873 -0.4074 -0.1807  0.7172
 1194TIP3   OH224996   0.166   4.565   2.571 -0.1254  0.6000  0.0867
 1194TIP3    H124997   0.127   4.587   2.486  1.1616  1.4515 -0.3152
 1194TIP3    H224998   0.238   4.506   2.549  0.0095  0.5623  0.6185
 1195TIP3   OH224999   5.412   3.218  11.555 -0.3063  1.1327  0.7025
 1195TIP3    H125000   5.504   3.223  11.532 -0.0281 -3.2090 -0.0003
 1195TIP3    H225001   5.411   3.230  11.650  1.4862 -1.3689  1.1484
 1196TIP3   OH225002   4.540   6.158   5.303 -0.1014  0.6487  0.0665
 1196TIP3    H125003   4.556   6.124   5.391  0.5333  1.9703  0.4978
 1196TIP3    H225004   4.625   6.153   5.259 -0.5097 -0.4274 -0.6576
 1197TIP3   OH225005   1.538   6.771  13.348 -0.3386  0.2334  0.1675
 1197TIP3    H125006   1.483   6.698  13.380 -0.5884  0.5825  0.5506
 1197TIP3    H225007   1.476   6.828  13.303  0.1427 -0.6723 -1.7380
 1198TIP3   OH225008   2.030   6.331   4.975 -0.2284 -0.2223  0.3339
 1198TIP3    H125009   2.079   6.390   4.916  0.6066 -1.2166  0.0086
 1198TIP3    H225010   1.939   6.359   4.966 -0.3217 -1.1146 -2.3963
 1199TIP3   OH225011   6.246   6.474  10.647  0.1047 -0.4332  0.1207
 1199TIP3    H125012   6.340   6.460  10.660  1.4463  4.8448 -1.6084
 1199TIP3    H225013   6.214   6.502  10.733  0.4544 -0.7086  0.3442
 1200TIP3   OH225014   0.889   6.570   2.380 -0.3560  0.1458  0.3790
 1200TIP3    H125015   0.819   6.632   2.400 -0.8341 -0.5049  0.7646
 1200TIP3    H225016   0.843   6.495   2.341  0.4183  0.9730 -2.3991
 1201TIP3   OH225017   6.713   0.193  16.586  0.1620  0.0263  0.2531
 1201TIP3    H125018   6.775   0.120  16.578  2.3788  1.7493  0.7649
 1201TIP3    H225019   6.725   0.223  16.676 -0.8944  0.8806  0.1189
 1202TIP3   OH225020   5.497   0.638  15.957 -0.2633 -0.0110 -0.3078
 1202TIP3    H125021   5.578   0.653  15.908  0.4895  1.5779  1.2914
 1202TIP3    H225022   5.452   0.568  15.910  2.8695 -2.2540 -0.2465
 1203TIP3   OH225023   1.539   0.058   4.422  0.3850 -0.4108 -0.3562
 1203TIP3    H125024   1.611   0.043   4.483 -0.8838 -0.0422  1.2980
 1203TIP3    H225025   1.489  -0.024   4.423 -1.4547  0.6328  1.6917
 1204TIP3   OH225026   6.060   5.882  14.004 -0.5154 -0.0044  0.5478
 1204TIP3    H125027   6.038   5.964  13.960 -0.3793 -1.1143 -1.7529
 1204TIP3    H225028   5.982   5.861  14.056 -1.1145  0.8382  0.0062
 1205TIP3   OH225029   5.171   6.620  16.746  0.3585 -0.5213  0.3048
 1205TIP3    H125030   5.159   6.617  16.652  0.5356  1.8459  0.1679
 1205TIP3    H225031   5.235   6.551  16.764 -0.1198 -1.4026 -1.1829
 1206TIP3   OH225032   0.121   5.405  16.706 -0.3613 -0.1876 -0.1619
 1206TIP3    H125033   0.105   5.484  16.655  1.4206 -0.2303 -0.8663
 1206TIP3    H225034   0.209   5.416  16.741 -0.0109 -1.8918 -0.3947
 1207TIP3   OH225035   3.735   5.150   0.836  0.5648  0.3676 -0.1126
 1207TIP3    H125036   3.728   5.244   0.850 -2.5162  0.2848 -0.3103
 1207TIP3    H225037   3.788   5.141   0.757 -0.3797  2.0508 -0.9957
 1208TIP3   OH225038   3.444   2.099  11.605  0.0487 -0.2076 -0.2049
 1208TIP3    H125039   3.538   2.103  11.587  0.3893  0.8524  1.6575
 1208TIP3    H225040   3.419   2.190  11.621 -1.2362 -0.5231 -0.3537
 1209TIP3   OH225041   2.896   1.694  11.042  0.1875 -0.0873 -0.6457
 1209TIP3    H125042   2.923   1.694  10.950  0.8861 -1.5141 -0.4720
 1209TIP3    H225043   2.905   1.603  11.070 -0.9837  0.1373  0.5657
 1210TIP3   OH225044   4.429   5.471  15.601 -0.3084  0.1249  0.0923
 1210TIP3    H125045   4.487   5.534  15.644  2.5363 -1.9611 -0.4457
 1210TIP3    H225046   4.399   5.517  15.522 -0.3327  1.6517  0.9577
 1211TIP3   OH225047   3.830   3.577   6.420 -0.5331  0.6640  0.5227
 1211TIP3    H125048   3.859   3.593   6.510  0.4153  0.4088  0.2650
 1211TIP3    H225049   3.751   3.523   6.430  1.1080 -1.7577  1.1526
 1212TIP3   OH225050   5.468   5.703  12.269  0.3158  0.7641  0.5141
 1212TIP3    H125051   5.450   5.701  12.175  0.1475 -0.4853  0.5557
 1212TIP3    H225052   5.559   5.734  12.275  1.0725 -1.1393 -0.2098
 1213TIP3   OH225053   6.555   2.464  17.191  0.0141  0.1690 -0.7029
 1213TIP3    H125054   6.594   2.526  17.252 -1.1268  0.0459  0.1927
 1213TIP3    H225055   6.496   2.517  17.138 -0.9664 -0.1099  0.0675
 1214TIP3   OH225056   1.123   2.592   6.551 -0.1178  0.4221 -0.7025
 1214TIP3    H125057   1.049   2.597   6.491 -2.0202 -1.9901  1.2644
 1214TIP3    H225058   1.156   2.503   6.542  0.5048  0.4754  0.7334
 1215TIP3   OH225059   5.694   6.323  16.408  0.5519  0.5664 -0.3097
 1215TIP3    H125060   5.701   6.273  16.489  0.2434 -0.4611 -0.8986
 1215TIP3    H225061   5.720   6.412  16.432 -1.3109  0.7258  1.3350
 1216TIP3   OH225062   2.732   3.673   3.484  0.2808 -0.0002 -0.4395
 1216TIP3    H125063   2.772   3.642   3.565 -1.5354  0.0821  0.5466
 1216TIP3    H225064   2.781   3.630   3.415  0.9206 -1.2752  0.7549
 1217TIP3   OH225065   5.909   6.627   2.796 -0.5191  0.9720 -0.0176
 1217TIP3    H125066   5.951   6.577   2.726 -1.0576 -1.3864  1.2498
 1217TIP3    H225067   5.887   6.711   2.755 -0.7436 -0.2593 -2.6604
 1218TIP3   OH225068   0.689   2.086  11.241 -0.1364 -0.6037 -0.0366
 1218TIP3    H125069   0.714   1.994  11.250  0.2042 -0.3993  1.4115
 1218TIP3    H225070   0.755   2.134  11.292  0.3732  0.5718 -1.7079
 1219TIP3   OH225071   2.322   3.373  12.715 -0.1531  0.0221 -0.1413
 1219TIP3    H125072   2.272   3.453  12.730  0.2044  0.1659  0.3075
 1219TIP3    H225073   2.278   3.331  12.642 -1.9620 -0.6943  1.2894
 1220TIP3   OH225074   1.537   0.233  14.470 -0.7537 -0.2198  0.4012
 1220TIP3    H125075   1.500   0.145  14.472 -0.6604 -0.2709 -0.0745
 1220TIP3    H225076   1.580   0.240  14.385  1.7257 -0.7181  1.5235
 1221TIP3   OH225077   5.859   5.726   1.141  0.3214  0.1896 -0.4349
 1221TIP3    H125078   5.873   5.782   1.218 -0.6108 -0.4645  0.2347
 1221TIP3    H225079   5.766   5.733   1.122 -0.0908 -2.0638  0.4474
 1222TIP3   OH225080   3.143   2.897   2.348 -0.4855  0.5034 -0.4631
 1222TIP3    H125081   3.235   2.899   2.375  0.0704  0.3039 -2.2451
 1222TIP3    H225082   3.145   2.890   2.253 -2.3371 -2.5794 -0.4087
 1223TIP3   OH225083   4.869   1.197  13.906  0.2894 -0.3735 -0.1572
 1223TIP3    H125084   4.875   1.192  14.002 -0.3134  0.3451 -0.0689
 1223TIP3    H225085   4.795   1.255  13.890 -0.4034 -1.4524 -1.0745
 1224TIP3   OH225086   3.136   4.614   5.152  0.1106  0.1125 -0.4810
 1224TIP3    H125087   3.214   4.575   5.114 -0.9007 -1.2349 -1.2750
 1224TIP3    H225088   3.074   4.620   5.079 -0.8935  0.1322  0.3500
 1225TIP3   OH225089   4.430   0.404  17.135  0.4202  0.0470  0.2317
 1225TIP3    H125090   4.342   0.367  17.133  1.3794 -2.4455  0.9328
 1225TIP3    H225091   4.442   0.440  17.047 -0.8250 -0.7820 -0.3064
 1226TIP3   OH225092   2.400   5.022   4.893 -0.1484 -0.1625  0.0248
 1226TIP3    H125093   2.335   5.093   4.898 -1.6903 -1.5329  0.5534
 1226TIP3    H225094   2.355   4.953   4.845 -0.1419 -2.2156  2.7917
 1227TIP3   OH225095   5.907   0.717   4.890  0.2948  0.0640  0.7529
 1227TIP3    H125096   5.983   0.659   4.881  0.0583 -0.2812  0.9325
 1227TIP3    H225097   5.832   0.659   4.876  0.0769  0.9254 -2.4148
 1228TIP3   OH225098   5.661   0.963  15.859 -0.0609  0.2849 -0.5198
 1228TIP3    H125099   5.696   0.898  15.797  0.6033 -0.4419  0.5675
 1228TIP3    H225100   5.739   1.000  15.901 -0.4949 -0.9817  1.5819
 1229TIP3   OH225101   5.396   6.080   2.089 -0.3423  0.2798 -0.6892
 1229TIP3    H125102   5.426   5.999   2.049  0.9911  0.1962  0.4135
 1229TIP3    H225103   5.442   6.149   2.041 -0.4584  0.3159 -0.7509
 1230TIP3   OH225104   2.270   6.283  16.456 -0.0302 -0.2057 -0.4252
 1230TIP3    H125105   2.211   6.359  16.457 -1.2981 -1.1352  0.8604
 1230TIP3    H225106   2.350   6.314  16.497 -0.8087  0.2681  0.7938
 1231TIP3   OH225107   2.122   2.959   4.790 -0.2269 -0.0507  0.0447
 1231TIP3    H125108   2.175   2.880   4.803 -0.5683 -0.5480 -1.3957
 1231TIP3    H225109   2.096   2.956   4.698 -0.1465  1.8224 -0.0849
 1232TIP3   OH225110   1.697   2.810   3.625  0.5824  0.2179  0.4203
 1232TIP3    H125111   1.728   2.752   3.695 -0.7910 -0.9444  0.1105
 1232TIP3    H225112   1.602   2.801   3.627  0.2991  2.6669  0.4818
 1233TIP3   OH225113   6.108   2.047  11.353  0.0695  0.3529 -0.0619
 1233TIP3    H125114   6.115   2.030  11.259 -3.4823  0.5993 -0.5037
 1233TIP3    H225115   6.143   2.135  11.365  2.1820 -0.3345 -0.7854
 1234TIP3   OH225116   0.143   0.851   2.915 -0.1400  0.7282 -0.0626
 1234TIP3    H125117   0.216   0.795   2.889 -0.6766 -0.1924  0.3414
 1234TIP3    H225118   0.173   0.940   2.899  1.0067  0.3525 -0.0395
 1235TIP3   OH225119   6.374   1.224  11.578 -0.2182  0.7651 -0.3515
 1235TIP3    H125120   6.444   1.252  11.637  1.1264 -1.3899 -0.7922
 1235TIP3    H225121   6.321   1.163  11.629  0.6642 -0.7284 -1.1164
 1236TIP3   OH225122   3.925   6.423  16.041  0.2651 -0.3874 -0.4389
 1236TIP3    H125123   3.889   6.358  16.101  3.1332 -1.1339  0.6045
 1236TIP3    H225124   3.961   6.491  16.097  0.1690  0.5180 -1.4363
 1237TIP3   OH225125   4.036   5.776   6.429 -0.5546  0.9862  0.1803
 1237TIP3    H125126   3.972   5.705   6.442  0.4144 -0.1598 -0.9827
 1237TIP3    H225127   3.984   5.850   6.399 -1.5974  0.7854  1.3970
 1238TIP3   OH225128   5.129   3.409   1.421  0.3929  0.0439  0.2689
 1238TIP3    H125129   5.080   3.332   1.450 -0.2734  1.2596  2.6016
 1238TIP3    H225130   5.207   3.410   1.475  2.6743 -1.2949 -2.7179
 1239TIP3   OH225131   3.507   2.317  16.620 -0.2782 -0.0422 -0.2508
 1239TIP3    H125132   3.422   2.342  16.584 -0.9096 -0.7651  0.6722
 1239TIP3    H225133   3.519   2.377  16.694 -0.5283 -0.6759  0.3116
 1240TIP3   OH225134   2.237   5.331  15.427 -0.6499  0.3870  0.1857
 1240TIP3    H125135   2.280   5.376  15.355 -1.1450 -0.2735 -0.5298
 1240TIP3    H225136   2.256   5.238  15.413 -1.8931  0.1215  0.1187
 1241TIP3   OH225137   1.315   5.081  16.957  0.2227  0.2147 -0.0976
 1241TIP3    H125138   1.230   5.121  16.977  1.4540  2.3941  1.0844
 1241TIP3    H225139   1.362   5.081  17.040  2.0290  0.6869 -1.0747
 1242TIP3   OH225140   2.119   6.360   0.864  0.5413  0.3540  0.0942
 1242TIP3    H125141   2.076   6.319   0.939  0.8137 -1.3952 -0.6478
 1242TIP3    H225142   2.168   6.289   0.823 -1.2345  0.7165 -2.9498
 1243TIP3   OH225143   3.188   4.524   3.385  0.8782  0.2589 -0.3327
 1243TIP3    H125144   3.255   4.578   3.344 -0.1119  2.4159  0.6927
 1243TIP3    H225145   3.131   4.587   3.430 -1.3785 -1.5183 -0.5121
 1244TIP3   OH225146   2.003   5.578   0.335 -0.5266 -0.2057 -0.4065
 1244TIP3    H125147   1.987   5.611   0.423 -1.5884 -0.6826 -0.3946
 1244TIP3    H225148   2.063   5.640   0.296  0.3718 -0.2700  0.8267
 1245TIP3   OH225149   2.288   4.199   5.999  0.0360 -0.0971  0.6869
 1245TIP3    H125150   2.235   4.255   6.056 -0.3439 -0.5037  0.7456
 1245TIP3    H225151   2.232   4.123   5.982  0.4151 -0.3045  0.3414
 1246TIP3   OH225152   6.459   1.232   0.522  0.2054 -0.6745  0.1525
 1246TIP3    H125153   6.374   1.188   0.532  0.9481 -1.7239  2.4422
 1246TIP3    H225154   6.491   1.203   0.437 -1.0894 -1.3871 -0.1295
 1247TIP3   OH225155   0.629   5.933   5.837  0.3404 -0.1620 -0.0543
 1247TIP3    H125156   0.579   5.864   5.880 -0.7086  0.0009 -0.9689
 1247TIP3    H225157   0.644   5.999   5.905 -0.1833 -0.4835  0.3761
 1248TIP3   OH225158   0.824   3.285   1.562  0.2183  0.4059  0.6303
 1248TIP3    H125159   0.843   3.363   1.510 -0.6944  1.9679  2.5102
 1248TIP3    H225160   0.897   3.226   1.544  0.2220  1.0702 -1.9258
 1249TIP3   OH225161   1.656   3.376   0.540  0.2653  0.8029 -0.2476
 1249TIP3    H125162   1.706   3.337   0.468  1.3329  0.0254  0.8552
 1249TIP3    H225163   1.634   3.301   0.596 -0.3779  1.4118  0.3205
 1250TIP3   OH225164   5.032   1.557   0.331 -0.1518  0.3549  0.2049
 1250TIP3    H125165   5.040   1.496   0.405  0.4488 -0.0475 -0.1891
 1250TIP3    H225166   4.969   1.623   0.362 -1.6667 -1.0353  0.2558
 1251TIP3   OH225167   2.281   5.233   0.638 -0.2748  0.3830  0.0343
 1251TIP3    H125168   2.259   5.226   0.545  0.0305 -2.3497  0.0827
 1251TIP3    H225169   2.272   5.144   0.672  1.7641  0.8585  2.1291
 1252TIP3   OH225170   4.060   0.607   4.294 -0.1385  0.4139  0.0741
 1252TIP3    H125171   4.058   0.595   4.199 -0.4712 -0.6783  0.2118
 1252TIP3    H225172   3.982   0.660   4.313 -0.9960 -0.7656 -0.0850
 1253TIP3   OH225173   6.484   0.509  13.753 -0.6656 -0.0568 -0.3803
 1253TIP3    H125174   6.524   0.509  13.840 -0.2761 -1.4253 -0.5403
 1253TIP3    H225175   6.551   0.548  13.696 -0.1144 -0.9943 -0.3956
 1254TIP3   OH225176   3.196   4.211  14.803 -0.2507  0.1291 -0.1737
 1254TIP3    H125177   3.170   4.120  14.786 -0.2182  0.1789 -0.4930
 1254TIP3    H225178   3.210   4.248  14.717  2.6483 -0.4092 -0.0385
 1255TIP3   OH225179   0.664   6.119   6.072  0.1082  0.3969  0.5870
 1255TIP3    H125180   0.742   6.173   6.087  0.1351  0.2514  0.9856
 1255TIP3    H225181   0.620   6.116   6.157  0.6723 -1.0920  0.8660
 1256TIP3   OH225182   3.283   6.202   1.049  0.7655  0.5074 -0.5067
 1256TIP3    H125183   3.209   6.157   1.009  0.3401  0.4169  0.3560
 1256TIP3    H225184   3.259   6.295   1.046  0.6981  0.4941 -0.3938
 1257TIP3   OH225185   2.044   1.265  10.182  0.3271  0.2040 -0.0667
 1257TIP3    H125186   2.092   1.273  10.264  1.0688  0.0225 -0.4709
 1257TIP3    H225187   2.056   1.349  10.138  3.1761 -0.9193 -1.6811
 1258TIP3   OH225188   6.213   1.815  12.927  0.0063 -0.1775  0.2051
 1258TIP3    H125189   6.170   1.733  12.903 -2.4582  0.3474  2.4051
 1258TIP3    H225190   6.218   1.813  13.022 -0.1180  2.2096  0.3189
 1259TIP3   OH225191   3.330   4.259  15.413 -0.0711 -0.2546 -0.4976
 1259TIP3    H125192   3.288   4.322  15.471 -1.1290 -0.5552 -0.9155
 1259TIP3    H225193   3.339   4.180  15.466 -1.8636 -0.8223 -0.9725
 1260TIP3   OH225194   1.796   5.581  16.114  0.4923 -0.2767 -0.6442
 1260TIP3    H125195   1.829   5.667  16.141  1.0378 -0.8320  0.5205
 1260TIP3    H225196   1.864   5.520  16.139  0.6661 -0.9593 -2.5892
 1261TIP3   OH225197   0.212   1.553  13.144 -0.8885 -0.4392  0.0539
 1261TIP3    H125198   0.266   1.604  13.205 -1.1766 -0.0039 -0.0461
 1261TIP3    H225199   0.248   1.465  13.147  0.0054 -0.0953 -0.2207
 1262TIP3   OH225200   5.726   1.553   4.671  0.4162  0.3107  0.1882
 1262TIP3    H125201   5.717   1.547   4.576 -0.6993 -0.1773  0.3156
 1262TIP3    H225202   5.798   1.616   4.684  1.1402 -0.2448 -0.9714
 1263TIP3   OH225203   2.289   2.833   0.906 -0.1736 -0.7135 -0.0356
 1263TIP3    H125204   2.254   2.769   0.844 -1.2772 -0.1929  0.0184
 1263TIP3    H225205   2.252   2.917   0.876  0.3291 -0.2771  0.5616
 1264TIP3   OH225206   3.833   4.019   5.240  0.2491 -0.3770 -0.1160
 1264TIP3    H125207   3.796   4.074   5.309 -0.7321  0.0596 -0.9562
 1264TIP3    H225208   3.807   3.930   5.263 -1.3322 -0.0890 -0.6507
 1265TIP3   OH225209   2.688   4.351   2.218 -0.4087 -0.4643  0.0564
 1265TIP3    H125210   2.743   4.278   2.247 -1.2027 -2.0096 -2.1032
 1265TIP3    H225211   2.749   4.413   2.178  0.1057 -0.6507  0.5405
 1266TIP3   OH225212   5.811   5.813   1.943 -0.0205  0.0096 -0.1889
 1266TIP3    H125213   5.835   5.890   1.994  1.7111 -0.2456 -0.5484
 1266TIP3    H225214   5.724   5.790   1.974  0.1700  1.0407  1.2186
 1267TIP3   OH225215   5.400   3.943   0.330 -0.5162  0.7172  0.1200
 1267TIP3    H125216   5.361   3.982   0.252  0.1675 -2.1174 -1.7527
 1267TIP3    H225217   5.325   3.921   0.385 -1.5322 -1.9675 -2.1178
 1268TIP3   OH225218   6.747   3.598   2.402  0.4288  0.3347 -0.3521
 1268TIP3    H125219   6.670   3.611   2.346  0.1665  0.9246  0.1338
 1268TIP3    H225220   6.818   3.642   2.356 -0.0952  2.1120  0.4599
 1269TIP3   OH225221   0.333   1.393  13.921  0.6387  0.0436  0.3296
 1269TIP3    H125222   0.247   1.391  13.878  1.2730 -0.5286 -0.9791
 1269TIP3    H225223   0.342   1.306  13.960  2.0093 -1.2300 -2.5220
 1270TIP3   OH225224   3.421   3.385   0.735  0.1740 -0.1655 -0.2328
 1270TIP3    H125225   3.365   3.394   0.811 -1.3582  1.4019 -1.4795
 1270TIP3    H225226   3.377   3.321   0.680  1.2407 -1.2443  0.1167
 1271TIP3   OH225227   3.549   0.026  15.805 -0.0136  0.0248  0.8615
 1271TIP3    H125228   3.624  -0.033  15.809  0.1140  0.1258  0.1287
 1271TIP3    H225229   3.568   0.083  15.730 -1.5054 -0.8824 -0.2405
 1272TIP3   OH225230   5.690   5.846   0.766  0.1251 -0.3600  0.3589
 1272TIP3    H125231   5.659   5.936   0.761  1.0635 -0.0344  0.2698
 1272TIP3    H225232   5.656   5.805   0.686  0.7180  0.2458 -0.2158
 1273TIP3   OH225233   2.144   1.949  14.578  0.0905  0.2171  0.4652
 1273TIP3    H125234   2.081   1.985  14.640  1.2000  1.0452  1.1420
 1273TIP3    H225235   2.220   2.006  14.585  1.6490 -1.8377  1.0431
 1274TIP3   OH225236   5.317   4.771   3.944  0.6800 -0.0533 -0.6662
 1274TIP3    H125237   5.289   4.696   3.997  0.3843 -0.1455 -0.9518
 1274TIP3    H225238   5.385   4.814   3.997 -0.1128  0.2706  0.1117
 1275TIP3   OH225239   5.975   5.139   0.993 -0.2744  0.3144  0.6088
 1275TIP3    H125240   5.982   5.183   1.078 -0.5288 -0.4963  1.0621
 1275TIP3    H225241   5.954   5.048   1.015  0.3394 -0.0586 -0.3024
 1276TIP3   OH225242   5.657   0.462  14.623 -0.2329 -0.4212  0.0651
 1276TIP3    H125243   5.669   0.367  14.616  0.8388 -0.5349  2.4347
 1276TIP3    H225244   5.730   0.499  14.574 -0.2318 -0.8286 -0.2463
 1277TIP3   OH225245   2.484   5.440  15.533  0.2208 -0.4825  0.3866
 1277TIP3    H125246   2.481   5.527  15.492  1.1150 -0.8086 -0.4096
 1277TIP3    H225247   2.394   5.408  15.528  0.4176 -0.8184 -2.0446
 1278TIP3   OH225248   3.358   4.413  14.120  0.2092  0.4902  0.2753
 1278TIP3    H125249   3.333   4.437  14.031  0.1214 -0.4172  0.0384
 1278TIP3    H225250   3.451   4.438  14.127  0.2551  0.4315 -0.1207
 1279TIP3   OH225251   0.359   2.190  14.815 -0.5096  0.0927 -0.3329
 1279TIP3    H125252   0.372   2.122  14.882  0.7310  1.4196  0.8687
 1279TIP3    H225253   0.270   2.222  14.830 -0.7204 -0.5347 -0.2112
 1280TIP3   OH225254   3.692   2.952  12.770  0.1313 -0.1742 -0.0980
 1280TIP3    H125255   3.766   2.913  12.723 -0.2309  0.3295 -1.1219
 1280TIP3    H225256   3.685   3.040  12.734 -2.2264 -0.8599 -1.5203
 1281TIP3   OH225257   1.793   4.782  12.570  0.2483 -0.7167 -0.8288
 1281TIP3    H125258   1.778   4.721  12.643 -0.6028  1.5275  0.9905
 1281TIP3    H225259   1.735   4.856  12.589  1.5260  0.8458 -2.7319
 1282TIP3   OH225260   3.840   3.717  12.498  0.4062  0.1674 -0.1845
 1282TIP3    H125261   3.796   3.779  12.440  1.7138  0.4979 -0.8593
 1282TIP3    H225262   3.817   3.631  12.463  1.3025  0.3641 -1.3212
 1283TIP3   OH225263   5.577   2.068   2.543 -0.0352  0.2048 -0.0674
 1283TIP3    H125264   5.559   1.981   2.509 -0.9276  0.0287  0.8159
 1283TIP3    H225265   5.615   2.115   2.468 -0.2510 -0.6976 -0.7695
 1284TIP3   OH225266   1.832   6.163  14.962 -0.0742 -0.0227 -0.0751
 1284TIP3    H125267   1.884   6.089  14.994 -0.8318 -0.7740 -0.5526
 1284TIP3    H225268   1.838   6.228  15.033  2.7206  0.5595 -0.7026
 1285TIP3   OH225269   2.960   0.884   0.836 -0.0866 -0.0455 -0.9249
 1285TIP3    H125270   2.907   0.814   0.873  1.7721  0.5689  3.5140
 1285TIP3    H225271   2.908   0.963   0.847  0.2060  0.0515 -0.2302
 1286TIP3   OH225272   3.825   5.657  17.173  0.0355  0.6282 -0.2334
 1286TIP3    H125273   3.843   5.649  17.079 -0.5542  0.8325 -0.3655
 1286TIP3    H225274   3.756   5.723  17.180 -0.7975 -0.2616  0.2386
 1287TIP3   OH225275   4.035   0.266  15.981  0.2385  0.1191  0.8159
 1287TIP3    H125276   4.019   0.270  16.075  0.8981 -0.0641  0.9407
 1287TIP3    H225277   4.042   0.173  15.962  1.5954  0.1840  0.8607
 1288TIP3   OH225278   0.698   4.349   2.611  0.4424 -0.3923  0.2175
 1288TIP3    H125279   0.690   4.263   2.652 -0.8299 -0.2426  0.3425
 1288TIP3    H225280   0.622   4.398   2.643  0.5764  0.4297 -0.6640
 1289TIP3   OH225281   3.719   6.291   5.485  0.2113 -0.4945  0.1744
 1289TIP3    H125282   3.652   6.250   5.540 -1.5983  1.5237 -0.3737
 1289TIP3    H225283   3.763   6.352   5.544 -0.8103  0.6754 -0.2282
 1290TIP3   OH225284   0.353   6.730  14.670  0.1022 -0.8452 -0.6131
 1290TIP3    H125285   0.281   6.766  14.721  1.4361 -0.3493  1.0280
 1290TIP3    H225286   0.336   6.636  14.666  0.4624 -1.0572  1.6774
 1291TIP3   OH225287   3.528   4.260  12.829  0.5449 -0.3314 -0.2164
 1291TIP3    H125288   3.582   4.310  12.889 -0.7820  1.0378 -0.1090
 1291TIP3    H225289   3.562   4.282  12.742  1.0516 -0.5913 -0.0896
 1292TIP3   OH225290   3.321   1.064   4.065  0.1409  0.0589 -0.2783
 1292TIP3    H125291   3.237   1.091   4.027  0.1658  1.8985  0.8472
 1292TIP3    H225292   3.298   1.000   4.132 -0.3082  0.0916 -0.3990
 1293TIP3   OH225293   0.250   1.863   1.644  0.2790  0.3655 -0.3194
 1293TIP3    H125294   0.312   1.884   1.714 -0.0872  0.6765 -0.0872
 1293TIP3    H225295   0.275   1.922   1.572  0.5581  0.1530 -0.3967
 1294TIP3   OH225296   5.848   0.706  15.077  0.3832  0.0118  0.4450
 1294TIP3    H125297   5.861   0.679  15.168 -2.5480  1.3137  1.3676
 1294TIP3    H225298   5.774   0.653  15.047 -0.9803  2.0503  0.0504
 1295TIP3   OH225299   5.938   5.361  12.230 -0.1420 -0.3545 -0.1514
 1295TIP3    H125300   6.024   5.398  12.209  0.2605 -0.9124  0.4945
 1295TIP3    H225301   5.905   5.330  12.146  0.4567 -0.4868 -0.3452
 1296TIP3   OH225302   0.142   6.774  13.368 -0.3746  0.3363  0.0163
 1296TIP3    H125303   0.059   6.776  13.415 -1.1031  0.9085 -1.2317
 1296TIP3    H225304   0.146   6.687  13.329  0.9471 -0.7035  2.2786
 1297TIP3   OH225305   1.378   4.287  16.886 -0.4444  0.1003  0.3681
 1297TIP3    H125306   1.455   4.323  16.843  0.4284 -0.8737  1.0703
 1297TIP3    H225307   1.410   4.256  16.971 -1.8806  0.9061  1.2470
 1298TIP3   OH225308   5.246   2.995   3.723 -0.2819 -0.0970  0.1510
 1298TIP3    H125309   5.264   3.087   3.740 -0.0963 -0.1025 -0.0133
 1298TIP3    H225310   5.300   2.948   3.786 -0.3606 -0.0925  0.2206
 1299TIP3   OH225311   4.323   0.759   0.884  0.6222  0.5112 -0.1106
 1299TIP3    H125312   4.318   0.689   0.949 -0.7014 -0.3365 -1.0826
 1299TIP3    H225313   4.296   0.717   0.802  0.6581  1.9600 -0.8840
 1300TIP3   OH225314   2.568   2.798   2.129 -0.1890 -0.5087  0.2314
 1300TIP3    H125315   2.560   2.732   2.198 -2.2298 -2.1327 -1.4238
 1300TIP3    H225316   2.478   2.811   2.099  0.3855  1.8852 -0.5828
 1301TIP3   OH225317   2.251   2.709  10.628 -0.3717 -0.7141 -0.4371
 1301TIP3    H125318   2.246   2.790  10.678 -1.3447 -0.6300 -0.6509
 1301TIP3    H225319   2.252   2.737  10.537  1.9095 -0.8428 -0.5113
 1302TIP3   OH225320   5.261   6.308  11.226 -0.2995 -0.3638  0.6072
 1302TIP3    H125321   5.291   6.387  11.181 -1.7495 -1.1345 -1.9171
 1302TIP3    H225322   5.258   6.332  11.319 -0.2441  2.3652 -0.0329
 1303TIP3   OH225323   1.469   4.481   0.395  0.3109  0.2217 -0.2302
 1303TIP3    H125324   1.416   4.552   0.433 -1.7135 -1.3270  0.0098
 1303TIP3    H225325   1.529   4.456   0.465  0.2604  0.9155  0.0768
 1304TIP3   OH225326   5.183   5.625  13.391  1.1893 -0.0772  0.4340
 1304TIP3    H125327   5.095   5.604  13.360  1.2167  1.5044 -0.8522
 1304TIP3    H225328   5.227   5.541  13.397 -0.2847 -0.8622  0.7301
 1305TIP3   OH225329   0.836   0.542  11.879 -0.3233 -0.2233 -0.5818
 1305TIP3    H125330   0.759   0.547  11.822 -0.3085  0.4309 -0.5464
 1305TIP3    H225331   0.899   0.491  11.828 -0.0149  1.0494 -1.5061
 1306TIP3   OH225332   1.574   1.649   6.032 -0.3234  0.3032 -0.6171
 1306TIP3    H125333   1.567   1.554   6.029  0.6630  0.2459 -1.4634
 1306TIP3    H225334   1.598   1.669   6.123  0.4965 -0.3275 -0.6966
 1307TIP3   OH225335   1.017   4.744   6.176  0.1807  0.5493  0.2899
 1307TIP3    H125336   0.950   4.728   6.243 -0.6226 -0.6330 -0.7528
 1307TIP3    H225337   1.027   4.660   6.132  1.8583  0.8990 -0.0498
 1308TIP3   OH225338   3.491   6.723  16.920 -0.0235 -0.1563 -0.4281
 1308TIP3    H125339   3.451   6.694  16.838  0.1814 -1.6371 -0.0468
 1308TIP3    H225340   3.535   6.804  16.898 -0.4143 -0.2560 -1.6613
 1309TIP3   OH225341   2.342   3.988  12.285 -0.3863 -0.5961 -0.2387
 1309TIP3    H125342   2.378   4.070  12.318 -0.2017 -0.8639  0.2429
 1309TIP3    H225343   2.413   3.949  12.235 -0.8085  0.0149 -1.3343
 1310TIP3   OH225344   1.853   0.311   0.826  0.6025 -0.5213 -0.2971
 1310TIP3    H125345   1.880   0.316   0.734  1.7019  1.6451  0.0875
 1310TIP3    H225346   1.758   0.310   0.823  0.5990  0.6632 -1.4409
 1311TIP3   OH225347   5.757   2.562  11.694  0.1261 -0.3316  0.2213
 1311TIP3    H125348   5.814   2.600  11.761 -0.9326  0.4997  0.6810
 1311TIP3    H225349   5.814   2.546  11.619  0.7245  1.7486  0.1792
 1312TIP3   OH225350   3.170   5.689   1.479 -0.2056  0.1672  0.6662
 1312TIP3    H125351   3.216   5.764   1.442  0.1630 -0.1808  0.4049
 1312TIP3    H225352   3.113   5.726   1.547 -2.2084  1.0724 -1.3738
 1313TIP3   OH225353   0.812   4.978   5.249 -0.2263  0.4636  0.1622
 1313TIP3    H125354   0.730   5.027   5.248 -0.1432  0.6477 -2.1466
 1313TIP3    H225355   0.874   5.032   5.200  1.7031  0.8855  2.7820
 1314TIP3   OH225356   2.899   4.596   0.338  0.2860 -0.3292 -0.0174
 1314TIP3    H125357   2.821   4.645   0.364  0.6199  0.5913 -0.6964
 1314TIP3    H225358   2.890   4.511   0.380 -1.1067 -0.2488 -0.1344
 1315TIP3   OH225359   5.704   3.461   0.557 -0.2939 -0.0377 -0.0400
 1315TIP3    H125360   5.674   3.467   0.648 -0.4340 -0.1179 -0.0823
 1315TIP3    H225361   5.773   3.395   0.559 -1.7534 -1.6055 -0.3870
 1316TIP3   OH225362   1.612   3.892  14.292 -0.0487 -0.5365 -1.0567
 1316TIP3    H125363   1.667   3.875  14.216  0.8242  0.2804 -0.6186
 1316TIP3    H225364   1.660   3.854  14.366 -0.7816 -1.1233 -0.8593
 1317TIP3   OH225365   0.272   1.677   5.873  0.2209  0.8013 -1.1920
 1317TIP3    H125366   0.275   1.586   5.903 -1.3904  1.4556  1.2635
 1317TIP3    H225367   0.260   1.671   5.778 -0.1389 -1.5231 -1.0549
 1318TIP3   OH225368   3.006   5.672  11.527 -0.7285  1.3727 -0.2878
 1318TIP3    H125369   3.099   5.656  11.540 -0.4614  2.0156 -1.3139
 1318TIP3    H225370   3.001   5.725  11.448 -1.8762  2.5669  0.5295
 1319TIP3   OH225371   6.223   3.790   3.386 -0.1276  0.1454  0.2451
 1319TIP3    H125372   6.239   3.713   3.441  0.1199  0.7130  0.9817
 1319TIP3    H225373   6.260   3.767   3.301  0.3181 -0.3871  0.5785
 1320TIP3   OH225374   4.996   2.362  10.657 -0.7262 -0.1967  0.2419
 1320TIP3    H125375   5.062   2.346  10.589 -0.7696 -0.7757  0.3305
 1320TIP3    H225376   5.032   2.434  10.708 -0.1896 -0.4624  0.2495
 1321TIP3   OH225377   3.073   5.399   3.996  0.1730  0.4196 -0.2429
 1321TIP3    H125378   3.153   5.451   3.991 -0.4668  1.3551 -1.3066
 1321TIP3    H225379   3.030   5.429   4.077  0.9272 -0.1604  0.3842
 1322TIP3   OH225380   1.957   3.756  13.519 -0.6496 -0.2340  0.0854
 1322TIP3    H125381   2.021   3.685  13.522 -0.9463 -0.4784  1.2319
 1322TIP3    H225382   1.876   3.716  13.549 -0.8601  0.5403  0.5949
 1323TIP3   OH225383   5.531   5.557   2.825  0.1658  0.0564  0.0975
 1323TIP3    H125384   5.615   5.603   2.820  0.2937 -0.0879  0.7738
 1323TIP3    H225385   5.504   5.546   2.734  0.1019  1.5214 -0.0884
 1324TIP3   OH225386   4.511   3.027   0.209  0.2643  0.0562 -0.1912
 1324TIP3    H125387   4.540   3.040   0.299  0.9172  3.9944 -0.7763
 1324TIP3    H225388   4.425   3.070   0.206  0.2077 -0.1172 -1.4134
 1325TIP3   OH225389   6.243   2.468  16.802 -0.6811 -0.1955  0.1978
 1325TIP3    H125390   6.244   2.411  16.726 -1.3766 -1.0029  0.7808
 1325TIP3    H225391   6.201   2.549  16.771  0.1168 -0.0633 -0.5697
 1326TIP3   OH225392   1.355   4.886   6.443  0.3887  0.0114 -0.2627
 1326TIP3    H125393   1.276   4.859   6.491 -0.7367  2.9663 -0.2296
 1326TIP3    H225394   1.333   4.872   6.351  0.0126  0.3016 -0.2229
 1327TIP3   OH225395   0.529   6.675   2.401 -0.1723 -0.3308  0.5016
 1327TIP3    H125396   0.500   6.621   2.475  0.8681  0.5086  1.5519
 1327TIP3    H225397   0.458   6.668   2.337 -1.1005 -1.0697  1.5831
 1328TIP3   OH225398   4.212   3.751  11.815  0.1404  0.0061  0.2996
 1328TIP3    H125399   4.142   3.787  11.869  0.9721  0.1890  1.2981
 1328TIP3    H225400   4.282   3.730  11.877  1.1572  0.2893 -0.7092
 1329TIP3   OH225401   3.019   5.034   4.668  0.4261  0.0547 -0.3616
 1329TIP3    H125402   2.940   5.021   4.721  0.5270 -0.3004 -0.2994
 1329TIP3    H225403   3.072   5.095   4.719  0.5217 -0.2818 -0.0503
 1330TIP3   OH225404   1.420   4.494  12.468 -0.1769 -0.3600 -0.1546
 1330TIP3    H125405   1.476   4.424  12.435  0.1479 -1.0124  1.6542
 1330TIP3    H225406   1.383   4.534  12.390  0.4997 -1.8385 -1.2865
 1331TIP3   OH225407   2.154   0.987   0.979 -0.2645 -0.7257 -0.3611
 1331TIP3    H125408   2.243   0.996   1.014 -0.2239  2.9457 -0.9710
 1331TIP3    H225409   2.166   0.978   0.884 -0.4606  1.1212 -0.6050
 1332TIP3   OH225410   0.309   3.009  11.623 -0.1613  0.2531 -0.0601
 1332TIP3    H125411   0.402   3.024  11.639 -0.1265  0.4201 -0.3959
 1332TIP3    H225412   0.266   3.030  11.706  0.0581  0.5923 -0.0314
 1333TIP3   OH225413   2.288   0.685   1.180 -0.8854  0.7329  0.3700
 1333TIP3    H125414   2.241   0.615   1.134 -0.3950  0.2137  0.6547
 1333TIP3    H225415   2.219   0.738   1.220 -1.2982  0.8898 -0.5219
 1334TIP3   OH225416   5.395   0.242  16.864 -0.5472 -0.0309  0.2320
 1334TIP3    H125417   5.305   0.272  16.876 -0.8469 -1.4704  1.9462
 1334TIP3    H225418   5.391   0.147  16.874  0.9241 -0.3289 -1.4131
 1335TIP3   OH225419   3.686   1.735  16.521  0.1227  0.4904  0.0976
 1335TIP3    H125420   3.698   1.660  16.580  1.8703 -0.5775 -1.4907
 1335TIP3    H225421   3.621   1.705  16.459 -2.0945  1.7988  1.6554
 1336TIP3   OH225422   1.053   3.761   6.037 -0.0797  0.7146 -0.4173
 1336TIP3    H125423   1.070   3.849   6.004 -1.5968  0.8091 -0.9931
 1336TIP3    H225424   1.034   3.774   6.130 -1.8343  1.2251 -0.8084
 1337TIP3   OH225425   5.215   5.410  12.927 -0.3538 -0.5751  0.1351
 1337TIP3    H125426   5.236   5.360  12.848 -0.3429 -2.2275  1.1399
 1337TIP3    H225427   5.151   5.475  12.898  1.0133  0.0750 -1.5859
 1338TIP3   OH225428   2.432   5.080  16.654  0.0760 -0.7302  0.0384
 1338TIP3    H125429   2.524   5.094  16.677 -0.5771  0.8661  1.9614
 1338TIP3    H225430   2.386   5.155  16.692 -1.9653 -1.1386 -1.4440
 1339TIP3   OH225431   2.264   1.103  13.404 -0.3687 -0.4633 -0.0486
 1339TIP3    H125432   2.256   1.008  13.416 -1.5264 -0.5436 -1.2156
 1339TIP3    H225433   2.357   1.118  13.392 -0.1991 -1.4968 -0.1284
 1340TIP3   OH225434   0.201   0.546   5.889 -0.2190  0.2689 -0.7686
 1340TIP3    H125435   0.195   0.570   5.796 -3.7560 -0.2226 -0.7950
 1340TIP3    H225436   0.201   0.450   5.889  1.3785  0.2473 -0.2720
 1341TIP3   OH225437   4.111   2.592   0.643  0.7623  0.7945  0.2291
 1341TIP3    H125438   4.047   2.521   0.652  0.2700  1.0038 -1.4148
 1341TIP3    H225439   4.126   2.622   0.733 -0.8306  0.2084  0.7177
 1342TIP3   OH225440   4.053   5.228  11.990  0.0067  0.4979  0.2064
 1342TIP3    H125441   4.006   5.236  11.907  0.5178 -0.1550 -0.1512
 1342TIP3    H225442   4.066   5.134  12.001 -0.9628  0.4897  1.5410
 1343TIP3   OH225443   4.991   5.718  16.477 -0.0717 -0.3760  0.0294
 1343TIP3    H125444   4.934   5.646  16.503  0.2742 -1.3942 -1.8230
 1343TIP3    H225445   5.026   5.752  16.559 -0.1235 -2.4189  0.9552
 1344TIP3   OH225446   0.326   3.887  13.466  0.0593  0.9028  0.4705
 1344TIP3    H125447   0.291   3.827  13.400  1.9755  0.9598 -0.6882
 1344TIP3    H225448   0.266   3.961  13.466 -0.6306  0.3610 -0.3556
 1345TIP3   OH225449   1.544   0.114  10.713 -0.7751 -0.0636  0.5513
 1345TIP3    H125450   1.478   0.057  10.753 -1.2868 -0.1463 -0.3681
 1345TIP3    H225451   1.600   0.054  10.663 -1.8572  0.2673 -1.1707
 1346TIP3   OH225452   3.960   0.932  11.762 -0.4606 -0.0989  0.3500
 1346TIP3    H125453   3.941   0.922  11.855 -2.2515 -1.3506 -0.0907
 1346TIP3    H225454   3.878   0.910  11.719  0.6144 -0.5388 -1.5722
 1347TIP3   OH225455   2.174   2.158   0.507  0.2239  0.6186  0.9159
 1347TIP3    H125456   2.117   2.164   0.430 -0.0301 -0.3189  1.0163
 1347TIP3    H225457   2.252   2.208   0.483  0.4595 -0.2610 -0.2369
 1348TIP3   OH225458   6.402   3.531  16.462  0.0220 -0.6933  0.4956
 1348TIP3    H125459   6.488   3.491  16.472 -0.5028 -1.7847  0.8199
 1348TIP3    H225460   6.373   3.504  16.375 -0.2510 -0.8504  0.6340
 1349TIP3   OH225461   5.673   2.314   1.058  0.3999  0.9443 -0.5781
 1349TIP3    H125462   5.735   2.241   1.060  1.6053  1.9237  0.1827
 1349TIP3    H225463   5.598   2.284   1.108  1.0520  0.3687  0.0766
 1350TIP3   OH225464   0.408   6.295   3.923 -0.5417  0.2257  0.0797
 1350TIP3    H125465   0.451   6.245   3.853 -0.3950 -0.6623  0.7836
 1350TIP3    H225466   0.480   6.337   3.970 -0.3632 -1.4176  1.3789
 1351TIP3   OH225467   6.408   4.237   0.385  0.4249  0.4526 -0.0303
 1351TIP3    H125468   6.417   4.315   0.441 -0.6510  0.7441 -0.2405
 1351TIP3    H225469   6.335   4.188   0.424  0.9835 -0.3755  0.0010
 1352TIP3   OH225470   1.792   1.226   4.089 -0.0718  0.2950 -0.4228
 1352TIP3    H125471   1.714   1.273   4.117  1.1501  1.8299  0.5441
 1352TIP3    H225472   1.843   1.212   4.169  0.0901 -1.8311 -0.8339
 1353TIP3   OH225473   2.905   2.259  12.981 -0.5066  0.1081 -0.3767
 1353TIP3    H125474   2.930   2.344  12.943  1.2521  0.0795  0.6355
 1353TIP3    H225475   2.924   2.196  12.912 -1.8193  0.4936 -1.1374
 1354TIP3   OH225476   2.647   6.596  11.421 -0.1798  0.0876 -0.2206
 1354TIP3    H125477   2.674   6.505  11.432 -1.2769 -0.3723 -1.1811
 1354TIP3    H225478   2.613   6.601  11.331 -0.7035  1.2921  0.0213
 1355TIP3   OH225479   6.193   5.694  17.082 -0.1273 -0.1995 -0.6217
 1355TIP3    H125480   6.169   5.645  17.003 -1.0854  0.5914 -0.8288
 1355TIP3    H225481   6.267   5.748  17.054 -1.5327  1.3596 -1.4910
 1356TIP3   OH225482   2.380   1.446   5.767  0.4891  0.2632 -0.4917
 1356TIP3    H125483   2.298   1.462   5.720  0.4687  0.4952 -0.3777
 1356TIP3    H225484   2.353   1.403   5.848  0.4959  0.1784 -0.5340
 1357TIP3   OH225485   5.172   0.814   2.069  0.0046 -0.0159 -0.8235
 1357TIP3    H125486   5.123   0.815   1.987 -0.5995  2.9250 -0.5524
 1357TIP3    H225487   5.264   0.825   2.043 -0.1539  0.5943 -1.1361
 1358TIP3   OH225488   1.775   0.680  16.593 -0.1281 -0.6264  0.6318
 1358TIP3    H125489   1.764   0.679  16.689  2.0337 -0.3120  0.9267
 1358TIP3    H225490   1.842   0.613  16.577 -0.7167 -0.9081 -0.7151
 1359TIP3   OH225491   1.501   3.594   5.145  0.3080  0.2569  0.7038
 1359TIP3    H125492   1.525   3.503   5.130 -1.1876 -0.1523  0.6837
 1359TIP3    H225493   1.557   3.644   5.085  0.6438 -0.6889  0.2171
 1360TIP3   OH225494   5.286   3.831  13.638 -0.9264 -0.2520  0.0074
 1360TIP3    H125495   5.336   3.760  13.680 -0.2689 -0.0360 -0.4017
 1360TIP3    H225496   5.232   3.867  13.709 -1.0075 -0.9262  0.2986
 1361TIP3   OH225497   4.274   4.811  12.905  0.1860  0.1244  0.7632
 1361TIP3    H125498   4.292   4.729  12.951  1.8340  1.7175  3.2007
 1361TIP3    H225499   4.351   4.826  12.850 -1.7845 -1.7835 -2.8838
 1362TIP3   OH225500   6.166   4.986  11.960 -0.1346 -0.7273 -0.0420
 1362TIP3    H125501   6.229   4.916  11.975 -0.3355 -0.7795  0.5985
 1362TIP3    H225502   6.109   4.953  11.891  0.6559 -0.5964 -0.7681
 1363TIP3   OH225503   3.486   0.495  13.271 -0.0294 -0.5724  0.1978
 1363TIP3    H125504   3.490   0.539  13.356  0.6383 -0.5903  0.1754
 1363TIP3    H225505   3.571   0.511  13.231 -0.2248 -0.8426 -0.3316
 1364TIP3   OH225506   3.244   3.157   1.706 -0.3062  0.2324  0.0274
 1364TIP3    H125507   3.317   3.219   1.705  0.2099 -0.3597 -1.1963
 1364TIP3    H225508   3.272   3.086   1.649 -1.0848 -0.9226  1.0450
 1365TIP3   OH225509   6.228   5.732   4.226  0.1330 -0.2300  0.6441
 1365TIP3    H125510   6.282   5.778   4.291 -0.5780 -0.5045  1.4412
 1365TIP3    H225511   6.145   5.780   4.226  0.1863 -0.1291 -0.2009
 1366TIP3   OH225512   5.724   0.751   1.661  0.1515 -0.0532 -0.3767
 1366TIP3    H125513   5.716   0.687   1.732 -0.7668 -2.4716 -2.4851
 1366TIP3    H225514   5.765   0.702   1.589  1.7145  2.4747 -1.3573
 1367TIP3   OH225515   0.024   3.697  11.105  0.3385  0.0832 -0.3596
 1367TIP3    H125516   0.065   3.619  11.142 -1.5687 -0.8123 -0.0422
 1367TIP3    H225517   0.071   3.770  11.145  0.4854 -0.8892  1.3387
 1368TIP3   OH225518   5.041   0.731   2.472 -0.4414  0.3252  0.1335
 1368TIP3    H125519   5.033   0.794   2.543  0.7214  0.8561 -0.1827
 1368TIP3    H225520   4.972   0.756   2.410  1.6273  3.0897 -1.3013
 1369TIP3   OH225521   6.029   4.623   3.703  0.0828  0.0733  0.3944
 1369TIP3    H125522   5.946   4.651   3.664 -0.1824  1.7075  1.9709
 1369TIP3    H225523   6.093   4.688   3.673  0.0649  0.7869  1.7845
 1370TIP3   OH225524   4.833   5.070   5.179  0.1917  0.6672 -0.0736
 1370TIP3    H125525   4.893   4.997   5.196  0.7876  0.5432 -2.3898
 1370TIP3    H225526   4.866   5.142   5.232  1.1041 -0.0249  0.3265
 1371TIP3   OH225527   1.025   2.432  10.881  0.2199 -0.1795  0.4404
 1371TIP3    H125528   0.965   2.415  10.808  1.2325  0.0549 -0.4941
 1371TIP3    H225529   1.017   2.355  10.937 -1.1442 -0.0212  0.4985
 1372TIP3   OH225530   3.440   4.414  13.554  0.5065  0.1921 -0.0570
 1372TIP3    H125531   3.370   4.348  13.552  0.7506 -0.1238  0.9578
 1372TIP3    H225532   3.411   4.478  13.620  0.6667  0.6431 -0.4231
 1373TIP3   OH225533   5.425   2.216   1.169  0.0108 -0.4395 -0.3253
 1373TIP3    H125534   5.362   2.144   1.178 -1.5179  0.8207 -0.3338
 1373TIP3    H225535   5.437   2.248   1.258  0.0010 -0.1590 -0.4243
 1374TIP3   OH225536   0.242   2.931  12.890  0.4385  0.0705  0.0860
 1374TIP3    H125537   0.265   2.882  12.969  1.1199  0.6733  0.2707
 1374TIP3    H225538   0.322   2.931  12.837  0.5056  1.1035  0.1619
 1375TIP3   OH225539   1.732   6.303   1.973 -0.2279 -0.0162 -0.5504
 1375TIP3    H125540   1.775   6.218   1.969  1.3777  0.7943 -2.0075
 1375TIP3    H225541   1.682   6.308   1.891  0.6517  0.8813 -1.0614
 1376TIP3   OH225542   0.604   1.796   5.451  0.9092 -0.1747  0.3711
 1376TIP3    H125543   0.675   1.765   5.508  1.6828  1.1383  0.1738
 1376TIP3    H225544   0.550   1.851   5.509  0.7895 -0.1308  0.2175
 1377TIP3   OH225545   1.540   4.496   2.176  0.3790 -0.4601 -0.5695
 1377TIP3    H125546   1.462   4.491   2.121 -1.4437  0.9029  1.7020
 1377TIP3    H225547   1.589   4.417   2.155 -0.4071 -0.2483 -3.7377
 1378TIP3   OH225548   3.824   0.737  12.962 -0.3527  0.0768  0.8199
 1378TIP3    H125549   3.735   0.740  12.928 -0.2084 -0.8324  0.3217
 1378TIP3    H225550   3.877   0.709  12.887  0.3823  0.7936  1.0518
 1379TIP3   OH225551   0.238   0.669  12.052 -0.2311 -0.2660  0.0125
 1379TIP3    H125552   0.298   0.595  12.061  0.0454 -0.4805 -2.7631
 1379TIP3    H225553   0.152   0.629  12.040 -0.1458 -0.1420 -1.0639
 1380TIP3   OH225554   1.620   3.594   3.423  0.3343  0.3009  0.9567
 1380TIP3    H125555   1.711   3.600   3.396  0.6960 -1.9297  1.5128
 1380TIP3    H225556   1.595   3.503   3.404 -1.5175  0.6327  1.5828
 1381TIP3   OH225557   3.655   4.222  15.807  0.0445 -0.1723  0.0353
 1381TIP3    H125558   3.568   4.259  15.789 -0.3269 -1.7873 -1.8103
 1381TIP3    H225559   3.652   4.200  15.900 -1.5153 -0.1469  0.0284
 1382TIP3   OH225560   3.240   3.827  16.170  0.3566  0.1461  0.1599
 1382TIP3    H125561   3.219   3.736  16.191  1.1954 -0.2358 -0.5836
 1382TIP3    H225562   3.171   3.854  16.109 -0.5487  0.3936  1.2684
 1383TIP3   OH225563   0.509   1.213   0.911 -0.4449  0.1596 -0.4674
 1383TIP3    H125564   0.465   1.271   0.849  0.0802  0.6255 -0.4141
 1383TIP3    H225565   0.586   1.262   0.939  2.1977 -2.0194 -3.2978
 1384TIP3   OH225566   5.051   2.361  12.055  0.5150  0.8119  0.2305
 1384TIP3    H125567   5.106   2.284  12.069  0.0158  0.1977 -0.9918
 1384TIP3    H225568   5.026   2.356  11.962 -2.3352  0.5373  0.9137
 1385TIP3   OH225569   3.784   1.073  16.734  0.0584 -0.2962  0.2632
 1385TIP3    H125570   3.799   1.044  16.644  1.0910  1.5819 -0.2107
 1385TIP3    H225571   3.753   0.994  16.780  0.1384 -1.4370 -1.5641
 1386TIP3   OH225572   2.007   6.511  11.381 -0.3962 -0.4574  0.6665
 1386TIP3    H125573   1.989   6.456  11.457 -0.3653 -0.8798  0.3747
 1386TIP3    H225574   2.103   6.518  11.379 -0.4539  0.6020  1.3953
 1387TIP3   OH225575   0.590   3.249  12.955  0.2552  0.1429  0.4313
 1387TIP3    H125576   0.595   3.286  12.867  2.3572 -0.8367  0.0653
 1387TIP3    H225577   0.652   3.301  13.007  1.3605 -1.1808  0.5163
 1388TIP3   OH225578   2.209   2.221   5.159  0.3289 -0.0763 -0.3588
 1388TIP3    H125579   2.180   2.243   5.247  0.4815 -0.4293 -0.2179
 1388TIP3    H225580   2.174   2.291   5.104  1.5921  1.0311  0.2053
 1389TIP3   OH225581   2.664   6.321  11.832  0.2089 -0.5090 -0.6777
 1389TIP3    H125582   2.626   6.246  11.785  1.7740 -1.4009 -0.6031
 1389TIP3    H225583   2.689   6.285  11.917 -0.7668  0.6034  0.1071
 1390TIP3   OH225584   1.375   2.577  16.559  0.0212 -0.4403 -0.0331
 1390TIP3    H125585   1.380   2.660  16.513 -2.3412 -1.4450 -2.3570
 1390TIP3    H225586   1.304   2.587  16.621  0.3968 -0.4335  0.4031
 1391TIP3   OH225587   5.064   2.876   1.755  0.1499  0.1688 -0.9482
 1391TIP3    H125588   4.970   2.891   1.744  0.4420  2.2395 -0.9240
 1391TIP3    H225589   5.076   2.871   1.850  0.0955  0.0210 -0.9478
 1392TIP3   OH225590   2.849   2.726   1.420 -0.0868 -0.1156  0.3803
 1392TIP3    H125591   2.819   2.717   1.511  1.0643 -1.5239  0.6571
 1392TIP3    H225592   2.798   2.661   1.372  0.3327 -0.3759  0.2876
 1393TIP3   OH225593   6.596   5.793   1.141  0.4716 -0.2813 -0.2647
 1393TIP3    H125594   6.673   5.785   1.197 -0.4632  0.3706  1.1786
 1393TIP3    H225595   6.627   5.771   1.054  2.3491  0.2416  0.2385
 1394TIP3   OH225596   2.520   4.114   5.363  0.2157 -0.0507  0.0413
 1394TIP3    H125597   2.544   4.185   5.423 -1.1228 -0.7889  1.5431
 1394TIP3    H225598   2.425   4.109   5.369  0.2187 -1.4201 -0.6713
 1395TIP3   OH225599   1.495   0.178  15.604 -0.1655 -0.4674 -0.1987
 1395TIP3    H125600   1.503   0.119  15.679  0.7715 -1.5385 -1.0974
 1395TIP3    H225601   1.552   0.252  15.625 -1.4775  0.2489  1.0121
 1396TIP3   OH225602   1.893   5.104   5.796 -0.0928 -0.0007  0.1551
 1396TIP3    H125603   1.913   5.014   5.824  2.7765  1.0173  1.8480
 1396TIP3    H225604   1.958   5.122   5.728 -2.2534  0.0485 -1.9973
 1397TIP3   OH225605   0.671   2.164   3.876  0.1387  0.4853 -0.7792
 1397TIP3    H125606   0.673   2.082   3.924  1.7180  0.6769 -0.4653
 1397TIP3    H225607   0.748   2.212   3.906 -0.3436  1.7814 -1.4929
 1398TIP3   OH225608   1.670   3.244  12.196  0.5223 -0.1023  0.0599
 1398TIP3    H125609   1.650   3.259  12.288  1.0378  2.2246 -0.1403
 1398TIP3    H225610   1.746   3.185  12.197  0.9287  0.4059  1.1526
 1399TIP3   OH225611   2.045   0.662   1.804  0.4207  0.2628  0.5293
 1399TIP3    H125612   2.096   0.742   1.814 -0.8379  1.4976 -2.1308
 1399TIP3    H225613   2.100   0.605   1.750  0.8098 -0.2178  1.4136
 1400TIP3   OH225614   6.177   0.971   5.508  0.4523 -0.0150 -0.2597
 1400TIP3    H125615   6.272   0.980   5.512  0.7517 -2.3779 -0.7542
 1400TIP3    H225616   6.155   0.993   5.417  0.2583  2.1686  0.2600
 1401TIP3   OH225617   3.975   4.516  15.825 -0.0964  0.1824 -0.4255
 1401TIP3    H125618   4.062   4.497  15.791  0.4176 -0.0825  1.0032
 1401TIP3    H225619   3.950   4.598  15.781 -0.1021 -0.8876 -2.5379
 1402TIP3   OH225620   1.615   6.060   2.696  0.1488 -0.1786  0.1747
 1402TIP3    H125621   1.703   6.059   2.658  0.3146  1.6575  0.4175
 1402TIP3    H225622   1.557   6.081   2.622 -0.0535 -0.8759  0.1203
 1403TIP3   OH225623   0.711   0.109   0.640  0.0518 -0.1682  0.3107
 1403TIP3    H125624   0.692   0.112   0.546  0.1039  2.3911  0.3199
 1403TIP3    H225625   0.705   0.200   0.669  2.1657 -0.5886  2.3751
 1404TIP3   OH225626   5.176   4.337   5.010  0.2052 -0.0851 -0.5657
 1404TIP3    H125627   5.089   4.318   5.046 -0.8948  0.2418 -2.8009
 1404TIP3    H225628   5.237   4.299   5.072 -1.5324 -0.1733  1.1874
 1405TIP3   OH225629   6.309   0.355   0.119 -0.0107  0.5155 -0.3631
 1405TIP3    H125630   6.334   0.373   0.028 -0.3809 -1.8839 -1.0058
 1405TIP3    H225631   6.248   0.425   0.141  1.2225  2.0074 -1.4183
 1406TIP3   OH225632   4.652   5.838  11.840 -0.0778  0.2806  0.1006
 1406TIP3    H125633   4.705   5.836  11.760  0.7370  2.9339  0.4657
 1406TIP3    H225634   4.568   5.873  11.812 -0.3390 -0.2858  0.1638
 1407TIP3   OH225635   4.030   2.796  14.339 -0.5498  0.1425  0.3100
 1407TIP3    H125636   4.101   2.802  14.275  0.3646  1.5929  1.3855
 1407TIP3    H225637   4.035   2.707  14.372  0.7250  0.1894  0.3008
 1408TIP3   OH225638   4.579   2.921  13.217 -0.2714  0.3438 -0.3152
 1408TIP3    H125639   4.614   3.009  13.229 -0.6737  0.1846  2.6142
 1408TIP3    H225640   4.652   2.863  13.240 -1.0166 -0.0114  1.2844
 1409TIP3   OH225641   1.184   6.602   0.144 -0.5251 -0.3242  0.2663
 1409TIP3    H125642   1.168   6.524   0.091 -0.7722  2.0775 -3.6758
 1409TIP3    H225643   1.254   6.577   0.204 -0.6044 -3.5292 -0.8108
 1410TIP3   OH225644   4.079   1.693  11.190 -0.1093 -0.2248 -0.2591
 1410TIP3    H125645   4.122   1.773  11.162  0.7547 -0.1072  1.2656
 1410TIP3    H225646   4.024   1.667  11.116  0.4145  1.1816 -1.1719
 1411TIP3   OH225647   6.421   2.633  10.349 -0.1891 -0.4256 -0.3173
 1411TIP3    H125648   6.353   2.689  10.311  0.3622  1.5109  1.4221
 1411TIP3    H225649   6.503   2.675  10.324  0.2375 -0.4882  0.9500
 1412TIP3   OH225650   2.294   6.259  13.681 -0.0476  0.2269  0.5113
 1412TIP3    H125651   2.294   6.338  13.736  0.3146 -0.5018  1.5942
 1412TIP3    H225652   2.384   6.227  13.684  0.0089  0.2415 -0.6391
 1413TIP3   OH225653   0.502   1.531   5.697 -0.0835  0.4404  0.1349
 1413TIP3    H125654   0.596   1.530   5.716  0.1969  2.0572 -0.9969
 1413TIP3    H225655   0.468   1.454   5.741  1.7417 -0.0508  0.7594
 1414TIP3   OH225656   1.410   1.249  12.660  0.0128  0.1191  0.0206
 1414TIP3    H125657   1.328   1.295  12.679  1.1355  1.4901  1.9040
 1414TIP3    H225658   1.436   1.283  12.574 -0.9093  0.3854 -0.1712
 1415TIP3   OH225659   4.125   2.007  12.138 -0.0851  0.4075 -0.3390
 1415TIP3    H125660   4.168   1.922  12.152 -0.8690  0.1792  0.8272
 1415TIP3    H225661   4.197   2.069  12.129  0.4958 -0.2487 -0.3219
 1416TIP3   OH225662   6.224   3.880  11.550 -0.0808 -0.5812 -0.2500
 1416TIP3    H125663   6.224   3.791  11.514 -0.8682 -0.4087 -0.7086
 1416TIP3    H225664   6.158   3.926  11.499  1.8808  0.9246 -1.6153
 1417TIP3   OH225665   4.525   1.223  16.112 -0.0730 -0.3889 -0.0758
 1417TIP3    H125666   4.548   1.196  16.201  2.5109  1.1868 -0.1894
 1417TIP3    H225667   4.430   1.237  16.116  0.0861  0.6233  2.7301
 1418TIP3   OH225668   2.351   3.682   4.947  0.2637  0.2656  0.2594
 1418TIP3    H125669   2.305   3.676   5.031  0.8706  1.2277  0.6768
 1418TIP3    H225670   2.345   3.774   4.923  0.9945  0.1885 -0.2477
 1419TIP3   OH225671   5.962   1.861   3.372  0.0447  0.0622 -0.0708
 1419TIP3    H125672   5.952   1.909   3.454  0.0471 -0.7839  0.4385
 1419TIP3    H225673   5.887   1.889   3.319 -0.0917  0.4342  0.3132
 1420TIP3   OH225674   2.504   4.712  13.945  0.2157 -0.3167  0.7908
 1420TIP3    H125675   2.494   4.749  13.858 -0.1134 -0.0997  0.9178
 1420TIP3    H225676   2.500   4.787  14.004  2.3491 -0.2253  0.8923
 1421TIP3   OH225677   5.501   2.800  14.963  0.4666  0.3635  0.1268
 1421TIP3    H125678   5.417   2.822  14.922  0.2958 -0.9696 -0.2743
 1421TIP3    H225679   5.515   2.708  14.941  0.6284 -0.2775  2.6338
 1422TIP3   OH225680   5.121   5.235  15.210  0.1122 -0.2891 -0.3533
 1422TIP3    H125681   5.110   5.145  15.240 -2.4668  0.2771  0.5861
 1422TIP3    H225682   5.050   5.249  15.148  1.2311  0.7556 -1.4721
 1423TIP3   OH225683   6.070   3.644   4.999  0.0334 -0.4134 -0.0534
 1423TIP3    H125684   6.143   3.705   5.005  0.4619 -0.5722 -2.5291
 1423TIP3    H225685   6.009   3.673   5.067  1.0723  1.5829  0.1051
 1424TIP3   OH225686   1.473   5.182   3.068 -0.0734  0.5599 -0.3756
 1424TIP3    H125687   1.517   5.236   3.002  1.0814  0.3226  0.1664
 1424TIP3    H225688   1.517   5.205   3.150 -1.5914  0.9663  0.3493
 1425TIP3   OH225689   4.313   4.924  15.005  0.2334  0.1053  0.2963
 1425TIP3    H125690   4.253   4.989  15.041  1.1712  1.2733 -0.1956
 1425TIP3    H225691   4.321   4.947  14.912 -1.5868 -2.4168 -0.6036
 1426TIP3   OH225692   3.706   6.708   4.849 -0.3540  0.0819 -0.6054
 1426TIP3    H125693   3.738   6.623   4.878 -0.7826  0.1346  0.0457
 1426TIP3    H225694   3.629   6.725   4.904 -1.2293  0.1734 -1.8162
 1427TIP3   OH225695   6.300   2.302  14.119  0.6039  0.5155  0.2853
 1427TIP3    H125696   6.256   2.337  14.042 -2.1676 -1.3471  0.8838
 1427TIP3    H225697   6.349   2.227  14.086  0.3268  0.3875  0.1617
 1428TIP3   OH225698   3.587   4.459  12.640 -0.2248  0.3055  0.8182
 1428TIP3    H125699   3.495   4.484  12.653 -0.2315  0.2296  0.9173
 1428TIP3    H225700   3.627   4.535  12.597 -0.3327  0.3402  0.7792
 1429TIP3   OH225701   6.425   2.741   1.741  0.2281 -0.2252  0.5412
 1429TIP3    H125702   6.439   2.810   1.806  0.3158 -1.2410  1.6264
 1429TIP3    H225703   6.514   2.719   1.711  0.1697  0.4221 -0.1277
 1430TIP3   OH225704   3.532   0.487  12.081  0.0350 -0.5028  0.5479
 1430TIP3    H125705   3.617   0.521  12.106  0.0523 -1.0588  1.3011
 1430TIP3    H225706   3.523   0.507  11.988  0.8049 -0.0735  0.5658
 1431TIP3   OH225707   1.192   5.875   5.178 -0.3973  0.3037  0.1298
 1431TIP3    H125708   1.244   5.799   5.201 -0.8738 -0.0265  0.1288
 1431TIP3    H225709   1.214   5.893   5.087 -1.8127 -1.0934 -0.5251
 1432TIP3   OH225710   2.794   2.801  15.984  0.1347  0.1680  0.0115
 1432TIP3    H125711   2.787   2.707  15.963 -0.1935  0.0868  0.4632
 1432TIP3    H225712   2.725   2.816  16.048  0.4109  0.6473  0.2014
 1433TIP3   OH225713   2.596   3.182   2.033 -0.2043 -0.3058  0.2368
 1433TIP3    H125714   2.681   3.199   2.073  1.1943 -2.0336 -1.8331
 1433TIP3    H225715   2.579   3.259   1.979 -1.3575  1.3100  2.7161
 1434TIP3   OH225716   5.598   5.040  16.653  0.2120  0.0297  0.2930
 1434TIP3    H125717   5.524   4.980  16.645  1.4278 -1.3272 -1.4971
 1434TIP3    H225718   5.619   5.039  16.747 -2.3369  0.9271  0.9652
 1435TIP3   OH225719   0.129   5.549   1.722 -0.3416 -0.7119  0.4905
 1435TIP3    H125720   0.192   5.503   1.778  1.6779 -0.7916 -1.6548
 1435TIP3    H225721   0.091   5.480   1.668 -1.1642 -0.4586  0.7325
 1436TIP3   OH225722   6.785   4.552  13.362  0.2473  0.1516 -0.4869
 1436TIP3    H125723   6.704   4.599  13.339  0.4828  0.8160 -0.0126
 1436TIP3    H225724   6.767   4.461  13.340 -0.8349  0.2014  0.1316
 1437TIP3   OH225725   0.764   6.749   5.585 -0.0868  0.0034 -0.6926
 1437TIP3    H125726   0.722   6.670   5.552  1.5241 -0.2219 -2.3504
 1437TIP3    H225727   0.802   6.722   5.668 -1.9771 -0.1347  0.1908
 1438TIP3   OH225728   4.274   2.583  17.111  0.3873  0.6150  0.1677
 1438TIP3    H125729   4.362   2.564  17.145 -0.0350  0.5795  1.2948
 1438TIP3    H225730   4.271   2.679  17.106  1.4431  0.6056 -2.5883
 1439TIP3   OH225731   2.434   2.661  16.505  0.5629 -0.3106 -0.2693
 1439TIP3    H125732   2.426   2.756  16.498 -0.4453 -0.1885  1.7587
 1439TIP3    H225733   2.344   2.628  16.499  0.7940 -1.0378  0.1008
 1440TIP3   OH225734   2.835   1.038  14.461  0.4682  0.5109 -0.1941
 1440TIP3    H125735   2.808   1.120  14.504  0.6765  1.0395 -1.0528
 1440TIP3    H225736   2.759   0.981  14.470  0.2035  0.9057  0.1372
 1441TIP3   OH225737   1.668   1.983   5.418  0.1674  0.3692 -0.0413
 1441TIP3    H125738   1.657   2.076   5.442  0.0991  1.1068 -2.6423
 1441TIP3    H225739   1.586   1.960   5.374  0.9087 -0.3265 -1.1214
 1442TIP3   OH225740   6.185   2.990   4.475  0.0590  0.0217  0.4857
 1442TIP3    H125741   6.229   3.075   4.469 -1.6221  1.1990  2.9615
 1442TIP3    H225742   6.158   2.971   4.385 -0.9236  2.9680  0.0398
 1443TIP3   OH225743   1.477   6.658  16.302  0.4391  0.1016  0.1922
 1443TIP3    H125744   1.506   6.576  16.342  0.8384 -0.3850 -1.0472
 1443TIP3    H225745   1.558   6.702  16.277  0.1991  0.4564  0.0295
 1444TIP3   OH225746   0.614   2.651   2.355 -0.3213 -0.3597 -0.2876
 1444TIP3    H125747   0.637   2.638   2.447 -2.1559 -0.3290  0.1977
 1444TIP3    H225748   0.626   2.565   2.315  2.5387  0.0472 -0.5687
 1445TIP3   OH225749   4.565   0.804  13.087 -0.1505  0.3769  0.1001
 1445TIP3    H125750   4.560   0.708  13.090 -1.9703  0.4565  1.0322
 1445TIP3    H225751   4.540   0.827  12.998  2.0446 -0.0429 -0.6797
 1446TIP3   OH225752   5.109   1.056  11.537 -0.1570 -0.5852 -0.2499
 1446TIP3    H125753   5.048   1.026  11.605 -1.1541 -0.1924 -0.9415
 1446TIP3    H225754   5.086   1.148  11.522  0.6083 -0.4309 -0.5248
 1447TIP3   OH225755   6.748   1.710  12.288 -0.4606 -0.4252  0.0249
 1447TIP3    H125756   6.732   1.640  12.223  0.0267 -1.1923  0.7151
 1447TIP3    H225757   6.831   1.749  12.261  0.0788 -1.1856  0.5610
 1448TIP3   OH225758   3.236   0.823  15.277  0.9356 -0.6568 -0.2185
 1448TIP3    H125759   3.284   0.777  15.346  1.2457 -0.7274 -0.4764
 1448TIP3    H225760   3.232   0.914  15.307  0.8969 -0.7266 -0.0139
 1449TIP3   OH225761   3.728   0.225  16.568 -0.1274  0.2176  0.2223
 1449TIP3    H125762   3.803   0.199  16.621 -0.5333  0.8638  1.1296
 1449TIP3    H225763   3.762   0.295  16.511 -0.0933  0.6984  0.8193
 1450TIP3   OH225764   4.089   4.125   3.360 -0.5937  0.0069 -0.9346
 1450TIP3    H125765   4.115   4.216   3.373  0.5262 -0.3110 -0.8786
 1450TIP3    H225766   4.117   4.080   3.440 -0.8136 -0.4552 -1.1135
 1451TIP3   OH225767   0.190   2.755   4.890  0.3658 -0.0618 -0.3964
 1451TIP3    H125768   0.253   2.716   4.951  0.1607  0.4635  0.1590
 1451TIP3    H225769   0.216   2.721   4.804  0.9555 -0.4319 -0.0780
 1452TIP3   OH225770   1.581   5.066  15.688 -0.0616  0.0274  0.5444
 1452TIP3    H125771   1.577   5.156  15.655 -0.6131 -0.3381 -0.4256
 1452TIP3    H225772   1.587   5.076  15.783 -0.0164  1.0884  0.4494
 1453TIP3   OH225773   2.467   6.336   4.542  0.3968 -0.1157 -0.1717
 1453TIP3    H125774   2.555   6.373   4.533  0.1831  0.2488 -0.8998
 1453TIP3    H225775   2.478   6.243   4.522  0.7534 -0.2411  0.5719
 1454TIP3   OH225776   3.958   5.884   5.390  0.5119 -0.2318  0.1580
 1454TIP3    H125777   4.034   5.833   5.418 -0.1005 -1.2474  0.0301
 1454TIP3    H225778   3.885   5.823   5.396 -0.2802  0.6917  0.1580
 1455TIP3   OH225779   4.360   3.495  14.239  0.0145 -0.9239  1.0975
 1455TIP3    H125780   4.324   3.471  14.324 -0.3557 -0.9088  0.9485
 1455TIP3    H225781   4.412   3.420  14.212 -0.8898 -1.4489  0.7709
 1456TIP3   OH225782   0.962   3.437   2.551  0.0130 -0.3823  0.0283
 1456TIP3    H125783   1.019   3.485   2.611  0.0558  1.0043 -1.0683
 1456TIP3    H225784   0.898   3.395   2.607 -0.2580  1.2936  1.0374
 1457TIP3   OH225785   4.646   4.126  10.567 -0.0957 -0.0818  0.1804
 1457TIP3    H125786   4.627   4.120  10.660 -1.2274 -1.2055 -0.0926
 1457TIP3    H225787   4.586   4.194  10.534 -0.8598 -0.8133  0.0166
 1458TIP3   OH225788   3.308   6.585  10.898 -0.4254 -0.0994  0.1193
 1458TIP3    H125789   3.300   6.660  10.839  1.6098 -0.7806 -1.1180
 1458TIP3    H225790   3.249   6.519  10.860 -0.2244 -0.0289 -0.3237
 1459TIP3   OH225791   0.978   3.980   1.035  0.2471 -0.1242 -0.3860
 1459TIP3    H125792   0.889   3.961   1.065 -0.3303  1.7596 -0.7304
 1459TIP3    H225793   0.968   4.010   0.945  1.1129  0.8945 -0.1708
 1460TIP3   OH225794   3.547   0.598  11.815 -0.4803  0.5360  0.4690
 1460TIP3    H125795   3.539   0.677  11.869  1.4305  1.0720  0.0462
 1460TIP3    H225796   3.562   0.630  11.726 -1.4378 -0.3301 -0.0215
 1461TIP3   OH225797   1.274   4.398  16.373 -0.5790 -0.3344 -0.0987
 1461TIP3    H125798   1.263   4.303  16.377  1.2187 -0.5592  3.1485
 1461TIP3    H225799   1.203   4.432  16.427 -1.0046  0.1496 -0.9604
 1462TIP3   OH225800   3.117   0.575  10.812  0.2806 -0.0136  0.1414
 1462TIP3    H125801   3.208   0.576  10.843 -0.4524 -1.3575  2.6360
 1462TIP3    H225802   3.120   0.527  10.729  2.3682  3.7079 -2.2108
 1463TIP3   OH225803   1.272   2.895   3.877 -0.0910  0.2640 -0.3514
 1463TIP3    H125804   1.196   2.930   3.832 -0.1004  3.7515  2.0000
 1463TIP3    H225805   1.242   2.811   3.912 -2.5506  1.0594 -0.3576
 1464TIP3   OH225806   2.553   4.247   5.618 -0.0363 -0.6348  0.3579
 1464TIP3    H125807   2.549   4.161   5.661 -3.5706 -0.8733 -0.1356
 1464TIP3    H225808   2.476   4.293   5.650  1.0184  1.8747 -0.4818
 1465TIP3   OH225809   6.753   4.204  12.720  0.6173 -0.1351 -0.2644
 1465TIP3    H125810   6.745   4.128  12.662  0.0431  0.0630 -0.4546
 1465TIP3    H225811   6.751   4.280  12.662 -1.3187  0.1307  0.0614
 1466TIP3   OH225812   5.556   3.504   2.672  0.0535  0.0415 -0.2136
 1466TIP3    H125813   5.583   3.567   2.606 -0.7917  1.5874  0.8731
 1466TIP3    H225814   5.626   3.506   2.738 -0.4399  0.5887  0.3033
 1467TIP3   OH225815   4.024   1.942  11.862 -0.2575  0.2507 -0.3430
 1467TIP3    H125816   3.979   2.021  11.831 -3.4700 -1.0844  0.4223
 1467TIP3    H225817   4.050   1.964  11.952 -0.5128  0.6684 -0.3665
 1468TIP3   OH225818   2.139   6.054  13.194  0.3656  0.4486  0.4620
 1468TIP3    H125819   2.140   6.142  13.157 -1.5356  0.4497  0.2899
 1468TIP3    H225820   2.121   6.067  13.287 -0.3995  0.2305  0.3482
 1469TIP3   OH225821   5.812   1.209   0.476  0.2999 -0.1426 -0.5541
 1469TIP3    H125822   5.833   1.215   0.569 -2.3218 -1.7063  0.2391
 1469TIP3    H225823   5.854   1.128   0.447  1.1342  0.3554 -0.7635
 1470TIP3   OH225824   2.402   0.875  15.134  0.0488 -0.0804 -0.7540
 1470TIP3    H125825   2.398   0.818  15.057 -0.4154  1.4328 -1.8910
 1470TIP3    H225826   2.314   0.910  15.142 -0.4649 -1.6619  1.6764
 1471TIP3   OH225827   4.718   6.347  13.248  0.1959 -0.5133  0.3314
 1471TIP3    H125828   4.663   6.299  13.187  0.7563 -2.6312  1.3891
 1471TIP3    H225829   4.803   6.354  13.204 -0.0649  0.0761 -0.0808
 1472TIP3   OH225830   5.892   3.019   1.735 -0.1322  0.4509 -0.4795
 1472TIP3    H125831   5.981   3.051   1.718 -0.4325  0.7245 -1.6572
 1472TIP3    H225832   5.847   3.028   1.650 -0.8659 -1.0240 -0.2703
 1473TIP3   OH225833   1.285   5.836   5.473  0.4523 -0.0151 -0.2191
 1473TIP3    H125834   1.194   5.809   5.461  0.2747  0.2571  0.4567
 1473TIP3    H225835   1.302   5.898   5.402  0.3570 -0.6716 -0.8131
 1474TIP3   OH225836   3.022   0.647   4.726  0.1915 -0.4840  0.2106
 1474TIP3    H125837   2.998   0.560   4.695 -1.7223  0.0571  0.0373
 1474TIP3    H225838   3.016   0.641   4.821 -0.5157 -0.4095  0.1775
 1475TIP3   OH225839   3.879   2.603  13.682  0.3135  0.3032 -0.3890
 1475TIP3    H125840   3.944   2.584  13.750 -0.5125  1.6619  0.8563
 1475TIP3    H225841   3.919   2.671  13.629 -0.1080  1.2893  0.5024
 1476TIP3   OH225842   3.372   1.329   2.413 -0.5617  0.5031  0.1685
 1476TIP3    H125843   3.277   1.322   2.416 -0.6522  1.5393 -0.0187
 1476TIP3    H225844   3.403   1.238   2.420 -1.5856  0.0309 -1.0067
 1477TIP3   OH225845   1.250   1.309   5.188  0.5420 -0.1727 -0.5557
 1477TIP3    H125846   1.326   1.266   5.227  0.1344 -1.2368 -0.9074
 1477TIP3    H225847   1.285   1.391   5.153  1.6558 -0.8953 -1.2089
 1478TIP3   OH225848   4.359   2.012   4.978 -0.4632  0.3486 -0.1576
 1478TIP3    H125849   4.325   2.102   4.975 -0.9378  0.1757 -0.0239
 1478TIP3    H225850   4.407   2.007   5.061 -3.4912 -0.5814  1.6826
 1479TIP3   OH225851   0.901   3.439   3.253  0.1851 -0.0062 -0.1803
 1479TIP3    H125852   0.903   3.384   3.331 -0.0034 -1.0480 -0.8831
 1479TIP3    H225853   0.924   3.380   3.182 -0.7812  0.6417 -1.0619
 1480TIP3   OH225854   3.625   0.143  17.074 -0.2572  0.1602 -0.0658
 1480TIP3    H125855   3.572   0.063  17.083 -3.3217  2.1294  0.9522
 1480TIP3    H225856   3.616   0.167  16.982  1.4964 -1.1083 -0.6145
 1481TIP3   OH225857   5.131   0.857   1.500 -0.2545 -0.6626 -0.4776
 1481TIP3    H125858   5.164   0.792   1.438 -0.6290 -1.4472  0.1343
 1481TIP3    H225859   5.062   0.903   1.452  0.6179 -0.0895 -1.2184
 1482TIP3   OH225860   5.873   0.677  14.131 -0.0258 -0.1250  0.1940
 1482TIP3    H125861   5.941   0.615  14.157 -0.6241 -0.1659  1.7575
 1482TIP3    H225862   5.920   0.759  14.115  0.5659 -0.5417 -0.2334
 1483TIP3   OH225863   1.899   2.695  16.296 -0.2224  0.4076  0.2020
 1483TIP3    H125864   1.959   2.725  16.228 -0.5614  1.1397  0.2141
 1483TIP3    H225865   1.894   2.769  16.357  0.2907 -0.3326  1.1744
 1484TIP3   OH225866   4.714   3.230   0.713 -0.1738  0.1448  0.6183
 1484TIP3    H125867   4.798   3.193   0.686  0.2139  0.1700  1.7679
 1484TIP3    H225868   4.676   3.163   0.770 -0.1956  0.8234  1.4084
 1485TIP3   OH225869   6.378   1.869   3.585  0.3998  0.4335  0.1315
 1485TIP3    H125870   6.441   1.924   3.632  0.6187  1.0054 -0.8223
 1485TIP3    H225871   6.429   1.791   3.560  0.3107  0.1764  0.7314
 1486TIP3   OH225872   4.707   3.959  14.088  0.0353  0.4128  0.1507
 1486TIP3    H125873   4.700   3.990  13.998  0.5045  3.4280  1.0595
 1486TIP3    H225874   4.617   3.955  14.120  0.0098  4.0495  0.9042
 1487TIP3   OH225875   6.750   0.889  16.967  0.3839  0.3866  0.4098
 1487TIP3    H125876   6.720   0.967  17.014  0.0042 -0.5528  1.8057
 1487TIP3    H225877   6.680   0.825  16.980 -0.6681  0.6187 -3.1107
 1488TIP3   OH225878   1.037   5.751   4.779 -0.4232  0.3617  0.0587
 1488TIP3    H125879   1.009   5.660   4.765 -1.3216  0.0211  3.2979
 1488TIP3    H225880   1.133   5.746   4.778 -0.4509 -0.4320 -0.6141
 1489TIP3   OH225881   3.668   1.415  14.953 -0.0576 -0.1528 -0.2371
 1489TIP3    H125882   3.763   1.403  14.962  0.0231 -2.0185 -2.6803
 1489TIP3    H225883   3.634   1.400  15.041  1.7811 -0.9140  0.4014
 1490TIP3   OH225884   2.942   1.176  12.949 -0.2174  0.3810 -0.2280
 1490TIP3    H125885   2.935   1.084  12.973 -0.2021  0.2963 -0.5335
 1490TIP3    H225886   2.853   1.210  12.955 -0.5419 -0.1056 -1.8370
 1491TIP3   OH225887   4.081   3.834  12.533  0.0143 -0.3625 -0.8315
 1491TIP3    H125888   4.073   3.865  12.623 -0.3120 -0.6561 -0.7539
 1491TIP3    H225889   4.004   3.777  12.521  1.5565 -2.6692 -0.3546
 1492TIP3   OH225890   3.438   3.871   3.105 -0.6021  0.4461 -0.2382
 1492TIP3    H125891   3.378   3.879   3.031  0.8063 -0.6359 -1.5292
 1492TIP3    H225892   3.498   3.945   3.095 -0.0177 -0.0645 -0.5639
 1493TIP3   OH225893   1.678   0.710   1.597 -0.6642 -0.6718 -0.3285
 1493TIP3    H125894   1.767   0.739   1.574 -1.3478  0.4395 -1.7183
 1493TIP3    H225895   1.633   0.703   1.513 -2.9150  2.1925  0.4952
 1494TIP3   OH225896   4.182   6.519  17.038 -0.2564 -0.6680 -0.1403
 1494TIP3    H125897   4.197   6.549  16.948 -2.2022  0.3803 -0.1683
 1494TIP3    H225898   4.087   6.516  17.047 -0.2778  2.5728  2.8932
 1495TIP3   OH225899   2.214   0.890   1.822  0.3850  0.2168  0.1737
 1495TIP3    H125900   2.202   0.941   1.742 -1.3257  0.7237  0.7095
 1495TIP3    H225901   2.289   0.832   1.803 -0.7533 -0.5875 -2.2543
 1496TIP3   OH225902   3.197   5.571  11.210 -0.4639 -0.0081  0.5741
 1496TIP3    H125903   3.187   5.641  11.145  1.0723  1.0525  1.4043
 1496TIP3    H225904   3.213   5.492  11.158  0.6313  0.7946 -0.3571
 1497TIP3   OH225905   0.096   0.396   3.491  0.4475 -0.0639  0.0949
 1497TIP3    H125906   0.054   0.455   3.428  1.0007 -0.2604 -0.4672
 1497TIP3    H225907   0.024   0.344   3.526 -0.2783  1.8082  1.5963
 1498TIP3   OH225908   5.700   2.571  15.820 -0.4947  0.2387 -0.2865
 1498TIP3    H125909   5.643   2.504  15.783 -0.1686 -0.5396  0.5692
 1498TIP3    H225910   5.784   2.557  15.777 -0.5278  0.3381 -0.3817
 1499TIP3   OH225911   0.805   5.786   5.661  0.1290 -0.1336  0.2177
 1499TIP3    H125912   0.758   5.811   5.581  1.4575  0.9587 -0.2530
 1499TIP3    H225913   0.751   5.821   5.732  0.5643  1.7395 -0.3381
 1500TIP3   OH225914   0.130   5.063  16.914 -0.2610 -0.3546 -0.6028
 1500TIP3    H125915   0.152   5.029  16.827  3.9891  2.4527 -0.9269
 1500TIP3    H225916   0.214   5.068  16.959 -1.8725  1.4224  2.4682
 1501TIP3   OH225917   3.209   0.497  13.330 -0.1432 -0.4587  0.3935
 1501TIP3    H125918   3.227   0.591  13.324 -3.2969  0.1831 -0.7182
 1501TIP3    H225919   3.287   0.455  13.292  0.8896  1.7270 -0.0411
 1502TIP3   OH225920   0.298   1.150   3.150 -0.4651 -0.3333 -0.2960
 1502TIP3    H125921   0.349   1.111   3.079 -0.0120 -1.5662  0.6749
 1502TIP3    H225922   0.363   1.189   3.208 -0.6256 -1.5831  0.7551
 1503TIP3   OH225923   0.161   3.210  11.139  0.2123 -0.3002 -0.1655
 1503TIP3    H125924   0.069   3.186  11.149  0.0252  0.4770  0.0126
 1503TIP3    H225925   0.167   3.249  11.052  0.0500  1.0811  0.4257
 1504TIP3   OH225926   2.875   4.277   2.910 -0.9360  0.2181 -0.2225
 1504TIP3    H125927   2.940   4.346   2.898  1.4975 -1.9117 -0.1157
 1504TIP3    H225928   2.851   4.282   3.002  0.6408 -0.2017  0.2386
 1505TIP3   OH225929   6.308   5.083   2.752 -0.2340 -0.0302  0.4414
 1505TIP3    H125930   6.252   5.149   2.794 -0.1523 -0.7173  1.6780
 1505TIP3    H225931   6.301   5.006   2.809  3.2678  0.3562  1.6038
 1506TIP3   OH225932   1.693   1.254   2.732  0.4604 -0.1871  0.4464
 1506TIP3    H125933   1.730   1.171   2.764 -0.8381 -0.9151  0.1320
 1506TIP3    H225934   1.697   1.312   2.808  2.1541 -0.2492  0.4399
 1507TIP3   OH225935   3.543   2.633  15.399  0.0045  0.6545  0.0858
 1507TIP3    H125936   3.629   2.594  15.415 -0.1177  0.4404  0.2156
 1507TIP3    H225937   3.547   2.717  15.444 -0.1042  0.3409  0.6858
 1508TIP3   OH225938   4.873   5.588  13.249 -0.2126  0.3711  0.1364
 1508TIP3    H125939   4.914   5.549  13.172  2.1509  0.2982  1.3064
 1508TIP3    H225940   4.814   5.520  13.281  0.8809 -0.7340 -0.0887
 1509TIP3   OH225941   6.550   6.517  14.680 -0.1223 -0.0837  0.6959
 1509TIP3    H125942   6.480   6.458  14.651  0.7899 -1.5575  1.3873
 1509TIP3    H225943   6.611   6.461  14.727  1.2129  1.2816  0.6734
 1510TIP3   OH225944   3.963   1.154  13.613  0.0255  0.0252 -0.0657
 1510TIP3    H125945   3.959   1.166  13.518 -1.5745 -0.8088 -0.1447
 1510TIP3    H225946   4.025   1.221  13.643 -1.2392  1.9256 -1.4491
 1511TIP3   OH225947   5.140   0.901  12.466  0.6511  0.4539 -0.3645
 1511TIP3    H125948   5.176   0.812  12.469 -1.3013 -0.3919 -0.6251
 1511TIP3    H225949   5.175   0.938  12.385  1.4574 -0.0714 -0.2686
 1512TIP3   OH225950   1.008   3.821   2.638 -0.4169 -0.1436 -0.0928
 1512TIP3    H125951   1.037   3.732   2.621 -0.4939 -0.2520  0.3237
 1512TIP3    H225952   1.077   3.877   2.600 -1.3318 -0.3197 -2.1591
 1513TIP3   OH225953   2.072   1.318  14.285 -0.9109 -0.0786  0.0547
 1513TIP3    H125954   2.044   1.255  14.219 -1.9470 -0.8377  1.1749
 1513TIP3    H225955   1.996   1.375  14.297 -0.7709 -0.0130  0.6521
 1514TIP3   OH225956   5.969   3.071  15.090 -0.3296 -0.1119 -0.6959
 1514TIP3    H125957   5.956   3.076  15.185 -2.1341 -1.1782 -0.8388
 1514TIP3    H225958   5.904   3.008  15.060  0.5925 -0.2450 -2.5928
 1515TIP3   OH225959   5.597   0.213  13.935  0.0020 -0.6327 -0.1283
 1515TIP3    H125960   5.506   0.241  13.944  0.2641  0.6783 -1.2985
 1515TIP3    H225961   5.634   0.220  14.023 -0.7400 -0.1406  0.1483
 1516TIP3   OH225962   4.567   6.505   2.162 -0.1198  0.1778 -0.1847
 1516TIP3    H125963   4.626   6.471   2.094 -0.1142 -0.0417 -0.0714
 1516TIP3    H225964   4.589   6.455   2.240 -1.8728 -1.4436 -0.6255
 1517TIP3   OH225965   1.670   4.658  16.438 -0.1509  0.4781  0.3830
 1517TIP3    H125966   1.737   4.627  16.498  0.6770 -0.6712 -1.0531
 1517TIP3    H225967   1.590   4.662  16.490  0.3516 -1.2874  1.3764
 1518TIP3   OH225968   4.112   6.321   1.252  0.0404 -0.3804 -0.3629
 1518TIP3    H125969   4.061   6.361   1.322  0.5171 -1.5477  0.6859
 1518TIP3    H225970   4.062   6.340   1.172 -1.2265 -0.1766  0.4486
 1519TIP3   OH225971   5.571   4.635   5.741  0.0683 -0.4494  0.0553
 1519TIP3    H125972   5.574   4.615   5.835 -1.4227 -0.6907  0.0728
 1519TIP3    H225973   5.566   4.549   5.699  1.4289 -0.3704 -0.3015
 1520TIP3   OH225974   1.853   0.506  14.778  0.2465  0.8250 -0.5672
 1520TIP3    H125975   1.828   0.424  14.736  2.5500 -0.0199 -0.4184
 1520TIP3    H225976   1.941   0.523  14.746  0.4043  2.4562  0.6149
 1521TIP3   OH225977   3.576   2.594  15.825 -0.2115  0.0285  0.5360
 1521TIP3    H125978   3.500   2.598  15.884  0.0813 -0.4727  0.9513
 1521TIP3    H225979   3.558   2.518  15.769  0.1814 -0.3426  0.9114
 1522TIP3   OH225980   6.037   0.484  11.505 -0.6883 -0.3478 -0.2328
 1522TIP3    H125981   6.023   0.491  11.411  0.4456  3.5617 -0.2492
 1522TIP3    H225982   5.952   0.508  11.543 -0.9166 -1.1417 -0.2200
 1523TIP3   OH225983   2.682   5.239  16.760  0.7692  0.1232 -0.0145
 1523TIP3    H125984   2.646   5.221  16.847  0.7533  0.9453  0.1562
 1523TIP3    H225985   2.763   5.188  16.757  0.8355  0.1898  0.5355
 1524TIP3   OH225986   1.038   5.166   4.735  0.3227  0.0784  0.1294
 1524TIP3    H125987   1.131   5.154   4.712  0.0032 -2.0847 -0.2249
 1524TIP3    H225988   0.992   5.160   4.651 -0.1410  1.7124  0.2285
 1525TIP3   OH225989   5.585   2.885  13.369 -0.1598 -0.0532 -0.4644
 1525TIP3    H125990   5.629   2.900  13.285  0.1871  1.7558 -0.0090
 1525TIP3    H225991   5.507   2.940  13.365 -1.2367 -1.5385 -0.3899
 1526TIP3   OH225992   0.016   2.697   3.789 -0.0969 -0.3082 -0.2568
 1526TIP3    H125993   0.054   2.772   3.743 -2.1886  0.2669 -1.1490
 1526TIP3    H225994  -0.035   2.652   3.723  0.3545 -2.0149  0.5058
 1527TIP3   OH225995   2.964   6.170  11.809 -0.6004 -0.4811 -0.9779
 1527TIP3    H125996   2.891   6.148  11.867 -1.2592 -0.9349 -1.9373
 1527TIP3    H225997   3.027   6.215  11.865 -1.0307 -1.2532  0.1711
 1528TIP3   OH225998   1.091   0.398  12.092  0.4584  0.4835  0.2105
 1528TIP3    H125999   1.005   0.414  12.131 -0.1419  0.1174 -0.9165
 1528TIP3    H226000   1.073   0.340  12.018  1.9332 -1.2368  1.1321
 1529TIP3   OH226001   6.444   2.746   0.832  0.4725 -0.7449  0.3969
 1529TIP3    H126002   6.526   2.768   0.788  0.3610  1.3552  1.1065
 1529TIP3    H226003   6.416   2.829   0.872 -2.2872 -1.2408 -0.3069
 1530TIP3   OH226004   3.335   0.372  16.172 -0.3080 -0.6575  0.1457
 1530TIP3    H126005   3.373   0.441  16.227 -1.2003 -0.1972  0.1915
 1530TIP3    H226006   3.409   0.339  16.121 -0.1244  1.3805 -1.0000
 1531TIP3   OH226007   4.466   4.493   1.010  0.0675 -0.3876 -0.3354
 1531TIP3    H126008   4.434   4.545   1.084  0.8823  0.6329 -0.6776
 1531TIP3    H226009   4.535   4.438   1.047  0.1113 -0.2633 -0.2347
 1532TIP3   OH226010   5.369   5.422   0.110 -0.4240  0.0707 -0.0612
 1532TIP3    H126011   5.304   5.407   0.179  0.2320 -0.1301  0.5206
 1532TIP3    H226012   5.350   5.355   0.045  0.1591 -0.9857  0.8200
 1533TIP3   OH226013   5.751   3.587   0.267 -0.3936 -0.3471  0.0945
 1533TIP3    H126014   5.828   3.536   0.242  0.1126  0.1542  0.5803
 1533TIP3    H226015   5.683   3.522   0.281 -0.2049 -0.7619 -0.8283
 1534TIP3   OH226016   2.196   6.470   2.632 -0.0110 -0.1856  0.7878
 1534TIP3    H126017   2.250   6.505   2.561  0.1167 -1.7852  0.0618
 1534TIP3    H226018   2.147   6.546   2.664  1.7798  1.0860  0.7031
 1535TIP3   OH226019   0.567   2.173   3.226 -0.1794  0.0096  0.0768
 1535TIP3    H126020   0.530   2.136   3.146 -2.3012  0.2138  0.9040
 1535TIP3    H226021   0.656   2.198   3.202 -1.1432  1.2326 -2.5783
 1536TIP3   OH226022   2.621   2.440   3.159  0.2496 -0.1363 -0.0689
 1536TIP3    H126023   2.534   2.407   3.137  0.1197  0.5051 -0.5720
 1536TIP3    H226024   2.626   2.524   3.113  0.6717  0.4035  0.9396
 1537TIP3   OH226025   5.510   0.959   3.140 -0.7466 -0.3733  0.2047
 1537TIP3    H126026   5.431   0.926   3.098  0.2209 -0.5242 -1.6462
 1537TIP3    H226027   5.564   0.881   3.156  1.2613 -0.0191 -3.5742
 1538TIP3   OH226028   4.601   0.737  16.402 -0.7654  0.4413 -0.1596
 1538TIP3    H126029   4.638   0.736  16.490 -0.3158  2.1275 -0.3102
 1538TIP3    H226030   4.522   0.790  16.409 -1.3946 -0.4081 -0.5439
 1539TIP3   OH226031   1.789   5.955   3.072 -0.2462 -0.1264  0.1875
 1539TIP3    H126032   1.869   5.973   3.122 -0.1242  1.7122 -0.6050
 1539TIP3    H226033   1.725   5.928   3.138 -0.0069  1.9722  1.3635
 1540TIP3   OH226034   5.750   6.583   5.291  0.4924  0.1517 -0.3600
 1540TIP3    H126035   5.656   6.595   5.299  0.5815  0.4011  0.4314
 1540TIP3    H226036   5.763   6.544   5.204 -0.4989 -1.6149  0.2349
 1541TIP3   OH226037   1.799   2.613  10.622  0.4761  0.3243 -0.8874
 1541TIP3    H126038   1.747   2.691  10.640 -1.6761 -1.5197  1.9702
 1541TIP3    H226039   1.779   2.590  10.532 -2.0935  0.8962 -0.5286
 1542TIP3   OH226040   6.023   1.565   4.409  0.0918  0.0596  0.3722
 1542TIP3    H126041   5.999   1.647   4.366 -1.0871 -0.9052 -0.9068
 1542TIP3    H226042   6.117   1.557   4.393 -0.0367  0.5010 -0.6748
 1543TIP3   OH226043   1.923   3.595  14.478 -0.2552  0.0606 -0.5617
 1543TIP3    H126044   1.989   3.641  14.426 -0.7173 -1.1731 -2.3605
 1543TIP3    H226045   1.964   3.512  14.501 -1.0015 -0.5332 -1.3226
 1544TIP3   OH226046   3.717   3.693  13.078 -0.0248 -0.2136 -0.3277
 1544TIP3    H126047   3.712   3.730  12.990  1.3785 -0.0575 -0.3627
 1544TIP3    H226048   3.742   3.601  13.063 -1.8630 -0.7905 -0.1625
 1545TIP3   OH226049   6.504   3.397   0.268  0.5951 -0.1953  0.1664
 1545TIP3    H126050   6.443   3.463   0.236 -1.0883 -2.1159 -0.8522
 1545TIP3    H226051   6.451   3.340   0.324  1.3743 -1.9655 -0.8042
 1546TIP3   OH226052   0.073   0.541  12.259  0.8364 -0.0780  0.5690
 1546TIP3    H126053   0.034   0.463  12.219  0.3189 -1.0770  2.8945
 1546TIP3    H226054   0.048   0.613  12.200 -1.6804 -1.1658  0.1907
 1547TIP3   OH226055   5.294   3.176   5.846 -0.2749  0.0678 -0.1284
 1547TIP3    H126056   5.298   3.242   5.915 -1.1822 -0.8502  0.8499
 1547TIP3    H226057   5.386   3.151   5.831 -0.0222  0.7178  0.3016
 1548TIP3   OH226058   0.866   2.917   1.346  0.0973 -0.0488  0.0436
 1548TIP3    H126059   0.782   2.886   1.380 -0.1973  0.7110  0.0174
 1548TIP3    H226060   0.847   3.003   1.309  1.1556  0.7775  1.3097
 1549TIP3   OH226061   5.210   1.030  14.857  0.0442 -0.6465 -0.1295
 1549TIP3    H126062   5.184   1.119  14.834  0.0286 -0.5230  0.3599
 1549TIP3    H226063   5.297   1.019  14.818  0.4964 -0.0516  0.6910
 1550TIP3   OH226064   2.506   6.062   3.699  0.1572 -0.1309  0.6170
 1550TIP3    H126065   2.463   6.069   3.614 -0.2166 -2.3056  0.5723
 1550TIP3    H226066   2.599   6.056   3.679  0.0604 -0.7488  0.3406
 1551TIP3   OH226067   4.416   4.389  13.871  0.3604 -0.3827  0.2521
 1551TIP3    H126068   4.445   4.441  13.945  0.8262 -0.4928  0.1452
 1551TIP3    H226069   4.339   4.342  13.905 -0.8954  1.3599 -0.0390
 1552TIP3   OH226070   4.252   5.333   2.794 -0.4411 -0.2349  0.0093
 1552TIP3    H126071   4.274   5.397   2.862 -1.4315  0.5562 -0.3872
 1552TIP3    H226072   4.333   5.323   2.743 -0.4806  1.3755 -0.4432
 1553TIP3   OH226073   0.570   2.335   2.942 -0.8635  0.4793 -0.1835
 1553TIP3    H126074   0.653   2.378   2.961 -0.9184  0.5862 -0.1850
 1553TIP3    H226075   0.514   2.405   2.909 -0.7782  0.3066 -0.7115
 1554TIP3   OH226076   4.900   2.448   5.838  0.3207  0.6233 -0.0694
 1554TIP3    H126077   4.919   2.396   5.916 -0.5006  0.4526  0.0219
 1554TIP3    H226078   4.869   2.532   5.873  1.0377  0.9556 -0.2169
 1555TIP3   OH226079   6.744   1.351  14.635  0.8879 -0.4393 -0.1081
 1555TIP3    H126080   6.652   1.344  14.611  0.9635  0.5220 -0.7261
 1555TIP3    H226081   6.782   1.267  14.609  0.5031 -0.2543 -1.3673
 1556TIP3   OH226082   3.822   1.754   0.704 -0.3090  0.7499 -0.5563
 1556TIP3    H126083   3.832   1.742   0.609 -1.4544 -1.4032 -0.4698
 1556TIP3    H226084   3.818   1.849   0.715 -0.6244  1.0595 -2.7381
 1557TIP3   OH226085   4.699   4.643   6.280 -0.1858  0.2076 -0.1469
 1557TIP3    H126086   4.711   4.619   6.371 -3.4418  1.5357  0.7965
 1557TIP3    H226087   4.632   4.582   6.248  1.6948 -0.9784 -2.0709
 1558TIP3   OH226088   6.741   3.368   5.669  0.4881  0.1097 -1.0067
 1558TIP3    H126089   6.808   3.308   5.702  1.0940  2.2052  1.9050
 1558TIP3    H226090   6.672   3.310   5.636  1.1058 -2.2544  1.4926
 1559TIP3   OH226091   5.031   6.619  15.719  0.4975  0.1182  0.2457
 1559TIP3    H126092   5.022   6.600  15.626  0.5183 -0.8737  0.4343
 1559TIP3    H226093   5.004   6.710  15.727 -0.1969  0.0125 -0.6306
 1560TIP3   OH226094   4.875   1.502  16.658 -0.1123  0.0175 -0.7172
 1560TIP3    H126095   4.966   1.479  16.678 -0.4566 -0.3297  0.5564
 1560TIP3    H226096   4.879   1.594  16.631  0.3889  0.7745  1.6160
 1561TIP3   OH226097   5.413   5.453  13.427 -0.0573 -0.3537  0.1576
 1561TIP3    H126098   5.379   5.370  13.392  1.3471 -1.5076  1.3912
 1561TIP3    H226099   5.448   5.499  13.351  0.3344 -1.5014 -0.3766
 1562TIP3   OH226100   1.391   6.174   3.388 -0.4587 -0.5305 -0.0830
 1562TIP3    H126101   1.346   6.254   3.358 -2.5883 -1.1530  1.2156
 1562TIP3    H226102   1.409   6.126   3.308  0.3639  0.9597 -0.8515
 1563TIP3   OH226103   0.251   4.958   6.355  0.8280  0.5973  0.3056
 1563TIP3    H126104   0.321   4.996   6.303  0.5702 -0.4969 -0.8612
 1563TIP3    H226105   0.293   4.932   6.437  1.7118  0.2720 -0.2406
 1564TIP3   OH226106   4.301   0.024  12.151  0.3655 -0.5834 -0.5313
 1564TIP3    H126107   4.329   0.098  12.206  0.1673 -0.4641 -0.5882
 1564TIP3    H226108   4.301  -0.051  12.209  0.3352 -0.4909 -0.4124
 1565TIP3   OH226109   5.089   4.207   6.569 -0.2023 -0.3362  0.7694
 1565TIP3    H126110   5.174   4.204   6.614  0.2022  2.1374  0.3107
 1565TIP3    H226111   5.088   4.129   6.513  2.8734  0.8032 -1.0853
 1566TIP3   OH226112   4.182   2.714  16.166 -0.1944  0.2099  0.1151
 1566TIP3    H126113   4.090   2.737  16.154 -0.0569  1.2988  1.0390
 1566TIP3    H226114   4.188   2.623  16.135 -1.5860  0.0941  0.1290
 1567TIP3   OH226115   2.412   4.027  11.869 -0.2810 -0.5695  0.0384
 1567TIP3    H126116   2.440   4.097  11.810 -0.0520 -1.3567 -0.7958
 1567TIP3    H226117   2.329   3.997  11.833  1.5977 -3.6346 -2.2174
 1568TIP3   OH226118   1.032   0.604   3.947 -0.1048 -0.1051 -0.5775
 1568TIP3    H126119   1.080   0.628   4.026 -3.9171  1.2076  1.6200
 1568TIP3    H226120   0.985   0.525   3.970  0.9088 -1.4173 -2.6692
 1569TIP3   OH226121   1.931   4.823   4.020  0.4438  0.5463  0.4607
 1569TIP3    H126122   2.024   4.804   4.010  0.1912 -0.0064 -1.1511
 1569TIP3    H226123   1.908   4.875   3.943 -0.6754  0.2827  0.5888
 1570TIP3   OH226124   3.104   0.967  12.758  0.1952  0.0832 -0.4640
 1570TIP3    H126125   3.166   0.928  12.696  1.2250 -0.5138  0.8907
 1570TIP3    H226126   3.160   1.011  12.823 -0.7638 -0.8806  1.0670
 1571TIP3   OH226127   6.691   3.059  13.009 -0.6718  0.4360 -0.0013
 1571TIP3    H126128   6.663   2.983  13.060 -1.3696 -0.4938 -1.6967
 1571TIP3    H226129   6.612   3.112  12.999 -0.1461  1.5431  1.3422
 1572TIP3   OH226130   2.275   3.577  10.712 -0.7819 -0.6171 -0.2833
 1572TIP3    H126131   2.327   3.657  10.706  1.8857 -2.1588  0.6639
 1572TIP3    H226132   2.251   3.558  10.621  0.2009  0.2457 -0.7494
 1573TIP3   OH226133   1.642   2.512   5.763  0.0649  0.0420 -0.0766
 1573TIP3    H126134   1.601   2.566   5.695  0.4534  1.6819  0.9248
 1573TIP3    H226135   1.578   2.511   5.834 -0.7107 -2.3750 -0.7209
 1574TIP3   OH226136   0.505   3.905  16.253  0.4193  0.4033  0.0728
 1574TIP3    H126137   0.450   3.974  16.217 -0.8570  0.0094  1.1801
 1574TIP3    H226138   0.484   3.828  16.201 -0.8304  0.0240  1.1004
 1575TIP3   OH226139   5.280   2.680  11.839 -0.0932  0.3586  0.2426
 1575TIP3    H126140   5.347   2.623  11.801 -0.9032  0.5108 -1.5212
 1575TIP3    H226141   5.270   2.751  11.776 -1.6880  0.5014  0.6005
 1576TIP3   OH226142   2.475   6.079   0.845  0.1036  0.0410 -0.0699
 1576TIP3    H126143   2.440   6.128   0.920  1.9079 -1.4340  1.8786
 1576TIP3    H226144   2.554   6.037   0.879  1.7876  0.3559 -3.2234
 1577TIP3   OH226145   4.186   1.034   4.686 -0.3055 -0.3432  0.1118
 1577TIP3    H126146   4.239   0.957   4.668 -0.1796 -0.4327  0.8417
 1577TIP3    H226147   4.097   1.009   4.660  0.2442  0.4503 -2.9550
 1578TIP3   OH226148   1.517   3.531  13.407 -0.0239  0.5831 -0.4543
 1578TIP3    H126149   1.577   3.557  13.338  0.4775 -0.7214 -0.5366
 1578TIP3    H226150   1.567   3.469  13.460 -1.3033 -0.5590 -0.5422
 1579TIP3   OH226151   4.710   1.598  15.349  0.1510  0.4658 -0.0736
 1579TIP3    H126152   4.652   1.625  15.420  0.7075  0.4708  0.3882
 1579TIP3    H226153   4.796   1.631  15.375  0.4325  0.1222 -0.5608
 1580TIP3   OH226154   4.050   5.642  11.775  0.2780  0.5824 -0.0088
 1580TIP3    H126155   4.003   5.716  11.814  0.1170 -0.4220  1.7785
 1580TIP3    H226156   4.019   5.640  11.684 -3.6912 -0.3858  1.1832
 1581TIP3   OH226157   3.027   0.965   4.264  0.9627  0.0432 -0.0631
 1581TIP3    H126158   2.953   0.949   4.323  1.1084  0.3144  0.1934
 1581TIP3    H226159   3.103   0.933   4.313  0.8057 -2.2028 -1.1307
 1582TIP3   OH226160   4.757   2.330   1.001  0.1673  0.0112  0.2515
 1582TIP3    H126161   4.833   2.385   0.982 -0.5442  0.5761 -1.0911
 1582TIP3    H226162   4.734   2.351   1.091  0.4495  1.2585  0.0452
 1583TIP3   OH226163   2.580   3.089  16.299  0.2945 -0.0341 -0.0629
 1583TIP3    H126164   2.499   3.139  16.284  0.5698 -0.2537 -2.8707
 1583TIP3    H226165   2.643   3.128  16.238  1.7095 -1.1785  0.6279
 1584TIP3   OH226166   1.971   1.645  15.389  0.1198 -0.1639  0.6548
 1584TIP3    H126167   1.941   1.625  15.300  1.3834 -0.0519  0.1890
 1584TIP3    H226168   1.891   1.648  15.441 -0.6891  0.1877 -0.5653
 1585TIP3   OH226169   6.423   0.001  13.682  0.5321  0.3252 -0.2851
 1585TIP3    H126170   6.439   0.039  13.596 -1.9112  0.8665 -0.5741
 1585TIP3    H226171   6.328   0.005  13.693  0.5974 -1.4831  1.6473
 1586TIP3   OH226172   5.213   1.109   2.199 -0.1664 -0.5339 -0.0700
 1586TIP3    H126173   5.120   1.128   2.216 -0.1472 -0.5888  0.0919
 1586TIP3    H226174   5.217   1.013   2.198 -0.1159 -0.5310 -0.1051
 1587TIP3   OH226175   2.510   6.500   4.179 -0.4899  0.3849  0.0717
 1587TIP3    H126176   2.558   6.529   4.256  0.3325  0.6570 -0.5351
 1587TIP3    H226177   2.494   6.407   4.195 -0.7797  0.5541  0.8003
 1588TIP3   OH226178   1.054   2.989   4.099  0.5892  0.9779  0.3305
 1588TIP3    H126179   1.050   2.920   4.166 -2.2263 -0.4398 -1.1376
 1588TIP3    H226180   1.126   3.045   4.128  1.1348 -0.9381  3.1732
 1589TIP3   OH226181   2.603   2.606  14.386  0.7539 -0.0924  0.1209
 1589TIP3    H126182   2.557   2.650  14.314  0.7991 -0.0739  0.1038
 1589TIP3    H226183   2.676   2.663  14.407 -0.1540  0.7084  1.2506
 1590TIP3   OH226184   6.303   3.393  11.206  0.2233  0.5646 -0.2750
 1590TIP3    H126185   6.331   3.309  11.241  0.9739 -0.0601 -2.2486
 1590TIP3    H226186   6.291   3.378  11.113 -0.9994  2.3147 -0.4546
 1591TIP3   OH226187   2.094   4.735  15.821  0.1720  0.4960  0.1113
 1591TIP3    H126188   2.186   4.709  15.826 -0.2454 -1.3276 -0.8604
 1591TIP3    H226189   2.095   4.830  15.830  2.1887  0.5524 -0.4187
 1592TIP3   OH226190   4.963   2.446   3.935 -0.6009 -0.4506 -0.2064
 1592TIP3    H126191   5.008   2.373   3.893  0.2193  1.0035 -1.9760
 1592TIP3    H226192   4.998   2.524   3.893 -2.2802  0.9367  0.8098
 1593TIP3   OH226193   3.764   1.536   6.073 -0.2720  0.2516 -0.3625
 1593TIP3    H126194   3.702   1.551   6.144 -2.3103  1.6617 -2.3226
 1593TIP3    H226195   3.721   1.471   6.017 -0.2188  1.5144 -1.9431
 1594TIP3   OH226196   4.532   4.785  10.825  0.4993 -0.1451  0.2857
 1594TIP3    H126197   4.542   4.698  10.786  0.9203  0.0847 -0.1284
 1594TIP3    H226198   4.580   4.843  10.767 -1.3880  0.6863 -0.5244
 1595TIP3   OH226199   5.287   0.657  13.875  0.1974 -0.4206  0.0593
 1595TIP3    H126200   5.249   0.735  13.835  0.3520 -0.2210  0.2943
 1595TIP3    H226201   5.319   0.605  13.802 -0.3048 -0.4730 -0.1250
 1596TIP3   OH226202   2.729   2.091   3.435 -0.3334 -0.2157  0.3276
 1596TIP3    H126203   2.794   2.162   3.437  0.2047 -0.7085  2.5483
 1596TIP3    H226204   2.650   2.131   3.473 -0.5563 -0.3409 -0.0015
 1597TIP3   OH226205   1.277   4.492   4.321  0.3653 -0.2611 -0.3060
 1597TIP3    H126206   1.230   4.567   4.358 -1.3225 -1.3765 -0.0686
 1597TIP3    H226207   1.291   4.433   4.396 -1.1815 -1.5813 -1.0011
 1598TIP3   OH226208   4.996   4.146  11.833  0.2539 -0.2270 -0.2997
 1598TIP3    H126209   4.937   4.143  11.758 -1.0786 -1.0310  0.7355
 1598TIP3    H226210   5.078   4.108  11.801 -0.4244 -0.9556 -1.2270
 1599TIP3   OH226211   6.139   1.570   0.420  0.2397  0.3515  0.2912
 1599TIP3    H126212   6.064   1.520   0.387 -0.9596  2.3948 -0.2309
 1599TIP3    H226213   6.102   1.629   0.485  0.7965  3.3189 -1.8829
 1600TIP3   OH226214   5.795   0.298   5.865  0.3224  0.6105  0.4228
 1600TIP3    H126215   5.885   0.267   5.879  0.3454  0.4028 -0.1631
 1600TIP3    H226216   5.756   0.298   5.952  0.7301  0.1973  0.6083
 1601TIP3   OH226217   4.528   0.005  15.983 -0.6262  0.5665  0.1084
 1601TIP3    H126218   4.446  -0.040  16.005  0.6008 -1.0854  1.5850
 1601TIP3    H226219   4.547  -0.022  15.893 -0.8508 -0.4212  0.3455
 1602TIP3   OH226220   6.507   6.345   2.029 -0.0654 -0.0792 -0.5838
 1602TIP3    H126221   6.472   6.327   2.116  2.6151  2.0582  1.0830
 1602TIP3    H226222   6.581   6.285   2.020  0.6404  0.7932 -0.6991
 1603TIP3   OH226223   4.235   6.240  12.593 -0.6198 -0.3325  0.0498
 1603TIP3    H126224   4.265   6.200  12.512 -1.7938  1.0855 -1.1421
 1603TIP3    H226225   4.189   6.170  12.639  2.2971 -1.9207  0.8560
 1604TIP3   OH226226   5.168   5.955  13.673  0.3555 -0.0514  0.0186
 1604TIP3    H126227   5.224   5.939  13.598 -1.8468 -1.4920 -1.4584
 1604TIP3    H226228   5.140   5.867  13.701 -1.5686  0.5970  0.3099
 1605TIP3   OH226229   1.820   3.115  13.244 -0.1024  0.2743 -0.6256
 1605TIP3    H126230   1.876   3.161  13.307 -0.2437 -0.4661  0.0641
 1605TIP3    H226231   1.790   3.183  13.184 -0.3437  1.1040  0.3897
 1606TIP3   OH226232   2.874   4.475   5.210 -0.2569 -0.5567 -0.2068
 1606TIP3    H126233   2.846   4.553   5.258  0.0010 -0.6939  0.1688
 1606TIP3    H226234   2.949   4.442   5.259 -0.5473 -1.2162 -0.1960
 1607TIP3   OH226235   1.410   1.308  15.445  0.2317  0.0387 -0.1670
 1607TIP3    H126236   1.371   1.280  15.362 -1.2186  1.7623 -0.1190
 1607TIP3    H226237   1.497   1.340  15.421 -0.5482  1.4649 -1.2173
 1608TIP3   OH226238   2.309   4.097   5.068 -0.2547  0.0826 -0.0217
 1608TIP3    H126239   2.325   4.093   5.163  2.0581  0.5885 -0.3354
 1608TIP3    H226240   2.297   4.190   5.050 -1.7272 -0.0983 -0.1254
 1609TIP3   OH226241   2.283   3.322  14.060 -0.3221 -0.0486  0.3679
 1609TIP3    H126242   2.282   3.408  14.016 -1.8187  0.2388  0.9128
 1609TIP3    H226243   2.193   3.309  14.088 -1.1239 -3.5695 -3.0264
 1610TIP3   OH226244   1.956   5.401   0.111  0.0757  0.5028  0.1925
 1610TIP3    H126245   2.043   5.424   0.079 -0.6216  0.4262 -1.9263
 1610TIP3    H226246   1.960   5.417   0.205  1.7479  2.4676 -0.1456
 1611TIP3   OH226247   3.774   6.121  11.827  0.3347  0.9220  0.0385
 1611TIP3    H126248   3.859   6.102  11.787 -0.1825  0.7012 -1.0015
 1611TIP3    H226249   3.756   6.212  11.803  0.5815  1.2016  0.8615
 1612TIP3   OH226250   6.341   5.653  12.901 -0.2082 -0.0553 -0.0087
 1612TIP3    H126251   6.315   5.662  12.809 -1.6581 -0.4090  0.3445
 1612TIP3    H226252   6.436   5.664  12.900 -0.1599 -0.3967 -1.5936
 1613TIP3   OH226253   4.369   0.203  12.332 -0.8178 -0.6369 -0.2777
 1613TIP3    H126254   4.315   0.250  12.396 -1.4917 -1.5530 -0.1505
 1613TIP3    H226255   4.443   0.169  12.383 -0.0835  0.6249 -0.4520
 1614TIP3   OH226256   5.993   2.180   2.750  0.0998 -0.0581 -0.4043
 1614TIP3    H126257   5.904   2.149   2.769  0.1574  0.6634  1.1682
 1614TIP3    H226258   6.009   2.152   2.660 -2.2782  1.0579 -1.2721
 1615TIP3   OH226259   3.115   1.728  13.172 -0.3009 -0.1010  0.3302
 1615TIP3    H126260   3.130   1.679  13.253 -0.2383  0.3598  0.6038
 1615TIP3    H226261   3.021   1.747  13.172 -0.7924 -2.2405 -0.9535
 1616TIP3   OH226262   2.008   6.255   1.087 -0.2776 -0.6947 -0.1655
 1616TIP3    H126263   1.923   6.211   1.079 -1.6817  1.6696  0.8575
 1616TIP3    H226264   2.031   6.246   1.179 -0.3442  0.2611 -0.0491
 1617TIP3   OH226265   2.302   4.694   3.144  0.0193  0.5577 -0.2342
 1617TIP3    H126266   2.254   4.732   3.070  0.5338  1.4456 -0.1210
 1617TIP3    H226267   2.234   4.654   3.198 -0.6194  1.8455 -0.0490
 1618TIP3   OH226268   3.700   1.998  11.533  0.6102  0.5357  0.2991
 1618TIP3    H126269   3.673   1.908  11.516  1.1928  0.4855 -0.4292
 1618TIP3    H226270   3.796   1.994  11.535  0.6344  1.1090  0.4100
 1619TIP3   OH226271   5.290   6.266  11.746  0.0475 -0.1064  0.5385
 1619TIP3    H126272   5.238   6.284  11.824 -0.5981 -0.2049  0.1341
 1619TIP3    H226273   5.358   6.206  11.776  1.7646  2.2686  1.7463
 1620TIP3   OH226274   1.967   4.080   5.705  0.0932  0.1938 -0.3908
 1620TIP3    H126275   1.918   4.057   5.626 -0.0340  0.9272 -0.5296
 1620TIP3    H226276   1.931   4.023   5.773 -0.7930  0.5642 -0.5440
 1621TIP3   OH226277   3.227   5.043  13.485 -0.5629  0.0274  0.1177
 1621TIP3    H126278   3.255   4.957  13.452 -2.1260 -0.2412 -0.6418
 1621TIP3    H226279   3.297   5.070  13.544  0.1970 -1.5617  0.0137
 1622TIP3   OH226280   4.839   2.629  12.798 -0.4161 -0.0984  0.5315
 1622TIP3    H126281   4.910   2.690  12.819  0.1062 -0.9894  1.4989
 1622TIP3    H226282   4.786   2.675  12.733  0.4263  1.0351  0.6052
 1623TIP3   OH226283   0.725   0.209  14.685  0.2950 -0.5720  0.2876
 1623TIP3    H126284   0.749   0.143  14.750 -0.2282  0.0191  1.1152
 1623TIP3    H226285   0.767   0.289  14.716 -0.9646 -0.0042  0.5946
 1624TIP3   OH226286   3.757   1.363   0.433 -0.5072  0.1173  0.2685
 1624TIP3    H126287   3.688   1.426   0.451 -0.5153  0.6968 -1.6191
 1624TIP3    H226288   3.716   1.278   0.449 -1.0010  0.5104  1.1967
 1625TIP3   OH226289   0.948   2.382   3.399 -0.1168 -0.4467  0.0486
 1625TIP3    H126290   0.978   2.358   3.487 -0.6912  1.2698  0.7664
 1625TIP3    H226291   0.936   2.477   3.404 -2.7028 -0.6404 -1.0716
 1626TIP3   OH226292   1.506   5.452   0.177  0.2968 -0.3913 -0.0715
 1626TIP3    H126293   1.575   5.463   0.242 -0.8371 -0.7279  1.2372
 1626TIP3    H226294   1.520   5.364   0.142  0.3104 -0.6037  0.4590
 1627TIP3   OH226295   3.046   6.125   0.941 -0.7305 -0.4786  0.0135
 1627TIP3    H126296   3.030   6.061   0.872 -2.3890 -1.1527  0.9639
 1627TIP3    H226297   2.973   6.186   0.935 -0.9254 -0.5643  1.1711
 1628TIP3   OH226298   5.494   2.552   3.772 -0.2165  0.9075 -0.3955
 1628TIP3    H126299   5.492   2.460   3.797 -1.1500  0.3833 -2.2236
 1628TIP3    H226300   5.566   2.589   3.823  1.7606 -1.3671 -1.3499
 1629TIP3   OH226301   4.495   0.171   4.824  0.0961  0.0033  0.2146
 1629TIP3    H126302   4.528   0.095   4.777 -0.5478  0.1940 -0.5775
 1629TIP3    H226303   4.399   0.163   4.819 -0.0000  1.3244 -0.6914
 1630TIP3   OH226304   6.262   4.194  13.546  0.4059 -0.1189 -0.3186
 1630TIP3    H126305   6.222   4.236  13.470 -0.3415  0.3129  0.3062
 1630TIP3    H226306   6.228   4.242  13.621  0.2343 -1.2764  0.3615
 1631TIP3   OH226307   5.096   3.203  16.194  0.2751 -0.7740 -0.4430
 1631TIP3    H126308   5.011   3.161  16.179 -0.4905  0.2141  0.8961
 1631TIP3    H226309   5.074   3.294  16.217  1.5890 -0.8543  1.3287
 1632TIP3   OH226310   2.738   5.096   3.202 -0.1764 -1.2215 -0.1887
 1632TIP3    H126311   2.698   5.181   3.181  1.4560 -0.2191  0.5873
 1632TIP3    H226312   2.664   5.042   3.230 -1.6221 -0.8710 -2.9396
 1633TIP3   OH226313   2.457   5.217  12.503 -0.0052 -0.0869 -0.0590
 1633TIP3    H126314   2.481   5.302  12.539  1.5257 -0.3791 -0.3575
 1633TIP3    H226315   2.369   5.231  12.466 -0.9314  0.6526  2.2236
 1634TIP3   OH226316   4.213   3.618  10.352 -0.1708 -0.0194 -0.8648
 1634TIP3    H126317   4.205   3.693  10.292  2.0870  0.5626 -0.5310
 1634TIP3    H226318   4.173   3.648  10.433 -1.2595 -0.0138 -1.3762
 1635TIP3   OH226319   6.005   6.028   5.123 -0.1761 -0.4645 -0.4499
 1635TIP3    H126320   5.984   5.951   5.070 -2.9398 -0.4359  0.4541
 1635TIP3    H226321   5.974   6.102   5.070  0.8427 -0.0816 -0.5379
 1636TIP3   OH226322   3.923   3.276  16.883 -0.0764  0.3884  0.6463
 1636TIP3    H126323   3.949   3.368  16.881 -0.4119  0.4795  0.1493
 1636TIP3    H226324   3.931   3.248  16.792 -2.3792  0.6133  0.3322
 1637TIP3   OH226325   5.174   5.135   5.730  0.1085  0.2527 -0.1730
 1637TIP3    H126326   5.090   5.133   5.683  1.1397 -0.2967 -2.0979
 1637TIP3    H226327   5.154   5.178   5.814 -1.6976  1.8642 -1.3496
 1638TIP3   OH226328   1.024   4.195  15.778 -0.5848 -0.1757 -0.0313
 1638TIP3    H126329   1.073   4.145  15.844 -0.5876 -0.9024 -0.5698
 1638TIP3    H226330   0.943   4.219  15.823  0.1447  0.8256  0.7831
 1639TIP3   OH226331   4.546   0.835   0.604  0.1534  0.5106  0.2844
 1639TIP3    H126332   4.590   0.848   0.520  2.0984  2.7873  1.5392
 1639TIP3    H226333   4.500   0.751   0.595  1.1798  0.1779 -2.6449
 1640TIP3   OH226334   5.258   1.673   5.158  0.0529  0.0807  0.2197
 1640TIP3    H126335   5.315   1.613   5.207  0.1302 -0.8826 -0.9850
 1640TIP3    H226336   5.279   1.655   5.066 -3.1679 -1.3131 -0.3526
 1641TIP3   OH226337   0.296   2.127  12.626 -0.1813  0.1540 -0.2684
 1641TIP3    H126338   0.327   2.134  12.536 -2.4175 -2.7102 -1.4381
 1641TIP3    H226339   0.344   2.053  12.663 -0.5377  0.1919  0.2853
 1642TIP3   OH226340   4.822   1.876   2.260 -0.6534  0.0531 -0.3355
 1642TIP3    H126341   4.799   1.968   2.274 -0.5642  0.0449 -0.1412
 1642TIP3    H226342   4.816   1.865   2.165  1.2682  0.7824 -0.6059
 1643TIP3   OH226343   0.707   3.830   5.351  0.3447 -0.3956  0.2557
 1643TIP3    H126344   0.684   3.849   5.260 -1.1469  2.3652  1.0977
 1643TIP3    H226345   0.769   3.899   5.375 -0.4553 -0.1586  1.7358
 1644TIP3   OH226346   5.726   6.052   5.612  0.1056  0.0701 -0.7100
 1644TIP3    H126347   5.672   5.976   5.592 -0.5683  0.2496  0.3453
 1644TIP3    H226348   5.795   6.050   5.546 -0.3932 -0.9569 -1.2303
 1645TIP3   OH226349   0.153   6.495  16.212  0.6320  0.3153  0.8073
 1645TIP3    H126350   0.168   6.406  16.244 -0.6593 -0.2941 -0.1600
 1645TIP3    H226351   0.223   6.510  16.149 -0.7068 -1.1989 -1.2014
 1646TIP3   OH226352   2.212   3.633   5.176  0.2068  0.0583  0.4155
 1646TIP3    H126353   2.295   3.640   5.224  1.1431 -0.8117 -1.0209
 1646TIP3    H226354   2.183   3.543   5.191  0.2331 -0.0574 -0.2275
 1647TIP3   OH226355   0.062   5.093   0.396 -0.3861  0.2195  0.6478
 1647TIP3    H126356  -0.026   5.054   0.394  0.0110 -0.6931 -1.6184
 1647TIP3    H226357   0.106   5.047   0.467 -0.7716 -1.6646 -0.2641
 1648TIP3   OH226358   3.111   4.566  12.095 -0.1585  0.3938 -0.4745
 1648TIP3    H126359   3.149   4.642  12.051 -1.2051  2.4799  1.9978
 1648TIP3    H226360   3.025   4.555  12.054 -0.0179  0.5463 -0.8171
 1649TIP3   OH226361   2.560   5.214   3.563 -0.2806 -0.2663 -0.5282
 1649TIP3    H126362   2.526   5.240   3.477 -0.5543 -0.5820 -0.5193
 1649TIP3    H226363   2.618   5.286   3.589 -0.5340  0.0347 -0.7825
 1650TIP3   OH226364   1.627   3.763  15.711  0.3444 -0.0012 -0.4123
 1650TIP3    H126365   1.609   3.682  15.759 -1.6580  0.8068  0.3236
 1650TIP3    H226366   1.630   3.736  15.619 -1.1831 -0.8112 -0.2636
 1651TIP3   OH226367   4.868   0.905  10.917  0.1071  0.5700 -0.3974
 1651TIP3    H126368   4.944   0.961  10.934  0.1941  0.3026  0.1051
 1651TIP3    H226369   4.905   0.824  10.881 -0.0465  0.9804 -1.5140
 1652TIP3   OH226370   0.148   0.305   0.744  0.2400  0.5671 -0.3367
 1652TIP3    H126371   0.127   0.243   0.674  0.9537  0.6205 -0.6056
 1652TIP3    H226372   0.125   0.259   0.825 -0.6137  0.5121 -0.5977
 1653TIP3   OH226373   0.769   2.679  13.624  0.0270  0.3457 -0.2947
 1653TIP3    H126374   0.723   2.667  13.707  1.3538  0.4069  0.4945
 1653TIP3    H226375   0.848   2.624  13.633  0.5738  0.9553 -1.1983
 1654TIP3   OH226376   2.648   3.194   5.540 -0.0916  0.3219 -0.3262
 1654TIP3    H126377   2.701   3.195   5.620  0.0305  0.8892 -0.4050
 1654TIP3    H226378   2.624   3.102   5.528  1.4740 -0.0788 -0.6746
 1655TIP3   OH226379   1.605   4.868  16.906 -0.0504  0.3300  0.0086
 1655TIP3    H126380   1.633   4.891  16.818  0.0870  0.2591  0.0320
 1655TIP3    H226381   1.559   4.946  16.938 -2.1667 -0.4333 -0.9693
 1656TIP3   OH226382   2.088   4.589  14.036 -0.1833  0.7447  0.2436
 1656TIP3    H126383   2.058   4.509  14.079 -0.2206  0.2821 -0.6089
 1656TIP3    H226384   2.170   4.564  13.994 -0.3847  1.0457 -0.3372
 1657TIP3   OH226385   6.498   2.128  13.578 -0.0570  0.4618  0.0532
 1657TIP3    H126386   6.570   2.090  13.629 -1.1261 -1.2141  0.4312
 1657TIP3    H226387   6.421   2.114  13.634 -0.9464  0.4555 -1.1465
 1658TIP3   OH226388   0.926   5.455  14.863  0.0219 -0.8965  0.0937
 1658TIP3    H126389   0.981   5.522  14.821 -0.0375 -0.1655  1.1554
 1658TIP3    H226390   0.856   5.439  14.799 -0.8313  1.1942  0.4122
 1659TIP3   OH226391   1.335   6.392  13.718  0.1864  0.0805  0.0486
 1659TIP3    H126392   1.248   6.358  13.739  0.5910 -1.1923 -0.2502
 1659TIP3    H226393   1.338   6.477  13.761 -1.2202  0.1646  0.0269
 1660TIP3   OH226394   3.490   1.354   5.045 -0.0180  0.6142  0.7656
 1660TIP3    H126395   3.396   1.342   5.057 -0.2561  1.0868 -0.4501
 1660TIP3    H226396   3.520   1.271   5.007 -0.7649  1.8029 -2.8712
 1661TIP3   OH226397   1.471   2.926  13.430 -0.2949  0.0362  0.5788
 1661TIP3    H126398   1.426   3.005  13.401 -1.1871 -1.1898 -1.5870
 1661TIP3    H226399   1.414   2.891  13.499 -1.7229 -0.4659 -0.7995
 1662TIP3   OH226400   3.322   3.635   2.169 -0.0555 -0.3239 -0.2646
 1662TIP3    H126401   3.275   3.586   2.237 -1.6337  0.2138 -0.9337
 1662TIP3    H226402   3.254   3.663   2.108  1.0683  1.0093 -0.9555
 1663TIP3   OH226403   5.562   1.273   4.457 -0.4701 -0.3142  0.1376
 1663TIP3    H126404   5.535   1.363   4.439 -1.6612 -0.2935  1.7595
 1663TIP3    H226405   5.610   1.246   4.378 -3.3688  0.4267 -2.0588
 1664TIP3   OH226406   5.609   5.880   5.433 -0.5921 -0.5559  0.4575
 1664TIP3    H126407   5.697   5.879   5.397 -1.3979  0.4907 -1.7056
 1664TIP3    H226408   5.553   5.852   5.361 -2.1727  0.3492  1.2783
 1665TIP3   OH226409   0.558   4.944   3.442  0.3370  0.5443 -0.0580
 1665TIP3    H126410   0.466   4.971   3.444  0.9518  3.1027 -1.7815
 1665TIP3    H226411   0.592   4.981   3.360  3.1525  0.5535  1.0200
 1666TIP3   OH226412   3.205   4.223  12.549 -0.1210  0.1802  0.2935
 1666TIP3    H126413   3.153   4.248  12.625  0.1088  1.2365  0.1184
 1666TIP3    H226414   3.186   4.290  12.484  0.8521  0.1426 -0.0454
 1667TIP3   OH226415   3.603   1.988  13.354  0.4359 -0.1936  0.3742
 1667TIP3    H126416   3.656   1.923  13.308 -0.3486 -0.2429 -0.4793
 1667TIP3    H226417   3.585   2.055  13.288  0.4024  0.4063  0.9775
 1668TIP3   OH226418   4.287   1.792   4.256 -0.1654  0.8716  0.4488
 1668TIP3    H126419   4.272   1.821   4.166  0.0044 -0.3786 -0.0099
 1668TIP3    H226420   4.348   1.718   4.247 -0.4921  0.4476  1.5549
 1669TIP3   OH226421   1.600   4.733  10.790  0.0485  0.3864  0.0137
 1669TIP3    H126422   1.653   4.687  10.855  0.6376 -0.1130 -0.8097
 1669TIP3    H226423   1.534   4.669  10.764 -0.1752  0.5800  0.0970
 1670TIP3   OH226424   0.081   2.748   0.257  0.1093  0.3032  0.0280
 1670TIP3    H126425   0.137   2.696   0.199 -1.8640  1.0148 -2.7448
 1670TIP3    H226426   0.122   2.835   0.257  0.5062  0.1194  0.2942
 1671TIP3   OH226427   5.791   0.044  16.955  0.2782 -0.0701  0.2012
 1671TIP3    H126428   5.713   0.015  17.004 -0.1811  0.9964  0.1227
 1671TIP3    H226429   5.757   0.074  16.871  0.8713 -0.2669 -0.1152
 1672TIP3   OH226430   0.273   0.985  15.214 -0.3202  0.1306  0.7131
 1672TIP3    H126431   0.179   0.984  15.231 -0.8354  0.5134 -1.7429
 1672TIP3    H226432   0.299   1.076  15.228 -0.3649  0.0900  1.0807
 1673TIP3   OH226433   1.291   4.766  16.977  0.3208  0.4323 -0.6210
 1673TIP3    H126434   1.273   4.855  16.949 -0.3634  0.7399  0.7148
 1673TIP3    H226435   1.269   4.712  16.901  0.7881  1.3934 -1.4576
 1674TIP3   OH226436   3.043   0.683  11.056 -0.0113  0.2419  0.2293
 1674TIP3    H126437   3.136   0.688  11.077 -0.2665  1.8544  1.2282
 1674TIP3    H226438   3.040   0.658  10.964  1.4427  1.0489 -0.0719
 1675TIP3   OH226439   0.912   3.917  12.252  0.0989 -0.1906  0.2744
 1675TIP3    H126440   0.940   3.911  12.160 -3.1200 -2.1117 -0.7581
 1675TIP3    H226441   0.819   3.939  12.246  0.0720  0.8095  3.1760
 1676TIP3   OH226442   6.458   3.046  14.537  0.3832 -0.2003  0.3588
 1676TIP3    H126443   6.424   3.031  14.449  0.7811 -0.5394  0.2609
 1676TIP3    H226444   6.551   3.064  14.524 -0.0072  2.3984  0.4487
 1677TIP3   OH226445   0.235   3.425   2.829 -0.3191 -0.2704 -0.4359
 1677TIP3    H126446   0.171   3.492   2.852 -0.9470 -0.7641 -0.6971
 1677TIP3    H226447   0.283   3.408   2.910  0.4268  1.0920 -0.5681
 1678TIP3   OH226448   5.233   5.430  11.980  0.1060  0.1715  0.0472
 1678TIP3    H126449   5.210   5.519  12.005  1.2536  0.3110  0.6793
 1678TIP3    H226450   5.328   5.432  11.968  0.1221 -0.9133 -0.1536
 1679TIP3   OH226451   5.227   1.912   0.194 -0.5157 -0.3232  0.0604
 1679TIP3    H126452   5.316   1.888   0.168 -0.0284  1.6189 -0.2496
 1679TIP3    H226453   5.176   1.906   0.113 -0.5833 -1.0391  0.1524
 1680TIP3   OH226454   3.162   0.307  13.049  0.5428  0.0926 -0.0922
 1680TIP3    H126455   3.105   0.233  13.027 -1.3611  1.6927 -0.8127
 1680TIP3    H226456   3.135   0.333  13.137  0.3464  0.6700 -0.3173
 1681TIP3   OH226457   4.301   2.239   3.025 -0.1915  0.5476 -0.3875
 1681TIP3    H126458   4.370   2.244   3.091 -0.6135  0.0674  0.1022
 1681TIP3    H226459   4.267   2.328   3.020  0.7077  0.8703 -0.9049
 1682TIP3   OH226460   1.352   0.792   3.859  0.0096  0.0189 -0.0075
 1682TIP3    H126461   1.440   0.811   3.827  0.0233 -1.4720 -0.9866
 1682TIP3    H226462   1.364   0.773   3.953  0.2598  2.5607  0.5427
 1683TIP3   OH226463   5.528   2.170  11.325  1.0588 -0.3577 -0.4405
 1683TIP3    H126464   5.457   2.167  11.260 -0.3186 -0.1408  0.9842
 1683TIP3    H226465   5.492   2.124  11.401  1.0999  2.5760  1.5506
 1684TIP3   OH226466   4.186   5.916  10.883 -0.7223 -0.1865 -0.4312
 1684TIP3    H126467   4.092   5.908  10.869 -0.7630  1.2516 -1.1945
 1684TIP3    H226468   4.220   5.941  10.797 -0.0764  2.4478  0.4986
 1685TIP3   OH226469   5.982   5.418  16.746  0.2714 -0.2743 -0.3100
 1685TIP3    H126470   5.985   5.324  16.764 -0.6589 -0.4288 -0.8565
 1685TIP3    H226471   6.054   5.455  16.796  0.3636 -1.2229  0.2805
 1686TIP3   OH226472   0.532   0.927   4.578  0.4641  0.2906 -0.3335
 1686TIP3    H126473   0.497   1.001   4.528  0.7300  0.0948 -0.8098
 1686TIP3    H226474   0.484   0.930   4.661 -0.4481  0.2224 -0.8493
 1687TIP3   OH226475   5.773   2.745   5.796 -0.0017  0.4556  0.1196
 1687TIP3    H126476   5.713   2.730   5.868  1.6078 -1.3601  1.1876
 1687TIP3    H226477   5.725   2.718   5.718 -1.2674  1.0601  0.6707
 1688TIP3   OH226478   3.787   3.126  14.077 -0.0069  0.2635 -0.1390
 1688TIP3    H126479   3.800   3.132  14.172  2.3184  1.0258 -0.4215
 1688TIP3    H226480   3.829   3.205  14.043 -0.7017 -0.0627 -1.8183
 1689TIP3   OH226481   6.696   5.387  11.809 -0.1987 -0.6584 -0.8148
 1689TIP3    H126482   6.753   5.322  11.768  0.2204 -0.6335 -0.2814
 1689TIP3    H226483   6.673   5.349  11.894 -0.3458 -0.3219 -0.7015
 1690TIP3   OH226484   4.856   3.777  14.528 -0.1608 -0.4529  0.3567
 1690TIP3    H126485   4.878   3.691  14.562  0.0558 -0.7789 -0.5771
 1690TIP3    H226486   4.816   3.759  14.443 -0.6355  0.3388  0.4034
 1691TIP3   OH226487   0.802   1.201  16.142 -0.1263 -0.4267  0.3185
 1691TIP3    H126488   0.755   1.265  16.088 -1.0208 -0.9755  0.4416
 1691TIP3    H226489   0.750   1.122  16.136  0.5060 -0.8930  0.8960
 1692TIP3   OH226490   2.601   5.476  14.996  0.0593 -0.1125  0.0366
 1692TIP3    H126491   2.663   5.515  14.934  0.5832 -0.4460  0.3507
 1692TIP3    H226492   2.516   5.511  14.969 -0.0375 -1.8028 -2.1649
 1693TIP3   OH226493   4.398   6.367  16.113 -0.5976  0.0114 -0.3138
 1693TIP3    H126494   4.344   6.296  16.148  0.6696 -1.4587 -1.2025
 1693TIP3    H226495   4.465   6.323  16.060  2.3399  1.5816  1.7635
 1694TIP3   OH226496   0.806   5.245  15.378 -0.0912 -0.5230 -0.4395
 1694TIP3    H126497   0.769   5.270  15.294  0.3630 -1.4374 -0.9392
 1694TIP3    H226498   0.743   5.183  15.415  0.3924 -1.2403 -0.7900
 1695TIP3   OH226499   5.393   4.533   2.359 -0.2008 -0.7989 -0.7991
 1695TIP3    H126500   5.425   4.444   2.375 -1.1616 -0.9287  0.5659
 1695TIP3    H226501   5.432   4.585   2.429 -0.7935 -0.4285 -0.7406
 1696TIP3   OH226502   2.076   2.268   1.165  0.3148 -0.4327  0.1677
 1696TIP3    H126503   2.168   2.242   1.175  0.5063  0.0289 -0.3655
 1696TIP3    H226504   2.027   2.196   1.205  0.9428 -0.0872  1.6069
 1697TIP3   OH226505   1.914   6.264  15.555  0.1944 -0.2495  0.3919
 1697TIP3    H126506   1.911   6.190  15.616  1.0446 -3.3546 -2.9906
 1697TIP3    H226507   1.878   6.230  15.474  1.0891  2.9687 -1.5342
 1698TIP3   OH226508   5.409   5.074  15.840 -0.2718 -0.5749 -0.2280
 1698TIP3    H126509   5.420   5.029  15.756 -0.7871 -1.1541  0.0044
 1698TIP3    H226510   5.405   5.004  15.905  0.3563 -0.1203  0.3160
 1699TIP3   OH226511   1.274   0.124  15.446  0.3311 -0.2962 -0.5700
 1699TIP3    H126512   1.274   0.045  15.500 -0.1451  0.7905  1.0991
 1699TIP3    H226513   1.341   0.180  15.486 -0.0128  0.5363 -1.1272
 1700TIP3   OH226514   3.317   2.853  13.675  0.9210  0.6195  0.0077
 1700TIP3    H126515   3.279   2.773  13.639 -0.1713  1.6031 -1.0763
 1700TIP3    H226516   3.387   2.822  13.733 -0.8165 -1.2123  1.2461
 1701TIP3   OH226517   6.401   6.596   6.747  0.0869 -0.4877  0.0035
 1701TIP3    H126518   6.432   6.544   6.673 -0.1535  0.4690 -0.7967
 1701TIP3    H226519   6.397   6.534   6.820  1.5232 -1.1777 -0.4610
 1702TIP3   OH226520   3.128   3.034  16.194 -0.0945 -0.2607  0.2105
 1702TIP3    H126521   3.214   3.070  16.171  1.7258 -2.8200  2.3772
 1702TIP3    H226522   3.108   2.972  16.124  0.6298 -0.7859  0.4544
 1703TIP3   OH226523   5.108   1.066   5.197  0.2809  0.3146 -0.3349
 1703TIP3    H126524   5.104   0.989   5.253  0.8485  0.9698  0.6330
 1703TIP3    H226525   5.090   1.139   5.255  0.2224  0.9582 -1.1419
 1704TIP3   OH226526   6.470   2.342   3.606  1.0207  0.6086 -0.1050
 1704TIP3    H126527   6.494   2.253   3.578 -0.9418  0.5079 -1.7766
 1704TIP3    H226528   6.542   2.397   3.575  0.9014 -0.0802 -1.7595
 1705TIP3   OH226529   4.670   5.814  12.681  0.4152  0.1109  0.0750
 1705TIP3    H126530   4.692   5.879  12.748 -1.0340 -1.1641  1.9163
 1705TIP3    H226531   4.755   5.778  12.653  1.0448 -0.0573  2.0445
 1706TIP3   OH226532   0.647   0.052  15.996  0.1313  1.0214 -0.5276
 1706TIP3    H126533   0.731   0.019  15.963  0.8880  1.4591  0.8648
 1706TIP3    H226534   0.620   0.117  15.931  0.8999  0.9203 -0.9668
 1707TIP3   OH226535   2.624   1.951   6.059 -0.4775  0.4108  0.1982
 1707TIP3    H126536   2.605   2.033   6.103  1.3787  1.8200 -1.4663
 1707TIP3    H226537   2.709   1.924   6.094  0.2600  0.7120 -1.3021
 1708TIP3   OH226538   6.091   2.456  16.259  0.5342 -0.2097 -0.6538
 1708TIP3    H126539   6.116   2.538  16.217 -0.9357  0.3223 -0.5579
 1708TIP3    H226540   6.022   2.420  16.204 -0.2167 -0.3727  0.3549
 1709TIP3   OH226541   1.280   5.582  15.535 -0.3351  0.4489 -0.1088
 1709TIP3    H126542   1.268   5.487  15.547 -0.7179  0.4028 -0.7451
 1709TIP3    H226543   1.373   5.593  15.516 -0.1601  0.2803  0.6456
 1710TIP3   OH226544   0.077   2.895  14.524 -0.3193 -0.1512 -0.1178
 1710TIP3    H126545   0.054   2.865  14.436  0.2096  0.8901 -0.6314
 1710TIP3    H226546   0.021   2.844  14.582 -3.6874  1.9528 -1.2344
 1711TIP3   OH226547   6.190   2.712   1.563 -0.3689  0.8116  0.3481
 1711TIP3    H126548   6.259   2.681   1.622 -0.5926 -1.2059 -0.4137
 1711TIP3    H226549   6.235   2.773   1.504  0.6395  0.0082  0.2583
 1712TIP3   OH226550   1.230   3.056   2.549 -0.0303  0.3077  0.1353
 1712TIP3    H126551   1.259   3.143   2.578 -0.7589  0.9440 -0.9775
 1712TIP3    H226552   1.182   3.073   2.467 -0.4379 -1.1127  0.0628
 1713TIP3   OH226553   2.346   0.865  16.387  0.0645 -0.3498  0.1495
 1713TIP3    H126554   2.341   0.780  16.344  1.9175 -1.1062  1.3330
 1713TIP3    H226555   2.322   0.928  16.318 -2.3099 -1.8285 -0.4810
 1714TIP3   OH226556   1.655   3.884   2.306  0.1290 -0.1708  0.9517
 1714TIP3    H126557   1.716   3.955   2.328  1.1907 -0.5994 -0.4681
 1714TIP3    H226558   1.695   3.840   2.230 -2.0219 -0.3860 -0.1337
 1715TIP3   OH226559   3.381   5.492   0.307 -0.3693  0.4321 -0.0110
 1715TIP3    H126560   3.453   5.537   0.353 -0.9531  0.1266  1.2527
 1715TIP3    H226561   3.393   5.400   0.329 -0.7128  0.2899 -0.4222
 1716TIP3   OH226562   1.117   6.665   3.104  0.2734 -0.8894  0.3032
 1716TIP3    H126563   1.030   6.660   3.144  0.5613 -2.7811  0.8172
 1716TIP3    H226564   1.113   6.603   3.030  1.2663 -1.2324  0.5228
 1717TIP3   OH226565   5.989   3.896  12.916 -0.0459  0.4524 -0.2033
 1717TIP3    H126566   5.920   3.959  12.934 -1.5167 -0.6981 -1.5071
 1717TIP3    H226567   5.950   3.834  12.854  1.9011 -0.7153 -0.3686
 1718TIP3   OH226568   6.769   2.092   1.698  0.1031 -0.0478  0.2216
 1718TIP3    H126569   6.677   2.084   1.673  0.2716  0.9850 -0.8744
 1718TIP3    H226570   6.786   2.017   1.754 -1.0346 -1.0533 -0.7191
 1719TIP3   OH226571   4.467   0.645  12.881 -0.3042  0.3649 -0.0696
 1719TIP3    H126572   4.550   0.600  12.867 -0.2988  0.0241  0.9484
 1719TIP3    H226573   4.463   0.711  12.812  0.4317 -0.1507 -0.6168
 1720TIP3   OH226574   2.432   2.342   2.546  0.1934  0.5171  0.2314
 1720TIP3    H126575   2.513   2.377   2.508 -0.1643  0.0907 -0.9661
 1720TIP3    H226576   2.462   2.279   2.611  0.9217 -1.7014 -2.0864
 1721TIP3   OH226577   2.092   5.441   1.856 -0.5119  0.2579  0.2774
 1721TIP3    H126578   2.095   5.444   1.760 -3.5007  0.5082  0.0870
 1721TIP3    H226579   2.006   5.477   1.878 -0.8581 -1.8964  2.9400
 1722TIP3   OH226580   5.020   0.182  14.318  0.1798  0.4125 -0.2137
 1722TIP3    H126581   4.998   0.093  14.346  1.0688  0.5258  0.9377
 1722TIP3    H226582   4.958   0.238  14.364  0.5377  0.4751  0.2054
 1723TIP3   OH226583   2.806   5.721  11.883  0.9315  0.7372 -0.0995
 1723TIP3    H126584   2.829   5.811  11.904  1.8322  0.4547  0.1615
 1723TIP3    H226585   2.806   5.717  11.788  0.9681  0.9857 -0.1098
 1724TIP3   OH226586   2.782   1.681   1.007  0.2282  0.4226  0.4420
 1724TIP3    H126587   2.707   1.736   1.028 -0.4064 -0.0737 -0.4974
 1724TIP3    H226588   2.857   1.741   1.012 -0.3666  1.2030  0.2072
 1725TIP3   OH226589   3.989   0.165  13.222  0.5577  0.2430 -0.4082
 1725TIP3    H126590   3.980   0.220  13.145  0.0618  0.0956 -0.4585
 1725TIP3    H226591   3.978   0.076  13.190 -0.8168  0.2502  0.0016
 1726TIP3   OH226592   0.190   3.170  16.792  0.0680 -0.3017 -0.0729
 1726TIP3    H126593   0.137   3.209  16.723  0.2496 -1.2803 -0.7815
 1726TIP3    H226594   0.126   3.130  16.851 -0.0225 -0.8846 -0.5575
 1727TIP3   OH226595   2.686   3.117  14.338 -0.4618  0.2554  0.2496
 1727TIP3    H126596   2.664   3.130  14.431 -2.9668  0.1542 -0.2514
 1727TIP3    H226597   2.607   3.145  14.291 -0.7368 -3.2380 -1.6706
 1728TIP3   OH226598   1.293   4.597  12.185 -0.2448 -0.0628 -0.1008
 1728TIP3    H126599   1.242   4.566  12.111 -0.3993  0.4129 -0.2018
 1728TIP3    H226600   1.350   4.665  12.148  1.6932 -1.7290 -0.3238
 1729TIP3   OH226601   1.986   6.363  16.704  0.2638 -0.7257  0.1452
 1729TIP3    H126602   1.902   6.321  16.684  1.0569 -3.1281  1.3999
 1729TIP3    H226603   1.997   6.429  16.635 -2.3764 -0.6929 -0.3441
 1730TIP3   OH226604   0.704   0.128   4.777 -0.0116 -0.0047  0.6067
 1730TIP3    H126605   0.713   0.119   4.872  0.7265  2.2612  0.8151
 1730TIP3    H226606   0.794   0.138   4.746 -0.2815 -0.2479 -0.2743
 1731TIP3   OH226607   3.728   5.620  13.250  0.2871 -0.2897  0.2751
 1731TIP3    H126608   3.706   5.629  13.343  1.8302 -0.3627  0.6718
 1731TIP3    H226609   3.824   5.615  13.248  0.4846  2.3664 -1.5451
 1732TIP3   OH226610   1.296   5.734  12.647  0.0915  0.1402 -0.1106
 1732TIP3    H126611   1.362   5.666  12.640  0.1108 -0.0602  1.7081
 1732TIP3    H226612   1.346   5.815  12.660  0.0673 -0.2306  3.0817
 1733TIP3   OH226613   1.525   2.649   2.572 -0.3526 -0.2720  0.0931
 1733TIP3    H126614   1.455   2.596   2.609 -0.8572 -1.2111 -2.0513
 1733TIP3    H226615   1.482   2.727   2.538 -0.0834 -0.0148  0.3314
 1734TIP3   OH226616   5.922   3.695  12.608  0.1028 -0.0999 -0.3761
 1734TIP3    H126617   5.875   3.718  12.688  0.8607 -0.3317  0.1513
 1734TIP3    H226618   5.857   3.705  12.538 -1.4918 -2.9315  0.5754
 1735TIP3   OH226619   6.460   6.302  12.938  0.0839 -0.3050  0.3762
 1735TIP3    H126620   6.464   6.380  12.994  1.9698  0.3812 -0.6480
 1735TIP3    H226621   6.530   6.314  12.875 -0.5626 -2.1419 -0.7582
 1736TIP3   OH226622   5.854   3.716   4.490  0.2505  0.2091 -0.2598
 1736TIP3    H126623   5.779   3.764   4.526 -0.0554  0.0139 -0.6258
 1736TIP3    H226624   5.836   3.712   4.396 -0.5962 -2.0850 -0.0688
 1737TIP3   OH226625   2.184   4.114  15.323  0.0194 -0.1017 -0.1821
 1737TIP3    H126626   2.235   4.195  15.328  0.0715  0.1157 -2.8598
 1737TIP3    H226627   2.093   4.143  15.319  0.0278 -0.1601 -0.9603
 1738TIP3   OH226628   5.807   1.776   3.046 -0.1118 -0.3824  0.0584
 1738TIP3    H126629   5.808   1.862   3.090  2.7174 -0.2857 -0.0275
 1738TIP3    H226630   5.802   1.797   2.953 -0.8461 -0.3904  0.0899
 1739TIP3   OH226631   2.097   2.760  17.026  0.6039 -0.0215  0.1057
 1739TIP3    H126632   2.033   2.763  16.954  0.0281  1.0809  0.6275
 1739TIP3    H226633   2.157   2.832  17.007  1.0735 -0.3950  0.1778
 1740TIP3   OH226634   3.050   6.168   0.556 -0.2329  0.0743 -0.3637
 1740TIP3    H126635   3.128   6.114   0.553  0.0949  0.5807 -1.9884
 1740TIP3    H226636   2.997   6.138   0.483  0.4324  2.5519 -1.9931
 1741TIP3   OH226637   1.011   1.698   4.185  0.2065  0.0116 -0.0577
 1741TIP3    H126638   1.089   1.698   4.241  0.2462  0.5079 -0.1123
 1741TIP3    H226639   1.046   1.705   4.096  0.1309 -0.5054 -0.1317
 1742TIP3   OH226640   0.222   6.004   2.812 -0.2962 -0.0475 -0.0349
 1742TIP3    H126641   0.129   6.017   2.828 -0.2688 -0.7830  0.7738
 1742TIP3    H226642   0.265   6.048   2.886 -0.0621 -0.8714  0.3353
 1743TIP3   OH226643   4.847   0.942   1.807 -0.2774  0.6272  0.0819
 1743TIP3    H126644   4.765   0.988   1.791  0.2361  1.2903 -0.6727
 1743TIP3    H226645   4.839   0.911   1.898 -1.6473  0.0607 -0.2029
 1744TIP3   OH226646   2.909   4.164   3.821 -0.2254 -0.3718  0.3234
 1744TIP3    H126647   2.956   4.088   3.853 -0.4580 -1.1659 -1.1320
 1744TIP3    H226648   2.821   4.154   3.856 -0.5756 -1.4164 -0.7830
 1745TIP3   OH226649   2.116   0.430   5.618 -0.2393  0.1802 -0.1805
 1745TIP3    H126650   2.131   0.371   5.545 -0.4527  1.6260 -1.4454
 1745TIP3    H226651   2.188   0.413   5.678 -1.3587 -2.7499  0.5073
 1746TIP3   OH226652   3.213   4.876   2.105  0.4458 -0.2846  0.2630
 1746TIP3    H126653   3.215   4.887   2.200  1.3847 -0.0277  0.2266
 1746TIP3    H226654   3.300   4.904   2.076 -0.1912  0.6969 -0.7882
 1747TIP3   OH226655   4.915   2.057   0.126 -0.1935  0.2089 -0.1284
 1747TIP3    H126656   4.897   2.014   0.042 -0.1212  1.8033 -0.9843
 1747TIP3    H226657   4.829   2.066   0.167 -0.3505  0.3142 -0.4747
 1748TIP3   OH226658   6.475   1.769   1.086  0.0313  0.0224 -0.1376
 1748TIP3    H126659   6.472   1.702   1.017 -0.1365  0.8253 -0.9194
 1748TIP3    H226660   6.518   1.725   1.160 -1.0588 -1.2868 -0.2559
 1749TIP3   OH226661   2.750   4.860  12.042 -0.0223  0.4770 -0.4956
 1749TIP3    H126662   2.808   4.842  11.968  0.9656  2.4827 -0.2714
 1749TIP3    H226663   2.662   4.852  12.006  0.4332  0.5550 -1.6667
 1750TIP3   OH226664   0.844   5.574  12.555  0.3322 -0.0555  0.0863
 1750TIP3    H126665   0.885   5.643  12.504  1.4177 -1.2144 -0.6544
 1750TIP3    H226666   0.913   5.546  12.616 -0.1256 -0.4403  0.4308
 1751TIP3   OH226667   3.723   4.895  13.291 -0.1912  0.0704 -0.3050
 1751TIP3    H126668   3.656   4.862  13.232 -0.0698 -2.0660  0.6552
 1751TIP3    H226669   3.718   4.990  13.283 -1.7019 -0.1073 -2.0127
 1752TIP3   OH226670   3.581   3.394  13.341  0.1275  0.8919 -0.2023
 1752TIP3    H126671   3.495   3.434  13.352 -0.2346  0.1837 -0.4240
 1752TIP3    H226672   3.588   3.332  13.413  1.2191  2.2426  0.8999
 1753TIP3   OH226673   0.989   6.241  14.597 -1.6548 -0.0324 -0.3691
 1753TIP3    H126674   0.992   6.145  14.596  0.7026 -0.0360 -2.5110
 1753TIP3    H226675   1.081   6.268  14.598 -2.2582  2.2708  1.2974
 1754TIP3   OH226676   6.229   0.548   0.835 -0.1445 -0.1214  0.0569
 1754TIP3    H126677   6.232   0.495   0.755 -0.4108 -0.5083  0.2977
 1754TIP3    H226678   6.218   0.484   0.905 -0.1331  0.2329  0.3823
 1755TIP3   OH226679   4.588   2.437   2.485 -0.1933 -0.1219 -0.3438
 1755TIP3    H126680   4.588   2.468   2.576 -0.1243  1.0589 -0.7303
 1755TIP3    H226681   4.664   2.481   2.446 -1.1890  0.6997 -1.3972
 1756TIP3   OH226682   2.181   0.108   3.742  0.1504 -0.0814  0.5698
 1756TIP3    H126683   2.126   0.153   3.678  1.8255  0.2014 -0.7602
 1756TIP3    H226684   2.151   0.017   3.740  0.4815 -0.1956 -1.0411
 1757TIP3   OH226685   0.548   1.163  14.851  0.2793  0.0450 -0.0437
 1757TIP3    H126686   0.454   1.180  14.842  0.3294  0.2172 -0.2640
 1757TIP3    H226687   0.555   1.106  14.927  0.0677  0.7342  0.5088
 1758TIP3   OH226688   0.163   1.902  13.294 -0.2974  0.0212  0.5708
 1758TIP3    H126689   0.243   1.955  13.283 -0.7457  0.8988  1.3594
 1758TIP3    H226690   0.126   1.897  13.206  0.6106 -0.3845  0.1970
 1759TIP3   OH226691   3.900   6.002  11.057  0.3269  0.2376  0.5252
 1759TIP3    H126692   3.937   5.973  10.973 -0.5444 -0.0577  0.2283
 1759TIP3    H226693   3.900   5.923  11.111  2.4320  0.7808  1.4149
 1760TIP3   OH226694   3.352   0.340   6.325  0.4007 -0.4779  0.0191
 1760TIP3    H126695   3.317   0.260   6.286 -2.8724  0.8630 -0.1793
 1760TIP3    H226696   3.357   0.321   6.418 -2.6619 -0.3262  0.3230
 1761TIP3   OH226697   2.737   4.060   2.828  0.3318 -0.3126 -0.0815
 1761TIP3    H126698   2.803   4.026   2.767  1.3413  1.9503 -0.3655
 1761TIP3    H226699   2.778   4.136   2.868 -2.2531  1.5225 -0.6341
 1762TIP3   OH226700   6.508   3.012  15.489 -0.0577 -0.1875  0.1292
 1762TIP3    H126701   6.552   2.935  15.524  2.9082 -0.3504 -3.3398
 1762TIP3    H226702   6.566   3.085  15.511  0.3200  0.1013 -1.6521
 1763TIP3   OH226703   0.388   1.267  11.332 -0.2002 -0.4036 -0.4718
 1763TIP3    H126704   0.482   1.263  11.351 -0.0800 -2.3554 -1.2121
 1763TIP3    H226705   0.352   1.325  11.400  1.4952  0.2251 -0.0621
 1764TIP3   OH226706   1.555   3.992  11.398  0.7395 -0.1876 -0.4821
 1764TIP3    H126707   1.572   4.082  11.369 -0.9596 -0.0261 -1.1258
 1764TIP3    H226708   1.570   3.939  11.319 -0.4855 -0.1685 -0.7494
 1765TIP3   OH226709   4.273   4.743   2.376  0.2151  0.0792  0.4411
 1765TIP3    H126710   4.226   4.791   2.308 -0.0285 -0.2315  0.3885
 1765TIP3    H226711   4.205   4.716   2.438  0.1403 -1.3322 -0.2062
 1766TIP3   OH226712   2.060   1.825  12.262 -0.1442  0.0468 -0.0208
 1766TIP3    H126713   1.992   1.861  12.318  0.3195 -0.2706  0.7591
 1766TIP3    H226714   2.090   1.747  12.307  0.3609 -0.1220 -0.6278
 1767TIP3   OH226715   4.271   1.322   5.221 -0.7798  0.0908 -0.1192
 1767TIP3    H126716   4.235   1.237   5.196  1.0660 -1.3272  1.6590
 1767TIP3    H226717   4.323   1.350   5.145  0.0397 -1.2824 -0.0933
 1768TIP3   OH226718   2.979   3.396   3.900 -0.3560  0.6300 -0.5080
 1768TIP3    H126719   2.910   3.461   3.889 -0.0486  0.8715 -1.0613
 1768TIP3    H226720   3.059   3.443   3.876 -0.1978 -0.1294 -1.5114
 1769TIP3   OH226721   3.233   6.581  14.845  0.3385  0.0932 -0.0878
 1769TIP3    H126722   3.304   6.521  14.868  0.9761  1.1447  0.7842
 1769TIP3    H226723   3.190   6.540  14.770 -0.5114 -2.4176  1.6817
 1770TIP3   OH226724   2.902   1.136  11.902  0.0057 -0.0649  0.3119
 1770TIP3    H126725   2.931   1.219  11.865 -0.0942 -0.0525  0.2612
 1770TIP3    H226726   2.976   1.076  11.887  0.2073  0.0992  0.6448
 1771TIP3   OH226727   5.604   0.327  15.126  0.4170 -0.0218  0.5005
 1771TIP3    H126728   5.549   0.386  15.177  1.2333  1.4156 -0.1890
 1771TIP3    H226729   5.580   0.346  15.035 -1.9737 -3.4601  0.2341
 1772TIP3   OH226730   6.212   2.612  14.439 -0.7364  0.1152 -0.1514
 1772TIP3    H126731   6.182   2.523  14.459 -0.7379  0.0247 -0.5535
 1772TIP3    H226732   6.282   2.628  14.503  0.8413 -1.0489 -1.4840
 1773TIP3   OH226733   5.088   3.945   0.812 -0.0729  0.3850 -0.5848
 1773TIP3    H126734   5.081   3.916   0.903  1.5787  1.0648 -0.2142
 1773TIP3    H226735   5.051   3.873   0.762 -0.7594 -0.1252  0.5961
 1774TIP3   OH226736   2.069   3.896  14.172  0.3043  0.2979 -0.6920
 1774TIP3    H126737   2.013   3.897  14.095  0.0891  0.7039 -0.5324
 1774TIP3    H226738   2.114   3.811  14.168  1.7872  1.1133 -2.3123
 1775TIP3   OH226739   3.139   2.658  16.938  0.7259 -0.3631 -0.3625
 1775TIP3    H126740   3.096   2.579  16.970  0.7460 -0.6344 -0.9939
 1775TIP3    H226741   3.097   2.730  16.986  2.0516 -0.8604  1.7133
 1776TIP3   OH226742   5.897   3.467  16.011 -0.0997  0.3327 -0.3236
 1776TIP3    H126743   5.825   3.511  15.965  0.2465  0.3394 -0.8734
 1776TIP3    H226744   5.971   3.475  15.951 -0.1702 -1.5370 -0.7297
 1777TIP3   OH226745   4.309   4.262  14.958  0.0501  0.0440 -0.2758
 1777TIP3    H126746   4.325   4.191  15.020  3.1340  0.1120 -0.7903
 1777TIP3    H226747   4.348   4.230  14.876  0.5614  1.8653 -0.7912
 1778TIP3   OH226748   0.521   3.166  15.523 -0.2792  0.3278 -0.0644
 1778TIP3    H126749   0.560   3.080  15.539  0.2498  0.3405 -1.1993
 1778TIP3    H226750   0.587   3.228  15.553 -0.1109  0.3398 -0.4535
 1779TIP3   OH226751   2.023   2.884   6.044 -0.5296  0.2682  0.0031
 1779TIP3    H126752   2.086   2.914   6.110  0.1981 -1.0585 -0.0582
 1779TIP3    H226753   2.078   2.849   5.973 -1.3171  0.9629 -0.9706
 1780TIP3   OH226754   3.038   3.771   1.002  0.4128  0.3060 -0.0046
 1780TIP3    H126755   2.987   3.746   1.079  0.4938 -0.8839 -0.3106
 1780TIP3    H226756   3.048   3.865   1.009 -0.5205  0.3604  0.8683
 1781TIP3   OH226757   2.979   6.207   0.249 -0.1206  0.3243  0.3567
 1781TIP3    H126758   3.013   6.231   0.163 -0.5630 -0.1568  0.0422
 1781TIP3    H226759   3.015   6.273   0.308  3.0432 -1.2643  0.4211
 1782TIP3   OH226760   3.635   6.736  11.247 -0.3287 -0.0603 -0.1347
 1782TIP3    H126761   3.624   6.803  11.179  2.2984  1.0631  0.4324
 1782TIP3    H226762   3.560   6.749  11.305  0.2601  2.7406  0.1598
 1783TIP3   OH226763   5.879   5.011  13.941 -0.2506 -0.2044 -0.2447
 1783TIP3    H126764   5.957   5.066  13.949 -0.7133  0.7336 -1.6629
 1783TIP3    H226765   5.835   5.044  13.862  0.6687 -4.1114 -2.6790
 1784TIP3   OH226766   3.508   3.134   5.609  0.2510 -0.2482  0.2696
 1784TIP3    H126767   3.427   3.083   5.605 -0.5281  0.8977  0.9489
 1784TIP3    H226768   3.556   3.109   5.529 -1.5657  0.3590 -1.0729
 1785TIP3   OH226769   5.447   3.690   5.040  0.1161  0.6934  0.0599
 1785TIP3    H126770   5.369   3.745   5.054 -0.5848 -0.3651  0.4558
 1785TIP3    H226771   5.435   3.616   5.100 -0.2051 -1.1830 -2.1802
 1786TIP3   OH226772   6.049   1.085   0.879 -0.1280  0.0831 -0.3084
 1786TIP3    H126773   6.000   1.054   0.956 -0.8717 -0.6852 -1.0666
 1786TIP3    H226774   6.134   1.110   0.914 -0.7807  0.7038  0.9290
 1787TIP3   OH226775   5.684   1.125   2.679  0.4696 -0.5745 -0.2764
 1787TIP3    H126776   5.589   1.136   2.685  0.6612  1.5219 -0.2717
 1787TIP3    H226777   5.704   1.135   2.586  0.8532  1.0615 -0.0498
 1788TIP3   OH226778   5.914   1.268  13.816  0.0509 -0.4867  0.1131
 1788TIP3    H126779   5.874   1.308  13.893  0.3846 -0.7320  0.4192
 1788TIP3    H226780   5.991   1.322  13.799 -0.5746  0.1755 -0.6683
 1789TIP3   OH226781   6.138   5.676   2.115 -0.0673  0.5085 -0.5730
 1789TIP3    H126782   6.124   5.582   2.102 -1.6357  0.8283 -1.4695
 1789TIP3    H226783   6.074   5.718   2.058  0.8002  2.1456 -0.4121
 1790TIP3   OH226784   6.420   2.894  11.754  0.9357 -0.0068  0.1156
 1790TIP3    H126785   6.460   2.979  11.774 -0.7967  1.0449 -0.6763
 1790TIP3    H226786   6.444   2.878  11.662  2.4070 -1.0841  0.6482
 1791TIP3   OH226787   3.441   3.111  14.587  0.6019  0.3133  0.3668
 1791TIP3    H126788   3.392   3.126  14.667 -2.2027  0.5247 -1.2490
 1791TIP3    H226789   3.421   3.187  14.532  2.5043  0.2157 -0.5544
 1792TIP3   OH226790   6.120   4.442  12.609 -0.0154  0.7384 -0.2747
 1792TIP3    H126791   6.075   4.383  12.548  0.1130  0.2175  0.1282
 1792TIP3    H226792   6.168   4.502  12.552 -0.6094  0.8240 -0.6990
 1793TIP3   OH226793   3.461   0.415  16.695  0.5118 -0.1132 -0.1076
 1793TIP3    H126794   3.401   0.390  16.624  0.7608 -0.4272 -0.2116
 1793TIP3    H226795   3.422   0.494  16.733 -1.2270 -1.5993  1.3590
 1794TIP3   OH226796   2.213   1.619   1.667 -0.1723 -0.5414  0.3934
 1794TIP3    H126797   2.300   1.604   1.629  0.1821 -0.8297  1.2940
 1794TIP3    H226798   2.228   1.687   1.734 -0.5720 -0.8413  0.7877
 1795TIP3   OH226799   6.800   1.233   5.854 -0.0735  0.2088  0.1965
 1795TIP3    H126800   6.892   1.255   5.865 -0.5402  1.4080  2.0004
 1795TIP3    H226801   6.781   1.170   5.924 -0.2524 -1.4048 -1.2195
 1796TIP3   OH226802   5.565   0.352  11.534  0.1920 -0.4018  0.4575
 1796TIP3    H126803   5.642   0.364  11.589  0.1897 -0.2906  0.4376
 1796TIP3    H226804   5.598   0.314  11.453  0.2398 -0.2566  0.4088
 1797TIP3   OH226805   0.876   0.378   0.541 -0.6493  0.0630  0.1995
 1797TIP3    H126806   0.813   0.438   0.501  0.8401  1.6235  0.1038
 1797TIP3    H226807   0.893   0.312   0.473 -0.9269  0.5784 -0.3826
 1798TIP3   OH226808   2.841   1.720  16.101  0.2321  0.1023 -0.0084
 1798TIP3    H126809   2.775   1.656  16.075  0.7580 -0.6253  0.4217
 1798TIP3    H226810   2.810   1.756  16.184 -1.6563  2.7223 -1.7132
 1799TIP3   OH226811   5.863   3.156   3.569 -0.2540  0.1165 -0.1036
 1799TIP3    H126812   5.954   3.183   3.581  0.6687 -2.7370  0.1781
 1799TIP3    H226813   5.835   3.128   3.656 -2.4554  3.5282  0.4533
 1800TIP3   OH226814   6.288   4.231  15.938  0.4454  0.1022  0.3173
 1800TIP3    H126815   6.248   4.176  15.870  0.0121  0.0400  0.6230
 1800TIP3    H226816   6.336   4.298  15.889  1.4588 -0.8717 -0.0676
 1801TIP3   OH226817   2.692   6.139  14.514  0.2773  0.1681 -0.0076
 1801TIP3    H126818   2.636   6.184  14.450  0.1852  1.2612  0.8147
 1801TIP3    H226819   2.649   6.155  14.598 -0.4000 -2.4502  0.2258
 1802TIP3   OH226820   5.222   3.133  14.456  0.4151  0.0822 -0.3392
 1802TIP3    H126821   5.215   3.039  14.473  0.8299  0.2542  0.8994
 1802TIP3    H226822   5.305   3.158  14.497  1.0815  0.7174 -1.9944
 1803TIP3   OH226823   4.436   2.645   3.861  0.0170  0.1035 -0.2522
 1803TIP3    H126824   4.360   2.610   3.906 -0.8388  0.1363 -1.6150
 1803TIP3    H226825   4.477   2.569   3.819  0.3230  0.1934 -0.1217
 1804TIP3   OH226826   2.029   4.139   4.994  0.1394  0.3860 -0.1109
 1804TIP3    H126827   1.950   4.128   5.049 -0.6386  1.8290 -0.8859
 1804TIP3    H226828   2.101   4.117   5.052 -0.8600 -1.9815  0.3430
 1805TIP3   OH226829   2.873   2.435  15.296 -0.5160  0.1165 -0.0366
 1805TIP3    H126830   2.821   2.387  15.360  0.5866 -1.3353 -0.1710
 1805TIP3    H226831   2.822   2.431  15.215 -1.2740  0.7850  0.3896
 1806TIP3   OH226832   1.243   0.755  14.314 -0.4980 -0.0369 -0.3541
 1806TIP3    H126833   1.224   0.722  14.227 -0.9405  0.9652 -0.6447
 1806TIP3    H226834   1.171   0.813  14.335 -0.0779  0.2249  0.4253
 1807TIP3   OH226835   1.434   6.434  16.657  0.4556  0.2590 -0.0630
 1807TIP3    H126836   1.426   6.424  16.562  2.8793 -1.8483 -0.1342
 1807TIP3    H226837   1.515   6.389  16.680 -0.1176  0.5686  3.0571
 1808TIP3   OH226838   0.662   4.213  12.297 -0.0832  0.2760 -0.0215
 1808TIP3    H126839   0.715   4.136  12.318 -0.2880 -0.1630 -1.0471
 1808TIP3    H226840   0.682   4.232  12.205  1.8668  2.9823  0.8248
 1809TIP3   OH226841   5.657   1.706   3.953  0.0429  0.0500  0.4761
 1809TIP3    H126842   5.616   1.744   4.030  0.9291  2.3404 -0.0943
 1809TIP3    H226843   5.603   1.735   3.880  0.6407  0.0535  0.0290
 1810TIP3   OH226844   6.108   4.305   0.736  0.6314 -0.3545 -0.3992
 1810TIP3    H126845   6.111   4.395   0.769  2.2093 -0.1405 -1.0611
 1810TIP3    H226846   6.178   4.260   0.783  0.8676 -0.8405 -1.2048
 1811TIP3   OH226847   5.781   5.697  15.469 -0.0631  1.0153  0.2199
 1811TIP3    H126848   5.751   5.686  15.559 -0.7889  0.3639 -0.0889
 1811TIP3    H226849   5.710   5.662  15.415  0.8612  0.2785 -0.5622
 1812TIP3   OH226850   1.967   5.797   6.417  0.0663 -0.3108  0.5528
 1812TIP3    H126851   1.913   5.783   6.494 -2.0709  0.5527 -0.6812
 1812TIP3    H226852   1.924   5.869   6.370  1.3993 -0.6353 -1.3120
 1813TIP3   OH226853   2.776   5.674  15.860  0.1825  0.2336 -0.2250
 1813TIP3    H126854   2.841   5.630  15.806  0.8757  0.1785  0.6398
 1813TIP3    H226855   2.751   5.609  15.926 -0.9246  0.1735 -0.6836
 1814TIP3   OH226856   3.997   3.411   1.827  0.1149  0.1415  0.6479
 1814TIP3    H126857   4.012   3.470   1.901 -0.5096  2.8135 -1.1939
 1814TIP3    H226858   3.951   3.466   1.762  2.3810 -1.4205 -2.5258
 1815TIP3   OH226859   3.358   4.760   4.845  0.1209  0.2696 -0.4968
 1815TIP3    H126860   3.379   4.678   4.889 -1.2625 -0.4049 -1.0429
 1815TIP3    H226861   3.323   4.734   4.760 -0.4831  1.4136 -0.6283
 1816TIP3   OH226862   3.309   0.664   4.697 -0.4387 -0.5704 -0.5892
 1816TIP3    H126863   3.355   0.732   4.746  0.2884 -1.6399  0.2535
 1816TIP3    H226864   3.231   0.645   4.749  0.2128 -1.5386  0.0703
 1817TIP3   OH226865   2.013   4.012   4.540  0.3547  0.3219 -0.3793
 1817TIP3    H126866   2.006   4.073   4.613  1.2244  0.0540 -0.0598
 1817TIP3    H226867   2.107   3.994   4.532  0.2114 -0.1615 -1.1414
 1818TIP3   OH226868   5.310   1.527   2.882  0.4218 -0.1505 -0.2883
 1818TIP3    H126869   5.386   1.496   2.931 -0.1401 -0.9777  0.1027
 1818TIP3    H226870   5.275   1.448   2.841 -1.5655 -0.2688  1.4393
 1819TIP3   OH226871   2.816   6.571   2.383 -0.3802 -0.2408 -0.2455
 1819TIP3    H126872   2.804   6.514   2.458  0.7067 -0.3687 -0.1521
 1819TIP3    H226873   2.884   6.529   2.331 -0.5586  0.2519 -0.8928
 1820TIP3   OH226874   1.918   0.089  11.889 -0.1379  0.0860 -0.3669
 1820TIP3    H126875   1.939   0.014  11.833 -2.1888 -1.1161  0.3698
 1820TIP3    H226876   1.987   0.089  11.955  0.8794 -0.0396 -1.3862
 1821TIP3   OH226877   5.036   4.823  12.892  0.1329  0.1540  0.6361
 1821TIP3    H126878   5.118   4.859  12.925  0.3250 -0.4391  0.8300
 1821TIP3    H226879   4.971   4.891  12.909  0.6389  0.7600  0.1910
 1822TIP3   OH226880   2.074   6.695  12.407 -0.7433  0.4398 -0.1780
 1822TIP3    H126881   2.013   6.753  12.361  0.4225  1.3894 -0.5906
 1822TIP3    H226882   2.133   6.664  12.339  0.7068  1.4694  0.5533
 1823TIP3   OH226883   2.074   3.270  11.628  0.2325 -0.3716 -0.4040
 1823TIP3    H126884   2.143   3.335  11.638  0.2253 -0.4649  0.2313
 1823TIP3    H226885   2.095   3.226  11.545 -0.6598  1.5311 -1.7340
 1824TIP3   OH226886   2.965   0.643  17.108 -0.1387  0.2989 -0.4181
 1824TIP3    H126887   3.013   0.562  17.124  1.7314  1.3080 -0.7177
 1824TIP3    H226888   3.032   0.710  17.102 -1.6457  1.9026 -0.1299
 1825TIP3   OH226889   5.435   0.799  15.229  0.4423 -0.2045 -0.8781
 1825TIP3    H126890   5.473   0.827  15.145  1.8783  0.2471 -0.1065
 1825TIP3    H226891   5.502   0.820  15.294 -1.1732  0.7311  0.5884
 1826TIP3   OH226892   5.716   6.291   3.418  0.7779 -0.0742  1.2796
 1826TIP3    H126893   5.810   6.293   3.435  0.8600 -0.1417  0.8592
 1826TIP3    H226894   5.705   6.342   3.338  0.5199 -0.4929  1.0439
 1827TIP3   OH226895   1.832   3.303  15.962  0.3101  0.4935  0.0832
 1827TIP3    H126896   1.797   3.390  15.945  2.0202  0.9434 -1.3841
 1827TIP3    H226897   1.758   3.255  16.000 -1.0733  2.1571 -0.3662
 1828TIP3   OH226898   2.833   6.279   5.822 -0.1952  0.0750  0.0203
 1828TIP3    H126899   2.886   6.305   5.747 -2.0139  1.2283 -0.9641
 1828TIP3    H226900   2.896   6.256   5.890  1.5441 -2.1729 -2.1924
 1829TIP3   OH226901   5.684   1.598  15.176 -0.2520  0.1279 -0.4202
 1829TIP3    H126902   5.628   1.611  15.253  0.2622  0.5799 -0.1145
 1829TIP3    H226903   5.663   1.509  15.146 -0.9330  0.1930 -0.1507
 1830TIP3   OH226904   0.123   3.326   0.337  0.5182  0.4037 -0.0417
 1830TIP3    H126905   0.093   3.417   0.335  0.2669  0.3361 -2.1727
 1830TIP3    H226906   0.192   3.323   0.270  1.7184 -0.6159  1.1913
 1831TIP3   OH226907   1.239   4.007  11.665 -0.3377  0.1874 -0.0839
 1831TIP3    H126908   1.146   3.995  11.648 -0.1388 -0.6991 -0.6206
 1831TIP3    H226909   1.251   4.102  11.672 -1.0135  0.4086 -1.5633
 1832TIP3   OH226910   6.727   6.080   2.734  0.7644  0.0183  0.4972
 1832TIP3    H126911   6.646   6.124   2.762  1.5096  0.2574  2.4678
 1832TIP3    H226912   6.708   5.987   2.746  1.3458  0.1290  2.9152
 1833TIP3   OH226913   6.287   5.282   3.626  0.2028  0.3103  0.1977
 1833TIP3    H126914   6.312   5.261   3.536 -2.3149 -0.5001 -0.4010
 1833TIP3    H226915   6.235   5.362   3.618 -3.2746 -1.7499  0.2617
 1834TIP3   OH226916   2.849   3.356   0.287  0.5274 -0.5925  0.1894
 1834TIP3    H126917   2.882   3.382   0.373 -0.1777  1.7071 -0.1683
 1834TIP3    H226918   2.755   3.342   0.300  0.4882 -0.6394 -0.1269
 1835TIP3   OH226919   4.167   6.733   3.552  0.2907 -0.3869  0.1426
 1835TIP3    H126920   4.188   6.639   3.547 -1.1813 -0.8236  1.4808
 1835TIP3    H226921   4.124   6.744   3.636 -0.8186  1.2459 -0.5851
 1836TIP3   OH226922   3.121   6.597   4.138 -0.2629  0.0424 -0.0559
 1836TIP3    H126923   3.030   6.600   4.168 -0.7225  0.7814 -1.4364
 1836TIP3    H226924   3.115   6.596   4.043  1.1907  0.9329 -0.1883
 1837TIP3   OH226925   1.790   4.576  13.808  0.1228 -0.4394  0.3066
 1837TIP3    H126926   1.791   4.643  13.877 -1.1704 -0.9337  0.8384
 1837TIP3    H226927   1.698   4.554  13.797  0.3473 -0.7257 -1.2667
 1838TIP3   OH226928   1.925   5.063   1.846 -0.0078 -0.1897  0.3221
 1838TIP3    H126929   1.838   5.057   1.807  1.0892  0.2332 -2.4027
 1838TIP3    H226930   1.944   4.974   1.877 -1.5131 -0.2035  1.2926
 1839TIP3   OH226931   0.367   1.352  12.905 -0.1396 -0.0106 -0.0046
 1839TIP3    H126932   0.308   1.318  12.972  0.1925 -0.9696 -0.1855
 1839TIP3    H226933   0.309   1.388  12.837 -0.5190 -0.8311 -0.1239
 1840TIP3   OH226934   2.344   5.413  12.870 -0.6490 -0.2945  0.4681
 1840TIP3    H126935   2.280   5.363  12.819  0.2525 -2.0582  1.0073
 1840TIP3    H226936   2.296   5.437  12.949 -1.6601  1.3730 -0.5711
 1841TIP3   OH226937   4.586   3.541   6.052 -0.1517 -0.0831  0.2512
 1841TIP3    H126938   4.505   3.516   6.098 -0.0391 -0.6102  0.1717
 1841TIP3    H226939   4.609   3.463   6.001 -0.6962  0.7424 -1.3159
 1842TIP3   OH226940   3.446   0.286  12.825  0.1093  0.0178  0.1685
 1842TIP3    H126941   3.420   0.351  12.890  0.9142  0.6180 -0.1057
 1842TIP3    H226942   3.523   0.323  12.783  1.4662 -1.7180  0.9733
 1843TIP3   OH226943   2.647   1.626   5.118 -0.0983 -0.4216 -0.9190
 1843TIP3    H126944   2.563   1.593   5.085 -0.6188  0.4615 -0.5030
 1843TIP3    H226945   2.692   1.657   5.040  0.3282 -1.9277 -1.2956
 1844TIP3   OH226946   3.678   3.632   6.020  0.7054 -0.0029 -0.5392
 1844TIP3    H126947   3.665   3.554   6.074 -0.4672  0.7191  0.2669
 1844TIP3    H226948   3.590   3.668   6.008  1.2807  1.5124 -0.4046
 1845TIP3   OH226949   4.602   4.558  15.274 -0.0539  0.2585  0.3120
 1845TIP3    H126950   4.574   4.476  15.234  0.9182  0.5809 -1.1192
 1845TIP3    H226951   4.541   4.623  15.241  0.5502  0.4699 -0.4240
 1846TIP3   OH226952   5.173   4.363   2.844 -0.1701  0.1715 -0.0016
 1846TIP3    H126953   5.256   4.321   2.821  0.6435  2.2987 -1.3324
 1846TIP3    H226954   5.119   4.293   2.879  2.3406 -1.2289  1.3754
 1847TIP3   OH226955   3.253   3.792   1.416  0.1989 -0.3085 -0.2447
 1847TIP3    H126956   3.297   3.708   1.407  0.9926  0.2865 -2.7638
 1847TIP3    H226957   3.165   3.771   1.448 -0.5433 -2.4124 -3.3241
 1848TIP3   OH226958   6.046   2.416   2.596 -0.7662 -0.0455 -0.0395
 1848TIP3    H126959   5.956   2.446   2.608 -1.3175 -1.2427 -1.0521
 1848TIP3    H226960   6.060   2.352   2.666 -0.9787 -0.4432 -0.3562
 1849TIP3   OH226961   0.244   1.406   2.525 -0.0084  0.0921  0.5533
 1849TIP3    H126962   0.262   1.395   2.432  0.3983  0.0592  0.6362
 1849TIP3    H226963   0.260   1.320   2.563 -0.1265  0.1186  0.6657
 1850TIP3   OH226964   0.789   4.233   4.437  0.2897 -0.1675 -0.9893
 1850TIP3    H126965   0.821   4.242   4.348  1.5528 -2.7032 -0.8813
 1850TIP3    H226966   0.720   4.167   4.432 -0.5147  0.5794 -0.2409
 1851TIP3   OH226967   3.722   1.823  11.043 -0.3192  0.1990  0.2796
 1851TIP3    H126968   3.670   1.778  11.109 -0.7108 -0.8369 -0.6998
 1851TIP3    H226969   3.658   1.870  10.989 -0.1083  0.1368 -0.0294
 1852TIP3   OH226970   0.590   1.189  16.704  0.2521  0.1155  0.1766
 1852TIP3    H126971   0.579   1.117  16.765  0.9963  0.2352  0.4649
 1852TIP3    H226972   0.684   1.209  16.706  0.0951  0.9404 -0.0642
 1853TIP3   OH226973   2.189   6.345  16.928 -0.3346 -0.5311 -0.5960
 1853TIP3    H126974   2.127   6.324  16.858 -1.2907  1.1719 -0.3196
 1853TIP3    H226975   2.142   6.407  16.984  1.5485  0.6693 -0.2491
 1854TIP3   OH226976   4.840   4.254  12.943  0.3306 -0.0532 -0.7273
 1854TIP3    H126977   4.814   4.174  12.989  2.8998 -1.7161 -1.9393
 1854TIP3    H226978   4.770   4.317  12.963 -2.2112 -2.7750 -0.2996
 1855TIP3   OH226979   6.245   2.276   3.164  0.5498 -0.0413 -0.0999
 1855TIP3    H126980   6.249   2.188   3.201 -0.1390 -0.6937 -1.5030
 1855TIP3    H226981   6.152   2.294   3.153  0.5961  1.4750  1.4797
 1856TIP3   OH226982   1.822   4.839  14.871 -0.1656 -0.0812  0.2214
 1856TIP3    H126983   1.856   4.907  14.813  1.8545 -1.3271 -0.1510
 1856TIP3    H226984   1.737   4.816  14.834  0.5680 -0.0284 -1.6043
 1857TIP3   OH226985   6.321   2.427   2.498 -0.4311  0.3114 -0.2720
 1857TIP3    H126986   6.233   2.452   2.526 -0.6292 -0.2700 -0.3635
 1857TIP3    H226987   6.334   2.340   2.536  0.5976  0.9063  0.8128
 1858TIP3   OH226988   1.278   3.684   0.860 -0.4232  0.0117 -0.3220
 1858TIP3    H126989   1.277   3.669   0.955  2.1124  1.7751  0.0664
 1858TIP3    H226990   1.335   3.615   0.826 -1.1134 -0.4542 -0.5505
 1859TIP3   OH226991   6.269   3.430   1.297 -0.3513 -0.1467  0.1662
 1859TIP3    H126992   6.294   3.399   1.210  0.0583  3.1389 -1.0154
 1859TIP3    H226993   6.205   3.499   1.281 -1.0116 -0.1190  2.5498
 1860TIP3   OH226994   5.340   5.862   0.779 -0.0028  0.3467  0.0066
 1860TIP3    H126995   5.293   5.924   0.724 -0.0403  0.0862 -0.2578
 1860TIP3    H226996   5.396   5.916   0.835  0.6886  0.5741 -0.8862
 1861TIP3   OH226997   4.448   4.935   0.208  0.5642 -0.4322  0.3368
 1861TIP3    H126998   4.441   4.932   0.112 -0.0543 -0.4564  0.3786
 1861TIP3    H226999   4.430   4.845   0.235 -1.8352  0.0767  0.6231
 1862TIP3   OH227000   5.050   5.131   0.599 -0.2919  0.1565  0.2578
 1862TIP3    H127001   4.999   5.053   0.622 -0.4459 -0.2532 -1.3368
 1862TIP3    H227002   5.103   5.149   0.677 -0.6250 -1.2392  0.8401
 1863TIP3   OH227003   5.460   1.392   3.529  0.0735 -1.1391  0.4481
 1863TIP3    H127004   5.503   1.388   3.615  1.1348  0.4041  0.0309
 1863TIP3    H227005   5.368   1.408   3.550  0.0961 -2.0360  1.3175
 1864TIP3   OH227006   0.694   0.552   0.055 -0.1664  0.0504  0.7210
 1864TIP3    H127007   0.765   0.557  -0.008 -0.5971  1.9182  0.3279
 1864TIP3    H227008   0.737   0.558   0.140  0.2662 -0.7503  0.5754
 1865TIP3   OH227009   2.143   1.706  16.637  0.2339  0.4477  0.0762
 1865TIP3    H127010   2.236   1.713  16.616  0.9066 -1.7926  1.8702
 1865TIP3    H227011   2.139   1.715  16.732 -1.6128  1.8681 -0.0682
 1866TIP3   OH227012   3.480   5.480  12.146 -0.0314 -0.9712  0.3991
 1866TIP3    H127013   3.441   5.562  12.117  1.4951 -0.7398 -1.1718
 1866TIP3    H227014   3.409   5.435  12.193 -1.5939  0.2113 -0.7201
 1867TIP3   OH227015   6.179   4.530  14.218 -0.1190 -0.4289  0.6354
 1867TIP3    H127016   6.126   4.552  14.141 -0.2310 -2.2369  0.1539
 1867TIP3    H227017   6.119   4.486  14.278  0.5462 -1.4476  0.5855
 1868TIP3   OH227018   5.118   4.620   5.292  0.5270  0.0673 -0.3334
 1868TIP3    H127019   5.206   4.634   5.259  1.0664 -1.2163  0.4799
 1868TIP3    H227020   5.105   4.525   5.286  0.4114 -0.1773  2.3949
 1869TIP3   OH227021   1.084   1.607   3.116  0.2172  0.1061  0.7717
 1869TIP3    H127022   0.991   1.586   3.120  0.1796 -0.0143 -0.5176
 1869TIP3    H227023   1.096   1.647   3.030  1.7261 -1.7587  0.0619
 1870TIP3   OH227024   4.496   3.972  15.559  0.1592 -0.5227  0.3398
 1870TIP3    H127025   4.521   4.003  15.646  0.1195  0.5254 -0.0034
 1870TIP3    H227026   4.401   3.986  15.555  0.2722  0.1259 -0.1344
 1871TIP3   OH227027   1.410   4.437   4.102  0.4675  0.3777 -0.3671
 1871TIP3    H127028   1.432   4.345   4.114 -1.5941 -0.6320 -3.3308
 1871TIP3    H227029   1.339   4.453   4.164 -0.0553 -0.4202 -0.7466
 1872TIP3   OH227030   1.352   2.059  16.685  0.3130 -0.3481 -0.0242
 1872TIP3    H127031   1.291   1.991  16.654 -1.4033  0.7545  0.7808
 1872TIP3    H227032   1.303   2.141  16.676  1.6206  0.5665  0.8633
 1873TIP3   OH227033   0.532   6.086  13.361 -0.3420  0.9085  0.0005
 1873TIP3    H127034   0.467   6.018  13.344 -0.3574  0.8968  0.1086
 1873TIP3    H227035   0.569   6.105  13.275 -0.4144  0.8408 -0.0456
 1874TIP3   OH227036   5.239   2.337   3.691  0.2907 -0.0983 -0.0322
 1874TIP3    H127037   5.242   2.431   3.676  0.0977  0.1649  1.4562
 1874TIP3    H227038   5.265   2.326   3.782 -1.3702 -1.3267  0.3522
 1875TIP3   OH227039   3.984   6.351   2.492  0.2350  0.4361  0.6641
 1875TIP3    H127040   4.028   6.306   2.564 -0.3878 -0.4007  0.5436
 1875TIP3    H227041   4.018   6.440   2.494 -0.0890  0.5553  2.2670
 1876TIP3   OH227042   0.661   5.139  11.485 -0.6158  0.6988  0.3436
 1876TIP3    H127043   0.648   5.074  11.417 -1.7211 -0.8129  1.9063
 1876TIP3    H227044   0.756   5.137  11.503  0.0527  2.5567 -2.3917
 1877TIP3   OH227045   6.070   6.547  17.179 -0.0763  0.3612 -0.1256
 1877TIP3    H127046   6.142   6.562  17.240  0.5036  0.6654 -0.8780
 1877TIP3    H227047   6.020   6.628  17.181  0.1958  0.5369 -0.3876
 1878TIP3   OH227048   2.043   3.616   4.163  0.2734 -0.3669 -0.7005
 1878TIP3    H127049   2.098   3.653   4.094 -0.5423 -0.3251 -1.3375
 1878TIP3    H227050   1.957   3.657   4.151 -0.0094 -0.7044  0.0541
 1879TIP3   OH227051   2.609   5.626  13.044 -0.3243 -0.8312 -0.0679
 1879TIP3    H127052   2.579   5.713  13.070 -2.3972 -1.9302  1.5526
 1879TIP3    H227053   2.697   5.619  13.081 -0.2010  0.4892 -0.0497
 1880TIP3   OH227054   2.885   6.770  16.604 -0.1592 -0.2388  0.3049
 1880TIP3    H127055   2.930   6.831  16.546 -0.1652  0.3988  0.9563
 1880TIP3    H227056   2.846   6.825  16.672 -2.3384 -0.7123 -0.4745
 1881TIP3   OH227057   1.188   3.590  12.248 -0.0306  0.2060 -0.0547
 1881TIP3    H127058   1.216   3.618  12.160  1.5392  2.4663  1.0537
 1881TIP3    H227059   1.106   3.636  12.263  0.6323  1.3161  0.3104
 1882TIP3   OH227060   3.310   2.211  10.833  0.4581  0.0138  0.2934
 1882TIP3    H127061   3.288   2.135  10.779  2.8584  0.3611 -1.3100
 1882TIP3    H227062   3.405   2.216  10.830  0.5171  1.6061  2.5004
 1883TIP3   OH227063   4.288   5.542   2.972 -0.4232  0.3283 -0.0569
 1883TIP3    H127064   4.244   5.618   2.934  1.5125  1.0183 -1.0810
 1883TIP3    H227065   4.378   5.572   2.987 -0.3393 -0.8829  2.3380
 1884TIP3   OH227066   1.306   5.330  13.460  0.1773  0.1221  0.3601
 1884TIP3    H127067   1.292   5.238  13.438  0.7633 -0.0576  0.7219
 1884TIP3    H227068   1.335   5.371  13.379 -0.4603  0.0778  0.1010
 1885TIP3   OH227069   3.354   5.084  16.107 -0.0495 -0.3567  0.4425
 1885TIP3    H127070   3.276   5.085  16.163 -1.0172 -1.5943 -0.8029
 1885TIP3    H227071   3.371   5.176  16.087 -2.7344 -0.1114 -1.2366
 1886TIP3   OH227072   5.153   5.624  17.193  0.1168 -0.0685 -0.3069
 1886TIP3    H127073   5.065   5.598  17.222 -0.3177  1.7670  0.1546
 1886TIP3    H227074   5.212   5.563  17.236 -0.6611  1.1417  2.7532
 1887TIP3   OH227075   1.694   1.970   2.008 -0.2807  0.3204 -0.4422
 1887TIP3    H127076   1.658   2.039   1.953  0.2193  0.1738 -0.9693
 1887TIP3    H227077   1.751   2.016   2.070  0.9174  0.3195 -1.4875
 1888TIP3   OH227078   3.465   5.999  13.411  0.1546  0.0398  0.1061
 1888TIP3    H127079   3.461   5.970  13.320  0.3151 -0.8347  0.3642
 1888TIP3    H227080   3.374   5.996  13.441  0.0405  0.7742 -0.1527
 1889TIP3   OH227081   3.043   6.697   5.148  0.1070 -0.0272  0.3246
 1889TIP3    H127082   2.996   6.780   5.156  1.6787  1.2294 -2.2578
 1889TIP3    H227083   2.981   6.638   5.106 -1.4184 -0.6370  3.1864
 1890TIP3   OH227084   2.011   3.491   2.848 -0.5505  0.0482  0.3437
 1890TIP3    H127085   2.035   3.433   2.775 -1.2979 -0.3417  0.3957
 1890TIP3    H227086   1.976   3.432   2.915 -2.7291  0.6619 -0.1832
 1891TIP3   OH227087   1.955   2.242   0.925 -0.2631  0.3832 -0.0940
 1891TIP3    H127088   2.008   2.236   1.005  2.0656  1.1234 -1.5031
 1891TIP3    H227089   1.945   2.336   0.909 -3.5497  0.3641  0.9938
 1892TIP3   OH227090   4.197   5.388  16.792  0.1557  0.1778  0.6819
 1892TIP3    H127091   4.262   5.345  16.848  0.8535 -2.5976 -2.0317
 1892TIP3    H227092   4.229   5.478  16.783  3.0233 -0.7970  0.3625
 1893TIP3   OH227093   1.108   4.929   4.877  0.4460 -0.0474  0.8246
 1893TIP3    H127094   1.162   4.984   4.934 -0.2333  1.5881 -0.0502
 1893TIP3    H227095   1.069   4.990   4.815 -2.1364 -1.1813  1.1969
 1894TIP3   OH227096   5.224   0.044   2.564  0.4713  0.2683  0.0058
 1894TIP3    H127097   5.307   0.088   2.547 -0.3348  1.5779 -0.7387
 1894TIP3    H227098   5.225  -0.031   2.505  0.6869  0.8846 -0.8040
 1895TIP3   OH227099   4.888   5.949   0.865 -0.0490 -0.1176 -0.2841
 1895TIP3    H127100   4.906   6.043   0.871 -0.6969  0.1522 -1.9541
 1895TIP3    H227101   4.937   5.911   0.938  2.9274  1.1382 -1.4614
 1896TIP3   OH227102   2.246   2.065  17.099  0.5088  0.0445 -0.4492
 1896TIP3    H127103   2.269   2.155  17.074 -1.5033  1.0384  0.9841
 1896TIP3    H227104   2.151   2.067  17.108  0.6922 -1.2837  3.0373
 1897TIP3   OH227105   3.531   3.389   0.046 -0.2390  0.1055 -0.1487
 1897TIP3    H127106   3.500   3.305   0.079 -0.5734 -0.1777 -1.1466
 1897TIP3    H227107   3.592   3.420   0.113 -0.6690 -0.5811  0.5774
 1898TIP3   OH227108   3.808   6.349  14.251  0.2938  0.1208  0.4345
 1898TIP3    H127109   3.831   6.344  14.158  0.2565  1.2995  0.3515
 1898TIP3    H227110   3.717   6.378  14.252  0.1573 -0.3044  0.8390
 1899TIP3   OH227111   3.598   5.442   0.020 -0.1886 -0.6757  0.0858
 1899TIP3    H127112   3.681   5.477   0.052  0.2593 -1.1041 -0.5743
 1899TIP3    H227113   3.585   5.362   0.071  1.2552 -2.1529 -1.6820
 1900TIP3   OH227114   2.674   4.054   0.917 -0.3332 -0.3052 -0.8828
 1900TIP3    H127115   2.615   3.979   0.912 -0.7275  0.0604 -2.8899
 1900TIP3    H227116   2.636   4.118   0.856  2.0602  0.0024 -2.1636
 1901TIP3   OH227117   2.278   5.684   4.839  0.5250  0.4283 -0.6310
 1901TIP3    H127118   2.293   5.740   4.915  1.4405  0.5353 -0.8827
 1901TIP3    H227119   2.283   5.743   4.764 -0.1243  0.2805 -0.7983
 1902TIP3   OH227120   6.004   3.311   5.652  0.0529  0.9885  0.4510
 1902TIP3    H127121   6.087   3.286   5.691  0.5999  2.9394  0.6397
 1902TIP3    H227122   5.985   3.397   5.688 -1.6401  0.9508 -0.2412
 1903TIP3   OH227123   0.060   2.716  12.401 -0.4416 -0.5247  0.0552
 1903TIP3    H127124   0.047   2.662  12.479  1.4241 -0.0550  0.7394
 1903TIP3    H227125   0.116   2.788  12.430 -2.0829  1.2965 -1.0640
 1904TIP3   OH227126   3.285   6.376   5.478 -0.1342 -0.4854 -0.0745
 1904TIP3    H127127   3.340   6.398   5.403 -0.3867  1.3088  0.2256
 1904TIP3    H227128   3.326   6.421   5.552 -0.7950 -0.8977  0.5577
 1905TIP3   OH227129   3.502   2.870  16.839 -0.5428 -0.1444 -0.1334
 1905TIP3    H127130   3.591   2.845  16.815 -0.8577 -0.8662 -0.5755
 1905TIP3    H227131   3.507   2.895  16.931  0.3904  1.1771 -0.5137
 1906TIP3   OH227132   2.037   5.652  17.125 -0.8253  0.1623  0.4018
 1906TIP3    H127133   2.011   5.705  17.050 -0.0189  0.2122  0.1495
 1906TIP3    H227134   1.954   5.627  17.167 -1.2542  0.6313 -0.1552
 1907TIP3   OH227135   5.946   1.559  10.655 -0.1634  0.2444 -0.1134
 1907TIP3    H127136   6.018   1.591  10.600 -0.7713 -0.2394 -1.2432
 1907TIP3    H227137   5.989   1.514  10.727  0.7628 -2.1617 -2.0061
 1908TIP3   OH227138   0.415   6.207   0.955  0.5945 -0.0458  0.7300
 1908TIP3    H127139   0.491   6.185   0.902  0.9297  1.2376  0.6343
 1908TIP3    H227140   0.398   6.128   1.007  3.1961  0.2330  2.1896
 1909TIP3   OH227141   3.980   0.838   6.202  0.6232 -0.3622 -0.5212
 1909TIP3    H127142   3.890   0.822   6.230  1.3094 -0.1043  2.1716
 1909TIP3    H227143   4.016   0.751   6.186  0.7358 -0.7517  1.5436
 1910TIP3   OH227144   2.076   1.184   4.212 -0.4109 -0.0540  0.4083
 1910TIP3    H127145   2.096   1.100   4.253 -0.7267 -0.0067  0.6665
 1910TIP3    H227146   2.111   1.250   4.272 -0.2869  0.0002  0.2754
 1911TIP3   OH227147   6.314   6.057  14.152  0.0559  0.7928  0.5218
 1911TIP3    H127148   6.236   6.081  14.102  1.0283  1.5738 -0.6972
 1911TIP3    H227149   6.298   5.967  14.180 -0.6584  0.4162 -1.0078
 1912TIP3   OH227150   5.718   1.390  15.415 -0.4497 -0.6703 -0.3792
 1912TIP3    H127151   5.703   1.374  15.321  0.3898  2.0138 -1.0633
 1912TIP3    H227152   5.802   1.348  15.433 -0.8070 -1.5554 -0.7158
 1913TIP3   OH227153   0.406   0.088  14.112  0.4300  0.0951  0.4945
 1913TIP3    H127154   0.393   0.074  14.206 -1.0340 -1.0807  0.1646
 1913TIP3    H227155   0.435   0.003  14.079 -1.6709 -0.3290 -0.4759
 1914TIP3   OH227156   2.649   6.353   1.155 -0.4971  0.0849 -0.6751
 1914TIP3    H127157   2.649   6.448   1.169 -2.7029  0.0803 -0.2916
 1914TIP3    H227158   2.560   6.334   1.125 -0.2376 -1.9335 -0.2735
 1915TIP3   OH227159   3.355   6.064  11.120 -0.2066  0.1087  0.3337
 1915TIP3    H127160   3.320   6.036  11.035 -0.2283  1.5203 -0.1407
 1915TIP3    H227161   3.448   6.080  11.104 -0.2813  0.7029  0.4973
 1916TIP3   OH227162   2.660   3.900  14.792  0.1280  0.3614 -0.3926
 1916TIP3    H127163   2.731   3.841  14.819  2.1638  3.0294  0.5089
 1916TIP3    H227164   2.599   3.899  14.865  2.1051  2.1797  1.4277
 1917TIP3   OH227165   1.557   1.673   3.935  0.1943  0.0360  0.9965
 1917TIP3    H127166   1.557   1.758   3.978  0.4011 -0.2418  1.5495
 1917TIP3    H227167   1.466   1.660   3.906 -0.2441 -0.3394  2.4778
 1918TIP3   OH227168   5.679   0.907   2.017 -0.7404  0.3155  0.0023
 1918TIP3    H127169   5.715   0.824   2.050 -1.3283  0.3034  0.6379
 1918TIP3    H227170   5.671   0.894   1.922 -1.1200 -0.4690  0.1355
 1919TIP3   OH227171   1.456   6.316   2.854  0.1163  0.0903 -0.0209
 1919TIP3    H127172   1.548   6.292   2.865  0.0227 -0.0700  0.4134
 1919TIP3    H227173   1.450   6.347   2.763  0.8239  1.1017  0.2549
 1920TIP3   OH227174   5.592   5.885  15.001  0.2179  0.3359 -0.1914
 1920TIP3    H127175   5.644   5.878  14.920 -1.5816 -0.1900 -1.3683
 1920TIP3    H227176   5.598   5.798  15.040  0.2389  0.2852 -0.3061
 1921TIP3   OH227177   0.803   4.547  13.989  0.0452 -0.0090  0.0117
 1921TIP3    H127178   0.874   4.606  14.015 -0.5982  0.4664  0.7251
 1921TIP3    H227179   0.823   4.464  14.033 -0.5397  0.5182  1.3116
 1922TIP3   OH227180   2.558   0.052  16.424 -0.1928  0.1170  0.3108
 1922TIP3    H127181   2.639   0.076  16.379 -0.5473  0.4870 -0.1483
 1922TIP3    H227182   2.511   0.135  16.434 -0.2548 -0.0045  1.1136
 1923TIP3   OH227183   5.172   1.877  12.322  0.0284 -0.6447  0.1564
 1923TIP3    H127184   5.265   1.853  12.322  0.4468  0.8924  0.2416
 1923TIP3    H227185   5.172   1.972  12.334 -1.4507 -0.1812 -2.7385
 1924TIP3   OH227186   3.473   1.956  12.269  0.2144  0.1232 -0.3654
 1924TIP3    H127187   3.486   1.861  12.269 -0.8522 -0.1792  3.0542
 1924TIP3    H227188   3.386   1.968  12.232  0.5236 -0.1508 -1.2133
 1925TIP3   OH227189   4.104   3.723  10.601  0.1804 -0.4173  0.8312
 1925TIP3    H127190   4.018   3.763  10.589  0.2019 -0.4264  0.6547
 1925TIP3    H227191   4.087   3.642  10.650 -0.2462 -1.9024 -1.6212
 1926TIP3   OH227192   4.072   0.543  15.116 -0.3126  0.7024 -0.3396
 1926TIP3    H127193   4.019   0.605  15.066 -0.5923 -0.1721 -1.1702
 1926TIP3    H227194   4.008   0.491  15.164 -0.2200 -0.1810 -1.1406
 1927TIP3   OH227195   6.473   2.801  12.188 -0.1377  0.5694  0.5025
 1927TIP3    H127196   6.562   2.824  12.163 -0.7816  0.3996 -2.3567
 1927TIP3    H227197   6.472   2.705  12.190 -0.3943  0.5494 -0.2042
 1928TIP3   OH227198   1.862   2.130   0.572 -0.2297  0.2713  0.5945
 1928TIP3    H127199   1.801   2.203   0.568  1.1664  1.4734  0.1603
 1928TIP3    H227200   1.836   2.072   0.501 -0.1283  1.3832 -0.3700
 1929TIP3   OH227201   1.781   6.422   5.393 -0.2812  0.2399  0.0994
 1929TIP3    H127202   1.824   6.368   5.459  0.6835  1.0084  0.1230
 1929TIP3    H227203   1.843   6.426   5.321 -0.3208  1.3340  0.1139
 1930TIP3   OH227204   0.962   1.822  12.812  0.6886  0.0094 -0.0185
 1930TIP3    H127205   0.946   1.850  12.902  1.0312 -0.6359  0.2499
 1930TIP3    H227206   1.041   1.768  12.818  0.4259 -0.4428 -0.6311
 1931TIP3   OH227207   5.677   6.255  12.382  0.0485 -0.6855  0.0627
 1931TIP3    H127208   5.695   6.229  12.472 -0.5957 -0.7472  0.1743
 1931TIP3    H227209   5.752   6.222  12.332  0.9017  0.1982  0.7113
 1932TIP3   OH227210   3.750   3.063  14.731 -0.5294  0.1008 -0.1450
 1932TIP3    H127211   3.708   3.054  14.646 -0.0787  0.5901 -0.4278
 1932TIP3    H227212   3.830   3.114  14.713  0.0816 -0.6415  0.4063
 1933TIP3   OH227213   0.242   0.094  12.834 -0.0827  0.0494 -0.4387
 1933TIP3    H127214   0.181   0.025  12.861 -1.0120  0.9663 -0.1272
 1933TIP3    H227215   0.197   0.175  12.856  1.8402  0.7622  1.0442
 1934TIP3   OH227216   0.878   6.527  11.367  0.0875  0.4591  0.3933
 1934TIP3    H127217   0.924   6.463  11.422  1.8899  0.7890 -0.6421
 1934TIP3    H227218   0.907   6.612  11.400 -0.2065  0.6821  0.0762
 1935TIP3   OH227219   5.532   4.291   2.436 -0.2854 -0.0455 -0.4784
 1935TIP3    H127220   5.488   4.208   2.455  0.4555 -0.4979 -0.7283
 1935TIP3    H227221   5.597   4.270   2.370 -0.5628  0.8792 -1.0612
 1936TIP3   OH227222   5.200   1.926   3.928  0.0253  0.1747 -0.0110
 1936TIP3    H127223   5.294   1.932   3.908 -0.2571  0.7882 -1.2825
 1936TIP3    H227224   5.161   1.895   3.846 -0.7979 -0.9025  0.7670
 1937TIP3   OH227225   2.458   2.816  12.865 -0.7396 -0.3047 -0.1491
 1937TIP3    H127226   2.507   2.734  12.862 -1.9281 -1.0047 -1.0183
 1937TIP3    H227227   2.490   2.865  12.789 -2.3468 -1.3604 -1.5686
 1938TIP3   OH227228   4.051   1.081  11.275 -0.5395  0.0797  0.1416
 1938TIP3    H127229   4.091   1.098  11.190  0.3385  0.6589  0.6559
 1938TIP3    H227230   3.990   1.009  11.259  2.0352 -2.1555 -0.3119
 1939TIP3   OH227231   4.461   4.074  15.823  0.0705 -0.0268 -0.4324
 1939TIP3    H127232   4.523   4.105  15.888 -2.1321  0.0047  1.8176
 1939TIP3    H227233   4.419   3.998  15.863  1.1560 -2.4045 -3.3929
 1940TIP3   OH227234   6.164   2.908  12.283 -1.0367 -0.2063 -0.0274
 1940TIP3    H127235   6.221   2.862  12.345  0.0235 -0.0522 -0.8660
 1940TIP3    H227236   6.224   2.951  12.222 -2.0576 -0.4208 -1.2273
 1941TIP3   OH227237   5.621   3.086   1.256  0.0566 -0.2550 -0.4291
 1941TIP3    H127238   5.630   3.067   1.163  0.0506 -2.4068 -0.0360
 1941TIP3    H227239   5.567   3.014   1.290  1.0589 -0.1717  1.4476
 1942TIP3   OH227240   4.094   3.420  12.218 -0.4457 -0.2910  0.1244
 1942TIP3    H127241   4.071   3.445  12.308 -0.6484 -2.2225  0.6521
 1942TIP3    H227242   4.162   3.482  12.193 -1.4597  1.2493  1.0374
 1943TIP3   OH227243   2.651   1.868  11.306 -0.1590 -0.1185 -0.5950
 1943TIP3    H127244   2.710   1.919  11.250  0.3126 -0.6286 -0.5699
 1943TIP3    H227245   2.703   1.792  11.332 -1.0692 -0.9730 -1.1885
 1944TIP3   OH227246   4.410   0.287  12.042  0.0983 -0.4566  1.0742
 1944TIP3    H127247   4.338   0.284  11.980 -0.0155  3.4836  0.7512
 1944TIP3    H227248   4.371   0.265  12.127 -0.3838 -2.9225  0.2668
 1945TIP3   OH227249   0.585   4.696  14.425  0.1031  0.0130  0.5548
 1945TIP3    H127250   0.508   4.645  14.401  1.0341 -1.0299 -0.2979
 1945TIP3    H227251   0.613   4.660  14.509 -1.1412  1.3554  1.5903
 1946TIP3   OH227252   1.635   0.035  13.900  0.3208 -0.1247  0.1790
 1946TIP3    H127253   1.629   0.128  13.921  0.6861 -0.1717  0.5197
 1946TIP3    H227254   1.662   0.033  13.808  1.8614  0.1431  0.5829
 1947TIP3   OH227255   6.397   3.167  16.547 -0.0973 -0.5113 -0.1246
 1947TIP3    H127256   6.368   3.165  16.456 -2.3456 -0.7620  0.5293
 1947TIP3    H227257   6.483   3.125  16.546 -0.7016 -1.8334 -1.9382
 1948TIP3   OH227258   6.381   1.845   4.441  0.1575 -0.0052 -0.0409
 1948TIP3    H127259   6.446   1.907   4.475 -1.0024  2.1197 -1.4737
 1948TIP3    H227260   6.328   1.822   4.517  0.4143  1.0709  0.4911
 1949TIP3   OH227261   1.722   4.582  15.330  0.4486  0.3148  0.0967
 1949TIP3    H127262   1.728   4.496  15.371 -3.5374 -0.2974 -0.1868
 1949TIP3    H227263   1.773   4.573  15.249  1.8251 -1.0475  1.0545
 1950TIP3   OH227264   1.918   3.398  14.919  0.1680 -0.2185 -0.3667
 1950TIP3    H127265   2.013   3.402  14.907  0.0000 -0.4316 -2.0937
 1950TIP3    H227266   1.893   3.317  14.874 -0.8376 -0.1638  0.0842
 1951TIP3   OH227267   2.281   5.756   0.003 -0.1298 -0.1537 -0.3250
 1951TIP3    H127268   2.270   5.754   0.098  2.0549  2.5853  0.1049
 1951TIP3    H227269   2.191   5.748  -0.031 -1.3830  2.0383  2.1133
 1952TIP3   OH227270   3.350   2.468  10.899 -0.3323  0.5543 -0.7073
 1952TIP3    H127271   3.262   2.489  10.869 -1.2657 -0.6607  0.9982
 1952TIP3    H227272   3.365   2.378  10.870  0.2908  0.7013 -0.8607
 1953TIP3   OH227273   6.105   3.927  12.214 -0.3808  0.1906 -0.1718
 1953TIP3    H127274   6.109   3.837  12.180 -0.6274  0.6916 -1.5973
 1953TIP3    H227275   6.184   3.935  12.268  1.0289 -0.1311 -2.0633
 1954TIP3   OH227276   0.504   1.237   2.152 -0.2784 -0.3485 -0.5865
 1954TIP3    H127277   0.520   1.153   2.109  0.4333 -0.1837 -0.6595
 1954TIP3    H227278   0.545   1.301   2.094  0.2766 -0.0784  0.0907
 1955TIP3   OH227279   0.355   6.452  11.073  0.5702 -0.1146  0.1691
 1955TIP3    H127280   0.297   6.376  11.063  0.1137  0.3793 -1.0814
 1955TIP3    H227281   0.383   6.448  11.164 -1.1459 -0.5815  0.7179
 1956TIP3   OH227282   3.900   5.367   3.269 -0.3067 -0.7501 -0.3908
 1956TIP3    H127283   3.946   5.373   3.185 -0.8054 -2.1943 -0.7875
 1956TIP3    H227284   3.846   5.446   3.271 -0.0913 -0.5614 -1.3029
 1957TIP3   OH227285   5.771   6.176  14.506 -0.2934 -0.3211  0.3184
 1957TIP3    H127286   5.697   6.176  14.446 -0.1723  1.6308  0.0934
 1957TIP3    H227287   5.773   6.265  14.542  2.4472  0.0083 -0.3731
 1958TIP3   OH227288   5.016   5.124  17.033 -0.0792  0.4072 -0.2177
 1958TIP3    H127289   5.025   5.191  16.966 -1.3306  0.5912 -0.2258
 1958TIP3    H227290   4.949   5.158  17.092 -1.3391 -1.1427 -0.6691
 1959TIP3   OH227291   5.875   6.551   1.156 -0.3789  0.0592 -0.2922
 1959TIP3    H127292   5.814   6.517   1.222  0.5604  0.0375  0.5771
 1959TIP3    H227293   5.929   6.614   1.203  1.4486 -1.2133 -0.6134
 1960TIP3   OH227294   2.500   3.463  16.069  0.4356 -0.0574 -0.9449
 1960TIP3    H127295   2.407   3.477  16.051  0.2875  1.2534  0.6133
 1960TIP3    H227296   2.544   3.488  15.987 -0.5150  0.0502 -1.4425
 1961TIP3   OH227297   0.354   0.462   3.427 -0.3452 -0.1757 -0.7138
 1961TIP3    H127298   0.259   0.465   3.435 -0.4278 -1.8905 -0.6546
 1961TIP3    H227299   0.386   0.508   3.505 -1.1571 -1.8190  0.6652
 1962TIP3   OH227300   5.535   5.144  14.399 -0.4030  0.1273 -0.1781
 1962TIP3    H127301   5.505   5.185  14.318  1.2295  0.6347 -0.5599
 1962TIP3    H227302   5.523   5.212  14.466 -0.1045  0.3321 -0.3297
 1963TIP3   OH227303   2.963   1.979  14.317 -0.0235 -0.0743 -0.3097
 1963TIP3    H127304   3.007   2.053  14.358 -2.9271 -0.0163  3.2055
 1963TIP3    H227305   2.947   2.008  14.227  2.1986  1.9683 -0.1574
 1964TIP3   OH227306   2.324   2.956   2.459 -0.0367 -0.3302 -0.2288
 1964TIP3    H127307   2.408   2.921   2.488  0.6848  1.0336 -0.5593
 1964TIP3    H227308   2.342   2.996   2.374 -1.0812 -0.2570 -0.4345
 1965TIP3   OH227309   2.094   2.697  13.096 -0.5888 -0.4287 -0.1367
 1965TIP3    H127310   2.055   2.662  13.176  1.0191  0.3950  1.0490
 1965TIP3    H227311   2.133   2.621  13.053 -0.3778 -0.6878  0.4991
 1966TIP3   OH227312   5.917   1.203  14.313 -0.1113 -0.1262 -0.3394
 1966TIP3    H127313   5.918   1.273  14.378 -1.4121  0.3917 -0.8481
 1966TIP3    H227314   6.008   1.175  14.306  0.7689  2.6792 -1.3418
 1967TIP3   OH227315   5.822   1.651  15.468  0.0932  0.2637 -0.4328
 1967TIP3    H127316   5.759   1.578  15.469  2.0543 -1.5500 -0.6709
 1967TIP3    H227317   5.863   1.646  15.382  2.6889 -0.6667  0.7423
 1968TIP3   OH227318   3.454   2.662  11.297 -0.4226 -0.2482  0.0848
 1968TIP3    H127319   3.394   2.616  11.238 -1.7688  0.2631  0.9854
 1968TIP3    H227320   3.541   2.636  11.269 -0.8764  1.3246 -3.2690
 1969TIP3   OH227321   1.288   3.745  13.852  0.1939 -0.1433  0.1998
 1969TIP3    H127322   1.356   3.723  13.788 -0.1056 -2.9505  0.7315
 1969TIP3    H227323   1.214   3.775  13.799  0.9354  0.4342 -0.5415
 1970TIP3   OH227324   6.096   0.881  15.981  0.2310 -0.1234  0.3811
 1970TIP3    H127325   6.077   0.793  15.948  1.4367 -1.2277  2.4685
 1970TIP3    H227326   6.191   0.890  15.971  0.0166  1.3565 -0.6736
 1971TIP3   OH227327   4.493   2.239  13.769  0.5270  0.1181  0.3123
 1971TIP3    H127328   4.513   2.305  13.703 -0.5806  0.1597 -0.0036
 1971TIP3    H227329   4.399   2.250  13.786  0.7784  0.0755  1.8616
 1972TIP3   OH227330   5.838   4.980  12.408 -0.0667 -0.1198  0.0460
 1972TIP3    H127331   5.894   4.913  12.368  1.0796  0.3892  0.7488
 1972TIP3    H227332   5.896   5.055  12.422 -1.0028  0.5377  0.5108
 1973TIP3   OH227333   5.233   3.097  11.379 -0.1141 -0.0600  0.5982
 1973TIP3    H127334   5.241   3.148  11.459 -1.6096  1.4947 -0.1614
 1973TIP3    H227335   5.149   3.053  11.387  0.2305 -0.7794  0.3434
 1974TIP3   OH227336   5.502   4.008   6.979 -0.1536  0.1443 -0.4073
 1974TIP3    H127337   5.572   3.990   7.042 -1.1073  2.1800  1.3347
 1974TIP3    H227338   5.549   4.030   6.898  1.1449 -0.7080  0.0767
 1975TIP3   OH227339   5.097   1.913   3.309 -0.9400 -0.1942  0.6087
 1975TIP3    H127340   5.173   1.872   3.267 -1.3048 -0.6114  0.3483
 1975TIP3    H227341   5.078   1.989   3.254 -0.7590 -0.1278  0.6340
 1976TIP3   OH227342   3.670   0.416   0.954  0.2342  0.0962 -0.7455
 1976TIP3    H127343   3.632   0.478   1.016  0.0869  1.2087 -1.8975
 1976TIP3    H227344   3.595   0.371   0.915  0.2477  0.3413 -1.0581
 1977TIP3   OH227345   2.373   2.725   5.680  0.2124 -0.1884 -0.1859
 1977TIP3    H127346   2.333   2.699   5.763  1.7251  0.1580  0.6676
 1977TIP3    H227347   2.439   2.658   5.663  0.5160  0.2215 -0.6616
 1978TIP3   OH227348   2.632   4.082   3.231 -0.7525  0.2144  0.0627
 1978TIP3    H127349   2.638   4.029   3.310 -0.8060  0.5922  0.3239
 1978TIP3    H227350   2.543   4.118   3.233 -1.2356 -0.8773 -0.8846
 1979TIP3   OH227351   3.845   3.984  13.470 -0.9165 -0.3614 -0.3211
 1979TIP3    H127352   3.886   3.954  13.389  0.2984 -1.6223  0.6931
 1979TIP3    H227353   3.776   3.919  13.488  0.2789 -1.3966  0.7532
 1980TIP3   OH227354   1.897   1.444   1.218  0.4421  0.1551 -0.0994
 1980TIP3    H127355   1.956   1.506   1.176 -0.0904  0.4499 -0.4287
 1980TIP3    H227356   1.849   1.496   1.282 -0.1909  0.1437 -0.5587
 1981TIP3   OH227357   0.159   3.849   5.175 -0.0445  0.0356  0.0116
 1981TIP3    H127358   0.204   3.821   5.095 -2.0003  0.5279 -1.3376
 1981TIP3    H227359   0.160   3.772   5.231 -0.3736 -0.9780 -1.3163
 1982TIP3   OH227360   5.910   1.845   2.497  0.2803  0.2536  0.0436
 1982TIP3    H127361   5.926   1.796   2.577 -0.4572  1.0982  0.7252
 1982TIP3    H227362   5.886   1.779   2.432  1.3970 -0.4915  0.3617
 1983TIP3   OH227363   3.439   0.926  16.841  0.3014  0.3189 -0.3364
 1983TIP3    H127364   3.385   0.976  16.902  0.9123  0.0850  0.4080
 1983TIP3    H227365   3.376   0.884  16.782 -0.5624 -1.9722  2.0342
 1984TIP3   OH227366   1.110   1.161  16.522  0.3105 -0.8104  0.7145
 1984TIP3    H127367   1.160   1.112  16.456 -1.3043 -0.0980 -1.1679
 1984TIP3    H227368   1.120   1.252  16.497 -0.5108 -0.5356  1.3317
 1985TIP3   OH227369   5.435   0.741  13.562 -0.1229 -0.6635 -0.4806
 1985TIP3    H127370   5.474   0.825  13.537  1.2512 -1.4456 -1.0957
 1985TIP3    H227371   5.349   0.764  13.596  0.7864  1.1597  0.7950
 1986TIP3   OH227372   4.410   0.387   2.361  0.2193 -0.6548  0.3845
 1986TIP3    H127373   4.419   0.473   2.400 -0.5528  0.4194 -1.6605
 1986TIP3    H227374   4.398   0.328   2.436 -0.8515  1.2060  1.7659
 1987TIP3   OH227375   1.346   5.245  15.383  0.1360 -0.2207 -0.1379
 1987TIP3    H127376   1.381   5.334  15.382 -2.2513  0.7900  0.3667
 1987TIP3    H227377   1.265   5.250  15.332 -0.4586 -1.9061  0.5696
 1988TIP3   OH227378   1.284   2.321  12.353 -0.1543  0.6717 -0.1844
 1988TIP3    H127379   1.357   2.383  12.355  1.6785 -1.3637  1.0983
 1988TIP3    H227380   1.289   2.277  12.438 -1.2732 -1.3028 -1.0988
 1989TIP3   OH227381   4.792   2.344   3.096  0.0034 -0.2477 -0.8096
 1989TIP3    H127382   4.748   2.408   3.152  0.0184 -0.2410 -0.8053
 1989TIP3    H227383   4.774   2.375   3.007 -3.4308 -2.4284 -1.0576
 1990TIP3   OH227384   5.237   0.244  11.314 -0.9003  0.1147 -0.7401
 1990TIP3    H127385   5.197   0.225  11.399 -2.3980  0.0479 -1.4246
 1990TIP3    H227386   5.174   0.211  11.250 -0.1519  0.8400 -1.8964
 1991TIP3   OH227387   4.100   5.269   4.177  0.3792 -0.5660 -0.0766
 1991TIP3    H127388   4.166   5.256   4.108  1.9599 -1.8622  1.5952
 1991TIP3    H227389   4.019   5.235   4.139  0.8668  0.0590 -1.7918
 1992TIP3   OH227390   5.000   1.333  11.582 -0.2711  0.0137 -0.1469
 1992TIP3    H127391   4.924   1.377  11.544 -0.4959 -1.1049 -1.0199
 1992TIP3    H227392   4.979   1.328  11.676  0.1587  2.5171  0.1587
 1993TIP3   OH227393   0.127   6.077  13.854  0.2343  0.1728  0.2526
 1993TIP3    H127394   0.079   6.157  13.836  0.7628  0.3259 -0.5259
 1993TIP3    H227395   0.202   6.080  13.794  0.2298 -0.9215  0.1689
 1994TIP3   OH227396   2.002   1.517  13.637  0.5759  0.3361  0.2516
 1994TIP3    H127397   2.051   1.499  13.556 -0.9876  1.6819 -1.0843
 1994TIP3    H227398   1.945   1.590  13.614 -2.6751 -1.6206  1.4300
 1995TIP3   OH227399   2.012   1.669   4.309  0.3508 -0.5762  0.4736
 1995TIP3    H127400   2.048   1.613   4.241  0.1492 -0.7995  0.5523
 1995TIP3    H227401   1.990   1.610   4.381 -0.1524 -0.4421  0.4369
 1996TIP3   OH227402   4.211   1.084   5.826  0.4053 -0.0081 -0.0936
 1996TIP3    H127403   4.246   1.148   5.888 -0.4467  0.1383  0.2504
 1996TIP3    H227404   4.242   1.115   5.740 -0.8113  1.4663 -0.0546
 1997TIP3   OH227405   3.807   3.756   5.373  0.3779  0.1868  0.4708
 1997TIP3    H127406   3.769   3.700   5.440 -0.2413  0.0815  0.0413
 1997TIP3    H227407   3.895   3.721   5.359 -0.3611 -1.3770 -0.5636
 1998TIP3   OH227408   3.502   5.680  13.927  0.3875 -1.0479 -0.0868
 1998TIP3    H127409   3.554   5.620  13.873  0.8674 -0.7460  0.0360
 1998TIP3    H227410   3.445   5.725  13.865  1.4721 -0.1397 -0.4669
 1999TIP3   OH227411   3.122   0.880  14.680 -0.3447 -0.5235 -0.0834
 1999TIP3    H127412   3.095   0.971  14.669  0.7113 -0.1230  0.5348
 1999TIP3    H227413   3.040   0.832  14.692 -0.8845  0.4245  0.1004
 2000TIP3   OH227414   0.324   5.154  15.388  0.1166  0.6907  0.7882
 2000TIP3    H127415   0.372   5.100  15.324  2.5696  2.4481  1.0007
 2000TIP3    H227416   0.330   5.106  15.470 -2.8188 -1.4523 -0.0883
 2001TIP3   OH227417   3.994   6.545  15.661  0.3424  0.0332  0.1474
 2001TIP3    H127418   4.084   6.556  15.690 -0.4187  0.2500  2.7564
 2001TIP3    H227419   3.965   6.633  15.638  0.0895  0.4308  1.8318
 2002TIP3   OH227420   4.442   3.432   2.912  0.2567 -0.1004 -0.7602
 2002TIP3    H127421   4.465   3.370   2.981  0.9563 -0.1181 -1.0083
 2002TIP3    H227422   4.435   3.516   2.958 -1.5773 -0.4735 -0.2562
 2003TIP3   OH227423   1.784   3.035  11.298  0.0979 -0.4654 -0.1995
 2003TIP3    H127424   1.848   2.989  11.353  1.8434  0.7946 -1.1047
 2003TIP3    H227425   1.803   3.005  11.209  1.4256  2.0367 -0.8549
 2004TIP3   OH227426   2.742   5.102  15.055  0.0669 -0.7814 -0.6527
 2004TIP3    H127427   2.701   5.138  15.135  1.0101  1.9262 -1.2767
 2004TIP3    H227428   2.835   5.093  15.078 -0.0129 -2.2352 -0.7796
 2005TIP3   OH227429   2.038   2.917   2.904 -0.0054  0.2966  0.0490
 2005TIP3    H127430   2.115   2.971   2.889 -0.6478  1.5302  1.0684
 2005TIP3    H227431   2.026   2.918   2.999 -1.3341  0.2112 -0.1052
 2006TIP3   OH227432   4.860   0.592   0.194 -0.2640 -0.0801 -0.0194
 2006TIP3    H127433   4.767   0.603   0.173 -0.1983 -0.5210 -0.5710
 2006TIP3    H227434   4.870   0.498   0.208  0.4221 -0.2710 -1.6039
 2007TIP3   OH227435   3.862   4.842  11.872 -0.1487 -0.3807 -0.1368
 2007TIP3    H127436   3.831   4.926  11.839 -0.9413 -0.3198  0.7099
 2007TIP3    H227437   3.936   4.820  11.816 -1.0750 -0.0170 -1.5536
 2008TIP3   OH227438   0.753   2.224   5.908  0.4918 -0.8261  0.5148
 2008TIP3    H127439   0.804   2.203   5.830  1.5530  0.7031  0.7393
 2008TIP3    H227440   0.662   2.213   5.881  0.8328 -0.3027 -0.9574
 2009TIP3   OH227441   5.197   6.142  12.883  0.3035  0.3139  0.9068
 2009TIP3    H127442   5.202   6.235  12.857  1.1417  0.0185 -0.0499
 2009TIP3    H227443   5.117   6.111  12.841  0.2358  0.5008  0.8930
 2010TIP3   OH227444   5.659   4.436  15.565  0.1456 -0.3252  0.0633
 2010TIP3    H127445   5.584   4.382  15.541  0.4804 -0.1976 -1.3946
 2010TIP3    H227446   5.731   4.404  15.510  0.7381  0.5994  0.2593
 2011TIP3   OH227447   1.045   3.001   0.802  0.0997  0.0096  0.0166
 2011TIP3    H127448   1.002   3.007   0.887 -0.3631  0.6388 -0.2514
 2011TIP3    H227449   0.972   2.994   0.740  0.4435 -2.4808 -0.2054
 2012TIP3   OH227450   6.462   0.376  11.560 -0.0217  0.2217  0.5488
 2012TIP3    H127451   6.417   0.337  11.485 -1.1059  3.3185 -0.5713
 2012TIP3    H227452   6.390   0.407  11.616  0.6198  2.7238  0.1243
 2013TIP3   OH227453   2.993   5.948   5.137  0.1557 -0.3313  0.0491
 2013TIP3    H127454   2.924   5.992   5.186 -0.4979 -0.1112 -1.0204
 2013TIP3    H227455   3.072   5.960   5.189  0.4852  3.9164 -1.0604
 2014TIP3   OH227456   0.273   0.490   5.608 -0.5271 -0.6274  0.1203
 2014TIP3    H127457   0.303   0.581   5.603 -3.4086  0.5017  1.3547
 2014TIP3    H227458   0.304   0.451   5.526  0.3483  1.5839 -0.7017
 2015TIP3   OH227459   0.782   3.570  13.908 -0.8010 -0.2560  0.5422
 2015TIP3    H127460   0.687   3.556  13.910 -0.8629  0.2391  1.2866
 2015TIP3    H227461   0.800   3.600  13.819 -1.3920 -0.0284  0.4947
 2016TIP3   OH227462   5.020   1.883  14.016  0.3824 -0.0455  0.3013
 2016TIP3    H127463   4.943   1.840  14.053 -0.1007  0.1125 -0.4896
 2016TIP3    H227464   5.018   1.972  14.052  1.0473 -0.4770  1.4601
 2017TIP3   OH227465   5.620   2.101  17.169 -0.1493 -0.1454  0.3387
 2017TIP3    H127466   5.701   2.067  17.132 -0.4418 -2.1928  1.4051
 2017TIP3    H227467   5.646   2.181  17.214  0.8153  0.4927 -1.2644
 2018TIP3   OH227468   3.981   5.615  13.059  0.6121  0.4177  0.1407
 2018TIP3    H127469   4.024   5.628  12.974 -0.8839  0.2369 -0.6795
 2018TIP3    H227470   4.053   5.598  13.119  1.6804 -0.1987 -1.2384
 2019TIP3   OH227471   0.495   3.129  15.257 -1.0157 -0.1740  0.1934
 2019TIP3    H127472   0.504   3.137  15.351  3.5783  1.8937 -0.1968
 2019TIP3    H227473   0.557   3.060  15.232 -1.8720 -0.4382 -1.4040
 2020TIP3   OH227474   5.707   4.071  16.479 -0.1010  0.1525  0.1055
 2020TIP3    H127475   5.680   4.150  16.526  0.8138 -0.0643  1.0426
 2020TIP3    H227476   5.800   4.084  16.461 -0.3617  0.0912 -1.4239
 2021TIP3   OH227477   4.864   6.011  10.782  0.2260 -0.2235  0.3794
 2021TIP3    H127478   4.828   6.092  10.747 -2.2951 -0.4497  2.2335
 2021TIP3    H227479   4.955   6.032  10.803  0.6225  1.0949 -2.1954
 2022TIP3   OH227480   3.564   0.164  16.790  0.2489 -0.2485 -0.3725
 2022TIP3    H127481   3.626   0.169  16.718  1.3431 -1.1102  0.4599
 2022TIP3    H227482   3.505   0.238  16.777  0.9793  0.1405 -1.6201
 2023TIP3   OH227483   2.152   5.533   5.473  0.0442  0.0662 -0.1305
 2023TIP3    H127484   2.230   5.552   5.422 -0.4475 -1.5258 -1.5888
 2023TIP3    H227485   2.135   5.440   5.456 -0.6913 -0.3043  2.2335
 2024TIP3   OH227486   3.470   6.572  12.566 -0.0887  0.2921  0.6839
 2024TIP3    H127487   3.434   6.656  12.596 -0.4422 -0.5524  2.8401
 2024TIP3    H227488   3.561   6.573  12.596  0.4856  0.6675 -0.9952
 2025TIP3   OH227489   3.305   3.545   2.922  0.3062  0.3144  0.2055
 2025TIP3    H127490   3.291   3.526   3.015 -1.4065 -0.1896 -0.1063
 2025TIP3    H227491   3.393   3.512   2.904 -0.0680 -1.4251  1.2281
 2026TIP3   OH227492   3.017   0.680   3.965 -0.4631  0.1464  0.1331
 2026TIP3    H127493   3.060   0.649   3.885 -0.3242  0.3023  0.1477
 2026TIP3    H227494   3.071   0.648   4.036 -1.3926 -1.2878  0.2373
 2027TIP3   OH227495   2.900   6.668  14.597  0.2582 -0.4215 -0.4816
 2027TIP3    H127496   2.870   6.605  14.663 -0.9851  0.2292 -0.4044
 2027TIP3    H227497   2.940   6.739  14.647 -2.3793  1.0034 -0.2196
 2028TIP3   OH227498   6.763   6.291  15.248  0.4387 -0.0330  0.4026
 2028TIP3    H127499   6.695   6.333  15.301 -0.1395 -1.1612  0.5976
 2028TIP3    H227500   6.842   6.343  15.265 -0.1323  0.6643  1.0081
 2029TIP3   OH227501   5.063   1.449   3.751 -0.3564 -0.5117 -0.1945
 2029TIP3    H127502   5.042   1.517   3.815 -0.8517  0.9604 -1.8233
 2029TIP3    H227503   4.993   1.384   3.760 -1.2257  0.4046 -0.2295
 2030TIP3   OH227504   2.784   1.746   0.082 -0.0912 -0.0540  0.3111
 2030TIP3    H127505   2.775   1.658   0.119 -1.1034  0.6402  1.7752
 2030TIP3    H227506   2.749   1.804   0.148 -0.1875  1.4161 -0.9749
 2031TIP3   OH227507   1.445   0.164   2.972 -0.9018 -0.5019  0.3584
 2031TIP3    H127508   1.417   0.084   3.017  0.4748 -0.5380  1.2110
 2031TIP3    H227509   1.394   0.234   3.013 -0.3805 -0.6598  1.3154
 2032TIP3   OH227510   4.849   4.833  16.959  0.3940 -0.2145 -0.4351
 2032TIP3    H127511   4.923   4.805  17.014  2.1424  1.1238 -2.0133
 2032TIP3    H227512   4.843   4.766  16.891  0.3766 -0.1234 -0.5235
 2033TIP3   OH227513   0.288   1.996  11.134  0.2290  0.1494 -0.3962
 2033TIP3    H127514   0.358   1.947  11.089 -1.1100 -3.0880  0.8229
 2033TIP3    H227515   0.234   2.030  11.062  0.7860 -0.8203 -1.3167
 2034TIP3   OH227516   4.019   5.221  12.788  0.6600 -0.1164 -0.4478
 2034TIP3    H127517   4.058   5.257  12.868  1.4914 -0.8221 -0.5310
 2034TIP3    H227518   4.006   5.128  12.807 -2.1360  0.2643  0.0317
 2035TIP3   OH227519   5.051   4.425   1.907  0.0148  0.3667  0.4321
 2035TIP3    H127520   5.092   4.363   1.847  0.7744  0.8997  0.3994
 2035TIP3    H227521   5.123   4.462   1.957 -0.5687  0.2217  1.4070
 2036TIP3   OH227522   6.486   1.437  14.839 -0.5406  0.2501 -0.6450
 2036TIP3    H127523   6.434   1.458  14.762 -2.1899  3.6215  1.1269
 2036TIP3    H227524   6.528   1.520  14.863  3.2154 -1.5878 -0.0949
 2037TIP3   OH227525   2.751   5.546  14.622 -0.3315 -0.1759  0.3043
 2037TIP3    H127526   2.699   5.573  14.698  0.2773  0.7616  0.3982
 2037TIP3    H227527   2.752   5.450  14.627 -0.3938 -0.1328  1.4181
 2038TIP3   OH227528   2.154   3.637   3.382  0.0033 -0.5717 -0.5364
 2038TIP3    H127529   2.236   3.686   3.386 -0.3777  0.0849 -0.6094
 2038TIP3    H227530   2.119   3.657   3.295 -0.9851  0.4003  0.0648
 2039TIP3   OH227531   3.405   3.945   4.619  0.1804 -0.3017 -0.2681
 2039TIP3    H127532   3.362   4.027   4.595  1.4803  0.1108 -1.2772
 2039TIP3    H227533   3.346   3.905   4.683 -2.4046 -0.4507 -2.5683
 2040TIP3   OH227534   2.108   2.633   6.356  0.3923 -0.0175  0.7058
 2040TIP3    H127535   2.191   2.621   6.402 -0.0938 -0.3743  1.5131
 2040TIP3    H227536   2.044   2.586   6.409 -0.0613 -1.1312 -0.7664
 2041TIP3   OH227537   4.856   0.102   2.763 -0.4282  0.2375 -0.0359
 2041TIP3    H127538   4.891   0.045   2.831  1.5606  1.7390  0.2791
 2041TIP3    H227539   4.933   0.143   2.724 -1.6971  1.5109 -1.3244
 2042TIP3   OH227540   1.177   3.954  12.372 -0.1629 -0.0042  0.6773
 2042TIP3    H127541   1.151   4.046  12.371 -0.3203 -0.0042  2.2041
 2042TIP3    H227542   1.111   3.909  12.320 -0.9748  0.5493  1.2018
 2043TIP3   OH227543   4.108   6.026  16.849 -0.7562  0.3711  0.0675
 2043TIP3    H127544   4.091   5.950  16.794 -2.2635 -0.3390  1.4351
 2043TIP3    H227545   4.195   6.057  16.821 -0.0832 -1.8524 -0.5113
 2044TIP3   OH227546   5.549   3.622  16.610 -0.6701 -0.4334  0.3203
 2044TIP3    H127547   5.609   3.619  16.536 -1.4775  3.3522 -0.7151
 2044TIP3    H227548   5.605   3.619  16.687  0.7190  0.9197 -0.5816
 2045TIP3   OH227549   4.499   5.758   5.243 -0.5523 -0.2434 -0.5478
 2045TIP3    H127550   4.421   5.761   5.297 -0.9950 -1.3235 -1.1040
 2045TIP3    H227551   4.477   5.810   5.166 -1.2049 -1.5745 -1.2886
 2046TIP3   OH227552   2.617   0.982  15.234  0.2552 -0.1311 -0.1684
 2046TIP3    H127553   2.535   0.951  15.195 -0.5371  0.2059  1.1735
 2046TIP3    H227554   2.671   0.903  15.242 -1.1911 -1.0042  1.9001
 2047TIP3   OH227555   2.144   0.303   0.626 -0.5780  0.0166 -0.2925
 2047TIP3    H127556   2.178   0.316   0.714 -0.1339 -0.5493 -0.3772
 2047TIP3    H227557   2.150   0.390   0.585 -3.0525  0.8800  0.9823
 2048TIP3   OH227558   4.777   1.882  14.599 -0.7358 -0.1216 -0.1915
 2048TIP3    H127559   4.836   1.949  14.632 -0.0713 -0.6690 -0.2292
 2048TIP3    H227560   4.820   1.848  14.520 -1.5849  0.1477 -0.7928
 2049TIP3   OH227561   3.369   1.799   1.992 -0.3208  0.0462  0.3307
 2049TIP3    H127562   3.373   1.708   1.962 -0.5537  0.1111  0.0965
 2049TIP3    H227563   3.292   1.801   2.049 -0.3226  0.0968  0.3262
 2050TIP3   OH227564   1.608   1.406   3.827  0.4418 -0.0949 -0.0604
 2050TIP3    H127565   1.550   1.415   3.751  0.5845  1.0286 -0.0562
 2050TIP3    H227566   1.604   1.491   3.870  0.7618 -0.5556  0.9150
 2051TIP3   OH227567   3.094   3.586  11.190 -0.0574  0.4372 -0.1792
 2051TIP3    H127568   3.128   3.496  11.183  0.5128  0.7183 -1.2258
 2051TIP3    H227569   3.013   3.585  11.139 -0.5697  0.2800  0.6257
 2052TIP3   OH227570   4.710   5.230  13.954  0.1743  0.7182 -0.4910
 2052TIP3    H127571   4.739   5.321  13.943 -1.8376  1.2765 -1.6141
 2052TIP3    H227572   4.636   5.235  14.014  1.1751 -0.4604  0.9269
 2053TIP3   OH227573   5.033   4.808   1.423  0.4450  0.1652  0.1986
 2053TIP3    H127574   5.124   4.792   1.397  0.0105 -0.5709 -0.9184
 2053TIP3    H227575   5.009   4.890   1.379  0.5379  0.3154  0.4267
 2054TIP3   OH227576   2.444   6.305  16.841 -0.0688  0.3469 -0.3962
 2054TIP3    H127577   2.355   6.319  16.873 -0.3535 -0.2089 -0.9193
 2054TIP3    H227578   2.498   6.308  16.919 -0.3516  2.1050 -0.2118
 2055TIP3   OH227579   2.223   3.928  12.867 -0.2411 -0.4080 -0.0955
 2055TIP3    H127580   2.208   3.968  12.953 -1.6560 -0.8416 -0.1183
 2055TIP3    H227581   2.144   3.877  12.850  1.3168 -2.9776 -0.1992
 2056TIP3   OH227582   4.193   6.437  13.058  0.1531 -0.0525 -0.3463
 2056TIP3    H127583   4.171   6.512  13.003 -1.7901  0.3474  0.9134
 2056TIP3    H227584   4.112   6.415  13.103  1.6948 -0.1627  2.6146
 2057TIP3   OH227585   3.879   4.640  10.452  0.3754 -0.2093  0.3720
 2057TIP3    H127586   3.972   4.644  10.475  0.4560 -1.1349  0.2420
 2057TIP3    H227587   3.858   4.547  10.453  0.1110 -0.2479 -2.1632
 2058TIP3   OH227588   2.821   2.768  13.045 -0.5648  0.2258 -0.2440
 2058TIP3    H127589   2.869   2.823  13.107 -0.6591  0.5690 -0.4790
 2058TIP3    H227590   2.844   2.803  12.959 -0.5631 -0.1508 -0.3980
 2059TIP3   OH227591   5.352   5.195   1.553 -0.1576 -0.4056  0.4189
 2059TIP3    H127592   5.294   5.232   1.487 -0.7798  1.4713  1.9020
 2059TIP3    H227593   5.294   5.178   1.628  0.8334 -0.6591  1.1498
 2060TIP3   OH227594   5.076   6.440   1.151  0.1694 -0.2445 -0.2400
 2060TIP3    H127595   5.051   6.352   1.122  0.7402  0.0605 -1.7053
 2060TIP3    H227596   5.166   6.431   1.181 -0.6743 -0.7553  2.4960
 2061TIP3   OH227597   2.213   0.908   3.594  0.2358 -0.3672  0.2118
 2061TIP3    H127598   2.171   0.896   3.679 -0.9688 -1.1218 -0.4604
 2061TIP3    H227599   2.231   1.002   3.589  1.8104 -0.5175  1.9518
 2062TIP3   OH227600   2.862   2.987   3.501 -0.8509  0.0626 -0.9851
 2062TIP3    H127601   2.955   2.989   3.522 -0.9933 -0.7732 -0.2196
 2062TIP3    H227602   2.820   3.039   3.570 -1.0441 -0.3571 -0.7831
 2063TIP3   OH227603   6.764   2.420  14.202 -0.4431 -0.6113  0.0183
 2063TIP3    H127604   6.819   2.413  14.280 -0.4583 -2.9860 -0.1166
 2063TIP3    H227605   6.678   2.391  14.230 -0.4725 -1.3977 -0.8464
 2064TIP3   OH227606   1.120   4.066   2.983 -0.8866 -0.4353 -0.3156
 2064TIP3    H127607   1.049   4.080   3.046  1.2832 -1.9172  2.7090
 2064TIP3    H227608   1.187   4.129   3.008 -0.2353 -0.5374 -1.7120
 2065TIP3   OH227609   6.590   5.430   0.571 -0.0964 -0.3032 -0.1272
 2065TIP3    H127610   6.536   5.457   0.497  0.7392  0.7651 -0.3587
 2065TIP3    H227611   6.539   5.457   0.648 -0.2036  0.0793 -0.3302
 2066TIP3   OH227612   6.631   6.239   5.876  0.3799  0.1544  0.5789
 2066TIP3    H127613   6.641   6.147   5.852 -0.2861  0.4520 -0.8815
 2066TIP3    H227614   6.666   6.244   5.965  0.6163 -1.4636  0.5973
 2067TIP3   OH227615   0.528   3.444  14.926 -0.2674  0.0609 -0.4784
 2067TIP3    H127616   0.529   3.449  15.021  1.7564  1.7312 -0.5026
 2067TIP3    H227617   0.572   3.362  14.905 -1.4709 -0.7301 -0.0082
 2068TIP3   OH227618   4.956   3.265  12.005  0.1139  0.2581 -0.3618
 2068TIP3    H127619   4.930   3.211  12.080 -2.6568 -0.3399 -1.6457
 2068TIP3    H227620   4.917   3.350  12.021  0.2857  0.4046 -0.7038
 2069TIP3   OH227621   5.425   4.538   2.806 -0.3670 -0.1680  0.8092
 2069TIP3    H127622   5.350   4.576   2.761  0.1525 -0.5416 -0.4088
 2069TIP3    H227623   5.393   4.455   2.840 -0.6089 -0.1579  0.6111
 2070TIP3   OH227624   1.420   4.079   2.745 -0.5134 -0.4727  0.2805
 2070TIP3    H127625   1.506   4.037   2.750  0.1136  0.8578  1.3748
 2070TIP3    H227626   1.439   4.170   2.721 -1.8332 -0.7558 -2.0737
 2071TIP3   OH227627   3.044   4.215   2.671 -0.3495  0.0656  0.2192
 2071TIP3    H127628   3.130   4.225   2.712 -0.0633  1.2345 -0.6219
 2071TIP3    H227629   2.982   4.243   2.737  0.0650  1.2782  0.1142
 2072TIP3   OH227630   2.239   0.546  15.112 -0.1676 -0.0367  0.1329
 2072TIP3    H127631   2.321   0.563  15.159  0.2231 -0.2707 -0.4553
 2072TIP3    H227632   2.179   0.514  15.179 -0.9978  3.6667  1.3693
 2073TIP3   OH227633   0.336   1.973  10.616 -0.6804 -0.2557 -0.2360
 2073TIP3    H127634   0.243   1.991  10.630 -0.4501  2.0261 -1.1291
 2073TIP3    H227635   0.374   2.059  10.600  1.2436 -1.3379 -1.9219
 2074TIP3   OH227636   5.101   1.870  12.608  0.0029 -0.0266  0.1418
 2074TIP3    H127637   5.118   1.880  12.514 -1.1425  0.8301 -0.0022
 2074TIP3    H227638   5.091   1.960  12.639  0.4685 -0.3004  1.1215
 2075TIP3   OH227639   3.540   2.863   1.979 -0.1260 -0.7389 -0.2210
 2075TIP3    H127640   3.622   2.867   2.028 -0.5495  0.3992  0.4320
 2075TIP3    H227641   3.476   2.904   2.036 -0.9343 -0.6361 -1.1703
 2076TIP3   OH227642   6.453   0.022   5.861  0.5547 -0.3653 -0.2767
 2076TIP3    H127643   6.530  -0.012   5.816 -0.5376 -0.2695 -2.3358
 2076TIP3    H227644   6.405   0.070   5.793 -2.4177 -2.2200  0.3292
 2077TIP3   OH227645   4.605   2.337   1.251  0.0076  0.7794 -0.2244
 2077TIP3    H127646   4.564   2.409   1.301 -0.7259 -0.0242  0.3616
 2077TIP3    H227647   4.686   2.318   1.298  0.6474  1.7701 -0.8706
 2078TIP3   OH227648   4.928   3.862  16.459  0.1899 -0.0929 -0.8913
 2078TIP3    H127649   4.835   3.841  16.451 -0.3759  1.6546  0.2646
 2078TIP3    H227650   4.950   3.840  16.550  0.6918  0.2285 -0.9260
 2079TIP3   OH227651   2.406   0.442  15.552 -0.1807 -0.5497 -0.0565
 2079TIP3    H127652   2.326   0.389  15.560 -2.5224  1.6025 -4.8394
 2079TIP3    H227653   2.389   0.520  15.605 -1.5482  0.0150 -1.2376
 2080TIP3   OH227654   0.475   4.953  14.727 -0.0659  0.3378 -0.5408
 2080TIP3    H127655   0.406   4.887  14.721 -0.3435  0.5454  0.2135
 2080TIP3    H227656   0.441   5.028  14.679 -0.3038  0.3856 -0.3007
 2081TIP3   OH227657   6.732   5.827   6.459  0.3057 -0.2623 -0.5197
 2081TIP3    H127658   6.818   5.824   6.503  1.6151 -0.0729 -2.8908
 2081TIP3    H227659   6.743   5.770   6.383 -0.7097  1.9538 -2.4418
 2082TIP3   OH227660   2.128   4.662  15.254  0.0541 -0.1538 -0.3079
 2082TIP3    H127661   2.190   4.650  15.182  0.3790  0.4343 -0.1406
 2082TIP3    H227662   2.095   4.751  15.242 -2.2745 -1.1009 -1.5439
 2083TIP3   OH227663   1.857   2.544  14.940  0.0406  0.2933 -0.5796
 2083TIP3    H127664   1.816   2.481  14.880 -0.5264 -0.8736  0.9743
 2083TIP3    H227665   1.951   2.538  14.921 -0.0915 -0.3724 -1.0613
 2084TIP3   OH227666   1.159   4.852   2.246  0.2604  0.5151 -0.1700
 2084TIP3    H127667   1.070   4.867   2.277  0.2625  0.9964 -0.3834
 2084TIP3    H227668   1.149   4.802   2.165  0.2446 -0.5323  0.4624
 2085TIP3   OH227669   5.670   4.832  15.192 -0.0345 -0.1732  0.1927
 2085TIP3    H127670   5.621   4.801  15.116 -0.1663 -2.4723  1.1241
 2085TIP3    H227671   5.751   4.867  15.154 -1.9053  3.0327 -1.2996
 2086TIP3   OH227672   1.755   2.021  15.244  0.3603  0.1388  1.1261
 2086TIP3    H127673   1.804   1.959  15.190  0.6418 -0.8751  2.4810
 2086TIP3    H227674   1.808   2.100  15.243  0.3232  0.1599 -0.1245
 2087TIP3   OH227675   4.683   1.790   4.989 -0.2563  0.0414 -0.1674
 2087TIP3    H127676   4.665   1.716   5.047  2.1300 -1.5283 -1.2767
 2087TIP3    H227677   4.680   1.866   5.047 -1.0230 -1.0819  1.3699
 2088TIP3   OH227678   1.813   5.087  12.108 -0.2531  0.1663 -0.7597
 2088TIP3    H127679   1.746   5.074  12.041 -0.4764 -0.3385 -0.4443
 2088TIP3    H227680   1.770   5.061  12.190  0.1063  0.5090 -0.4613
 2089TIP3   OH227681   0.235   4.327  17.154  0.1516 -0.2499  0.3057
 2089TIP3    H127682   0.229   4.416  17.190 -0.5624  0.7573 -2.1384
 2089TIP3    H227683   0.329   4.309  17.150  0.3822  1.0539 -0.6603
 2090TIP3   OH227684   1.177   1.004  13.687  0.0993  0.4857 -0.1117
 2090TIP3    H127685   1.163   1.050  13.770  0.0124  1.4781 -0.6583
 2090TIP3    H227686   1.169   1.073  13.620 -0.0188 -0.3311 -0.9541
 2091TIP3   OH227687   2.739   2.551  13.186 -0.2542 -0.0645  0.5580
 2091TIP3    H127688   2.813   2.528  13.242  0.6413 -1.9151 -1.2705
 2091TIP3    H227689   2.777   2.602  13.114 -0.7349 -0.9897 -0.3759
 2092TIP3   OH227690   5.716   6.527  15.501  0.2380 -0.3729 -0.0769
 2092TIP3    H127691   5.698   6.481  15.419  0.8384 -0.9954  0.1272
 2092TIP3    H227692   5.632   6.530  15.546 -0.1057  0.0162 -0.7371
 2093TIP3   OH227693   1.650   3.111  13.699 -0.0918 -0.1060  0.0234
 2093TIP3    H127694   1.563   3.098  13.661  0.0265 -0.5604 -0.0934
 2093TIP3    H227695   1.651   3.055  13.776 -0.5535  1.2730  1.0671
 2094TIP3   OH227696   0.244   5.122   0.108  0.6877 -0.2783 -0.7631
 2094TIP3    H127697   0.336   5.099   0.122  0.6250  0.1011  0.4024
 2094TIP3    H227698   0.199   5.039   0.098  1.3180 -0.4412 -2.5668
 2095TIP3   OH227699   3.576   6.723   3.865 -0.2579 -0.7461  0.2960
 2095TIP3    H127700   3.497   6.777   3.859 -2.2717 -3.5441 -0.5605
 2095TIP3    H227701   3.601   6.706   3.774  0.1838 -1.3984  0.5264
 2096TIP3   OH227702   5.414   3.295   3.758  0.3943  0.0796 -0.3141
 2096TIP3    H127703   5.335   3.347   3.743  1.1258  1.4698  0.4700
 2096TIP3    H227704   5.469   3.312   3.682 -0.0894 -1.0011 -0.9294
 2097TIP3   OH227705   6.144   2.874   2.895 -0.1290 -0.4656 -0.0893
 2097TIP3    H127706   6.205   2.902   2.963 -0.7813 -0.6103  0.5697
 2097TIP3    H227707   6.134   2.779   2.909 -1.3745 -0.2613  0.5511
 2098TIP3   OH227708   6.349   5.370  15.775  0.1755 -0.1651  0.0019
 2098TIP3    H127709   6.373   5.439  15.836  1.2702 -0.6254  0.1190
 2098TIP3    H227710   6.331   5.294  15.830 -3.2784  0.5554  0.0535
 2099TIP3   OH227711   2.653   5.932   6.416 -0.3847 -0.0952 -0.2426
 2099TIP3    H127712   2.566   5.968   6.435 -1.0063 -1.9451  0.6233
 2099TIP3    H227713   2.711   6.008   6.419 -1.4206  0.7297  2.8847
 2100TIP3   OH227714   4.961   3.763  12.166  0.5540 -0.5379 -0.5632
 2100TIP3    H127715   4.914   3.700  12.220  0.6879  0.7220  1.0873
 2100TIP3    H227716   4.909   3.770  12.086 -0.5189 -1.2634  0.0535
 2101TIP3   OH227717   6.128   6.225  16.023  0.4589  0.0694  0.0673
 2101TIP3    H127718   6.048   6.214  16.074  0.1173  3.0356  0.3860
 2101TIP3    H227719   6.099   6.220  15.932  0.0124  0.4223  0.1841
 2102TIP3   OH227720   3.408   5.092   5.614  0.3399  0.1637  0.2758
 2102TIP3    H127721   3.412   5.087   5.709 -0.3719 -1.4488  0.2362
 2102TIP3    H227722   3.316   5.080   5.592  0.1929  2.2988 -0.5637
 2103TIP3   OH227723   6.667   6.478  13.459  0.3023  0.0064  0.1512
 2103TIP3    H127724   6.643   6.422  13.385  1.6679 -2.6332  1.5135
 2103TIP3    H227725   6.614   6.445  13.532 -1.6338  3.0938  0.2817
 2104TIP3   OH227726   6.199   1.852  15.695  0.0165 -0.5970  0.0080
 2104TIP3    H127727   6.157   1.795  15.759  0.3948  0.6168  1.3876
 2104TIP3    H227728   6.283   1.810  15.676 -0.4227 -1.3569 -0.3043
 2105TIP3   OH227729   0.410   1.038  12.438 -0.5497  0.1276 -0.1793
 2105TIP3    H127730   0.424   1.085  12.356  1.6078 -1.3932 -0.7574
 2105TIP3    H227731   0.475   0.968  12.437 -1.0302 -0.4479  2.4550
 2106TIP3   OH227732   2.261   2.121  12.346  0.4611  0.3374 -0.2542
 2106TIP3    H127733   2.233   2.160  12.263  1.3295  2.4634  0.3802
 2106TIP3    H227734   2.195   2.150  12.410  0.0827 -0.8477 -0.0927
 2107TIP3   OH227735   6.406   1.651  17.173 -0.5859  0.2850  0.0353
 2107TIP3    H127736   6.345   1.706  17.123 -0.3294  0.2580 -0.3101
 2107TIP3    H227737   6.371   1.651  17.262 -0.6580  0.8990  0.0082
 2108TIP3   OH227738   6.682   0.937  14.398  0.0592  0.6732 -0.7158
 2108TIP3    H127739   6.587   0.926  14.396  0.2105 -0.7193 -1.1426
 2108TIP3    H227740   6.697   1.027  14.367 -1.0945  0.8249 -0.8570
 2109TIP3   OH227741   5.141   1.046   1.220 -0.3965  0.2277 -0.2962
 2109TIP3    H127742   5.193   1.070   1.296 -0.3993  0.1512 -0.2692
 2109TIP3    H227743   5.206   1.012   1.157 -0.4163  0.0994 -0.2491
 2110TIP3   OH227744   5.079   4.255   5.331  0.4843 -0.0331 -0.2702
 2110TIP3    H127745   5.009   4.195   5.302  0.4350 -0.6946  1.1451
 2110TIP3    H227746   5.147   4.197   5.365  1.9103  0.5887 -1.9098
 2111TIP3   OH227747   1.629   2.781  10.383 -0.3090 -0.2223 -0.4623
 2111TIP3    H127748   1.616   2.812  10.473  0.0992 -0.6498 -0.2508
 2111TIP3    H227749   1.541   2.780  10.346 -0.1666  4.3744 -1.6073
 2112TIP3   OH227750   1.648   4.790  15.834  0.2749 -0.3683  0.2838
 2112TIP3    H127751   1.721   4.762  15.778 -0.2959 -3.0890  0.7759
 2112TIP3    H227752   1.666   4.883  15.852  3.5947 -0.9154  0.3524
 2113TIP3   OH227753   3.166   3.315   3.495  0.6439 -0.0648  0.4078
 2113TIP3    H127754   3.252   3.357   3.501  1.6777 -2.0167  0.3051
 2113TIP3    H227755   3.105   3.378   3.533  1.7757  2.2450 -1.3986
 2114TIP3   OH227756   2.823   4.265   3.165 -0.3349 -0.0713 -0.7045
 2114TIP3    H127757   2.747   4.209   3.181  0.5308 -0.8362  1.0105
 2114TIP3    H227758   2.841   4.305   3.249  1.2042  0.0291 -1.0513
 2115TIP3   OH227759   5.193   3.898  12.534  0.1291 -0.2215  0.0011
 2115TIP3    H127760   5.227   3.888  12.623  0.0761 -2.0808 -0.1436
 2115TIP3    H227761   5.108   3.854  12.536 -0.6009  1.1064 -0.5863
 2116TIP3   OH227762   3.855   3.046  12.351 -0.0753 -0.3825  0.5794
 2116TIP3    H127763   3.935   3.080  12.309 -1.2899 -1.3577 -2.8206
 2116TIP3    H227764   3.879   3.036  12.443  3.1223  1.1188  0.0387
 2117TIP3   OH227765   3.307   1.663  12.456 -0.1347 -0.1438 -0.0611
 2117TIP3    H127766   3.241   1.702  12.512  0.6285  1.3637 -0.1521
 2117TIP3    H227767   3.388   1.666  12.508  0.0452 -1.1938 -0.2538
 2118TIP3   OH227768   2.177   4.749  17.107  0.5507  0.6801  0.0159
 2118TIP3    H127769   2.246   4.815  17.106 -0.5051  1.8759  1.6460
 2118TIP3    H227770   2.196   4.694  17.030  3.9747  0.2078  1.0263
 2119TIP3   OH227771   4.690   3.860   5.244 -0.0752 -0.2624 -0.2967
 2119TIP3    H127772   4.648   3.800   5.183  0.9618 -0.0885 -1.2146
 2119TIP3    H227773   4.655   3.836   5.330  0.8392 -2.6487 -0.5160
 2120TIP3   OH227774   5.673   2.103  13.654  0.3090  0.3892  0.4994
 2120TIP3    H127775   5.581   2.130  13.652  0.2676  0.2165 -0.2605
 2120TIP3    H227776   5.670   2.009  13.673  0.3235  0.3760  0.4377
 2121TIP3   OH227777   1.887   0.277   5.203 -0.6243  0.0932  0.3192
 2121TIP3    H127778   1.962   0.332   5.224 -1.0241  0.7753  0.0282
 2121TIP3    H227779   1.914   0.228   5.125 -1.1126  1.7329 -0.9468
 2122TIP3   OH227780   4.258   5.128  10.875  0.0054 -0.2825  0.0397
 2122TIP3    H127781   4.297   5.041  10.883 -1.4025 -0.8331  1.2366
 2122TIP3    H227782   4.190   5.118  10.809  0.7744  0.2901 -0.8709
 2123TIP3   OH227783   3.441   5.183  10.512  0.6470  0.1101  0.0895
 2123TIP3    H127784   3.524   5.161  10.471  0.5493  1.0977 -0.6769
 2123TIP3    H227785   3.437   5.127  10.590  3.2235  1.8345  1.6044
 2124TIP3   OH227786   0.850   5.740   2.685 -0.2969 -0.1695  0.0815
 2124TIP3    H127787   0.942   5.718   2.700 -0.4695 -0.6978  0.4064
 2124TIP3    H227788   0.809   5.657   2.660 -0.9797 -0.2566  1.3658
 2125TIP3   OH227789   5.133   4.371  15.674 -0.2289 -0.6173 -0.5128
 2125TIP3    H127790   5.223   4.357  15.702 -0.2808  1.5703  0.9482
 2125TIP3    H227791   5.119   4.306  15.604  2.0671 -1.7654  0.0175
 2126TIP3   OH227792   0.895   6.459   0.936 -0.0015  0.3369  0.1940
 2126TIP3    H127793   0.962   6.504   0.987 -0.6449  2.4109 -0.7170
 2126TIP3    H227794   0.846   6.528   0.893 -0.8895 -1.2504 -1.5072
 2127TIP3   OH227795   1.819   1.405  14.760  0.1532 -0.0184  0.4352
 2127TIP3    H127796   1.888   1.345  14.731 -0.4998 -0.6217  0.1228
 2127TIP3    H227797   1.861   1.491  14.758  0.7788 -0.3239 -0.1470
 2128TIP3   OH227798   1.722   2.505  12.132 -0.2214  0.1229 -0.1836
 2128TIP3    H127799   1.653   2.547  12.183 -1.2428  0.4244 -1.7423
 2128TIP3    H227800   1.718   2.413  12.158 -1.8579 -0.0422 -0.8865
 2129TIP3   OH227801   4.839   0.480   2.276 -0.0556 -0.1667 -0.0939
 2129TIP3    H127802   4.776   0.518   2.214 -0.9258 -1.8306 -0.2856
 2129TIP3    H227803   4.923   0.514   2.246 -0.7734  1.9242  0.0177
 2130TIP3   OH227804   4.028   5.481   5.396 -0.3842  0.1894 -0.3417
 2130TIP3    H127805   4.094   5.412   5.389 -0.1470  0.2084  1.4094
 2130TIP3    H227806   4.020   5.498   5.489 -2.4568  0.6064 -0.5479
 2131TIP3   OH227807   1.040   0.867  16.965  0.2208 -0.0240 -0.2821
 2131TIP3    H127808   1.059   0.897  16.876  1.7561  0.1041  0.0631
 2131TIP3    H227809   1.104   0.797  16.981 -1.0987 -1.1760  0.1450
 2132TIP3   OH227810   5.757   3.953   3.417  0.0962 -0.1738 -0.1711
 2132TIP3    H127811   5.752   3.986   3.506  0.0056 -1.5204  0.3520
 2132TIP3    H227812   5.672   3.910   3.403  0.2780 -0.3562 -0.7444
 2133TIP3   OH227813   4.350   1.731  11.694  0.2521 -0.1820 -0.0736
 2133TIP3    H127814   4.295   1.682  11.632 -0.7373 -0.4339  0.9677
 2133TIP3    H227815   4.405   1.786  11.638 -1.0414  0.0572 -1.1826
 2134TIP3   OH227816   0.069   3.063   3.948  0.0300  0.3065 -0.1489
 2134TIP3    H127817  -0.012   3.013   3.945  0.4431 -0.5330  1.5207
 2134TIP3    H227818   0.130   3.007   3.996  0.9744  1.7648  0.4407
 2135TIP3   OH227819   3.065   0.963   3.734 -0.2729 -0.2747  0.0897
 2135TIP3    H127820   3.118   0.884   3.735 -1.7102 -1.2857  1.5618
 2135TIP3    H227821   3.068   0.995   3.824 -0.2764  0.9663 -0.3383
 2136TIP3   OH227822   2.329   1.602  14.363 -0.0898 -0.3442  0.4803
 2136TIP3    H127823   2.300   1.692  14.380  0.4329 -0.0832  0.0351
 2136TIP3    H227824   2.263   1.547  14.405  0.0655  0.2526  1.5393
 2137TIP3   OH227825   1.623   0.702   2.595  0.1433 -0.0847 -0.3326
 2137TIP3    H127826   1.638   0.648   2.673  4.0849  1.2145  0.0543
 2137TIP3    H227827   1.662   0.652   2.524  1.0441  0.8340 -0.5133
 2138TIP3   OH227828   5.351   6.124   3.943  0.0098 -0.1123  0.2560
 2138TIP3    H127829   5.407   6.103   3.869 -0.8654  0.4268 -0.5798
 2138TIP3    H227830   5.394   6.083   4.018  0.6977 -1.0091 -0.6032
 2139TIP3   OH227831   3.078   5.239   1.848  0.3903  0.1305 -0.3833
 2139TIP3    H127832   3.147   5.305   1.842 -0.9658  1.6214 -0.2837
 2139TIP3    H227833   3.080   5.211   1.939  0.3556  0.7594 -0.1818
 2140TIP3   OH227834   5.912   4.633  13.134  0.3174 -0.8456  0.0900
 2140TIP3    H127835   5.826   4.610  13.100 -0.8110  2.5184  0.3086
 2140TIP3    H227836   5.897   4.651  13.227  1.6892 -1.9873  0.5739
 2141TIP3   OH227837   0.138   3.827   0.683  0.4131 -0.1344  0.0886
 2141TIP3    H127838   0.219   3.781   0.663  0.7274  0.7017 -0.5724
 2141TIP3    H227839   0.149   3.914   0.646 -0.5322  0.2001  0.5546
 2142TIP3   OH227840   0.677   6.124   5.486  0.4058  0.0217  0.1942
 2142TIP3    H127841   0.676   6.164   5.573 -2.6505  0.0622  0.2363
 2142TIP3    H227842   0.711   6.193   5.429  1.2317  0.4339  1.1482
 2143TIP3   OH227843   4.799   4.394  15.565  0.3944  0.5946 -0.2168
 2143TIP3    H127844   4.706   4.395  15.544  0.7499  3.5822 -2.2543
 2143TIP3    H227845   4.805   4.443  15.648  0.0745 -0.7992  0.6554
 2144TIP3   OH227846   1.864   6.734   1.423 -0.5285 -0.5160 -0.1365
 2144TIP3    H127847   1.894   6.722   1.333 -0.2884 -2.5324  0.1736
 2144TIP3    H227848   1.830   6.824   1.425 -0.3570 -0.3624 -2.1675
 2145TIP3   OH227849   2.717   1.812   1.419  0.9029 -0.1520  0.0782
 2145TIP3    H127850   2.777   1.739   1.405  1.6134  0.6905 -1.5352
 2145TIP3    H227851   2.770   1.880   1.460  0.5186 -0.1483  0.5767
 2146TIP3   OH227852   2.119   4.532  11.145  0.8107 -0.2585 -0.2018
 2146TIP3    H127853   2.127   4.613  11.095 -0.4880 -1.0931 -1.8550
 2146TIP3    H227854   2.196   4.481  11.120  0.7977 -0.1855 -0.3906
 2147TIP3   OH227855   5.739   6.801  15.989  0.6213  0.2815 -0.1186
 2147TIP3    H127856   5.738   6.822  16.082  0.3998  1.0585 -0.2815
 2147TIP3    H227857   5.676   6.729  15.979  1.4752 -0.5670  0.4820
 2148TIP3   OH227858   6.204   4.144   4.667 -0.2485 -0.1512  0.2067
 2148TIP3    H127859   6.232   4.140   4.759  1.8506  2.8382 -0.1809
 2148TIP3    H227860   6.131   4.081   4.662 -0.4779 -0.4076  3.8798
 2149TIP3   OH227861   3.861   1.025  13.059  0.6070  0.3887  0.5346
 2149TIP3    H127862   3.810   1.063  13.131  0.2877 -1.7228  1.4844
 2149TIP3    H227863   3.820   0.940  13.042 -0.0873  1.2474 -2.9896
 2150TIP3   OH227864   0.171   4.920  15.787  0.3654 -0.1744 -0.0710
 2150TIP3    H127865   0.093   4.897  15.736 -0.0495 -0.5371  0.7139
 2150TIP3    H227866   0.144   4.911  15.878  1.3733 -0.4318  0.2130
 2151TIP3   OH227867   6.161   5.826  12.743  0.4975 -0.1967  0.4426
 2151TIP3    H127868   6.121   5.808  12.828 -0.2554 -0.4257  0.0474
 2151TIP3    H227869   6.149   5.919  12.730  0.1329 -0.2557  0.3485
 2152TIP3   OH227870   4.237   6.045   4.634  0.0644 -0.1865 -0.1251
 2152TIP3    H127871   4.165   6.098   4.670  0.6283 -0.5807  1.6543
 2152TIP3    H227872   4.194   5.965   4.604 -0.2453 -0.5226  1.1430
 2153TIP3   OH227873   0.733   1.879   2.709 -1.2147 -0.1555 -0.6410
 2153TIP3    H127874   0.770   1.809   2.762 -2.7999  0.3755  1.3253
 2153TIP3    H227875   0.770   1.866   2.622 -0.3449 -2.5416  0.0004
 2154TIP3   OH227876   4.909   2.379   1.760 -0.5079 -0.3357  0.0225
 2154TIP3    H127877   4.824   2.381   1.715  0.4146  1.3605 -1.7786
 2154TIP3    H227878   4.968   2.336   1.699  0.0054 -1.3959  1.2120
 2155TIP3   OH227879   5.143   2.615  12.078 -0.2387  0.3421  0.1529
 2155TIP3    H127880   5.089   2.535  12.073 -1.4181  1.0468  0.9672
 2155TIP3    H227881   5.184   2.622  11.992  0.1213 -1.3005  0.1588
 2156TIP3   OH227882   4.364   4.591  13.051 -0.0592  0.0465  0.1645
 2156TIP3    H127883   4.423   4.544  13.109 -1.2418 -1.5999  0.0913
 2156TIP3    H227884   4.282   4.541  13.054 -0.9408  1.3483 -0.9762
 2157TIP3   OH227885   2.976   4.242   4.823  0.4045 -0.2177 -0.4805
 2157TIP3    H127886   2.910   4.290   4.873  1.9695 -0.2784  1.8431
 2157TIP3    H227887   2.967   4.151   4.853  1.7409 -0.1596  0.1768
 2158TIP3   OH227888   4.483   3.891   2.144  0.2083 -0.2218  0.2279
 2158TIP3    H127889   4.422   3.839   2.196 -0.7830 -0.9129 -1.5275
 2158TIP3    H227890   4.530   3.945   2.208 -2.1754  0.2856  1.6684
 2159TIP3   OH227891   2.870   2.702   2.150 -0.0734 -0.1453  0.1437
 2159TIP3    H127892   2.849   2.686   2.058  0.0954 -0.4921  0.1637
 2159TIP3    H227893   2.840   2.792   2.166 -0.4158 -0.2027 -0.1566
 2160TIP3   OH227894   5.524   6.501   1.773  0.5147 -0.7979 -0.0616
 2160TIP3    H127895   5.592   6.568   1.762  0.8435 -1.4670 -2.7952
 2160TIP3    H227896   5.442   6.546   1.750  0.4134 -0.7380  0.4100
 2161TIP3   OH227897   5.978   2.010   5.133  0.0266 -0.1206  0.2320
 2161TIP3    H127898   5.901   1.998   5.188  1.1652  0.5034  2.0658
 2161TIP3    H227899   6.013   2.095   5.159  2.0714 -0.9564  0.4458
 2162TIP3   OH227900   6.082   1.971  14.421 -0.0549  0.3662 -0.1659
 2162TIP3    H127901   6.006   2.029  14.431 -0.0450  0.7424 -1.9653
 2162TIP3    H227902   6.149   2.026  14.380 -0.0177 -0.8639 -1.8755
 2163TIP3   OH227903   6.672   3.893  11.990  0.0524  0.0402 -0.0315
 2163TIP3    H127904   6.583   3.862  11.976  0.9506 -2.8456  0.0551
 2163TIP3    H227905   6.662   3.987  12.005 -3.0629 -0.3445  1.0317
 2164TIP3   OH227906   4.661   5.001  12.196  0.7392 -0.7110  0.4391
 2164TIP3    H127907   4.623   4.956  12.120 -2.0147 -2.0277  2.4436
 2164TIP3    H227908   4.674   4.933  12.261 -0.4114  0.8540  2.4232
 2165TIP3   OH227909   0.427   2.786  10.714  0.0239 -0.9151 -0.5932
 2165TIP3    H127910   0.407   2.857  10.775  1.7309  0.7849 -1.9071
 2165TIP3    H227911   0.347   2.777  10.661 -0.8478 -1.2385  0.7435
 2166TIP3   OH227912   0.423   3.217  16.979  0.3844 -0.0146 -0.2056
 2166TIP3    H127913   0.364   3.190  16.909 -1.1372 -0.1265  1.0644
 2166TIP3    H227914   0.433   3.139  17.033 -1.3941  0.9369  1.6591
 2167TIP3   OH227915   2.538   2.063   0.996  0.2125  0.3670 -0.1299
 2167TIP3    H127916   2.539   2.007   0.918 -1.7202  0.5156 -0.3079
 2167TIP3    H227917   2.590   2.015   1.061 -0.9149 -1.3939 -0.4545
 2168TIP3   OH227918   0.566   2.669   5.950  0.0059  0.1465 -0.1762
 2168TIP3    H127919   0.656   2.661   5.919  0.0109  0.3915 -0.2270
 2168TIP3    H227920   0.556   2.762   5.970  0.7325 -0.3196  2.7672
 2169TIP3   OH227921   3.500   6.213   5.105 -0.3569 -0.0464  0.7562
 2169TIP3    H127922   3.499   6.299   5.148 -0.3693  0.3079  0.0548
 2169TIP3    H227923   3.554   6.159   5.162  1.1784  0.9157  0.2656
 2170TIP3   OH227924   3.644   2.512  11.743  0.4411  0.1106  0.1923
 2170TIP3    H127925   3.702   2.585  11.722  2.3902 -1.1082  1.0755
 2170TIP3    H227926   3.622   2.474  11.657 -0.1137  1.3218 -0.2294
 2171TIP3   OH227927   3.882   1.433  15.536  0.1376  0.4308  0.2355
 2171TIP3    H127928   3.835   1.369  15.484 -1.4260  0.8458  1.0610
 2171TIP3    H227929   3.847   1.422  15.625  1.9648  0.4443  1.0025
 2172TIP3   OH227930   6.765   3.368  13.292 -0.6169 -0.0547 -0.7151
 2172TIP3    H127931   6.759   3.324  13.377  1.7224  0.7357 -0.0647
 2172TIP3    H227932   6.806   3.303  13.234 -0.0911  0.1811 -0.6101
 2173TIP3   OH227933   2.055   4.506   5.599 -0.4373  0.2238  0.1291
 2173TIP3    H127934   2.062   4.419   5.559 -0.0808  0.6114 -0.6714
 2173TIP3    H227935   2.129   4.555   5.563  0.2150  0.4438  1.6724
 2174TIP3   OH227936   6.798   5.954  14.138  0.8137  0.5869  0.0453
 2174TIP3    H127937   6.736   6.020  14.107  0.8583  0.7288  0.2522
 2174TIP3    H227938   6.883   5.981  14.103  0.6443 -0.0142 -0.8524
 2175TIP3   OH227939   3.189   2.724   2.756  0.6438  0.1071 -0.2637
 2175TIP3    H127940   3.259   2.772   2.711 -1.4478  1.5918 -2.1674
 2175TIP3    H227941   3.177   2.772   2.839  0.7698  0.9177 -0.7002
 2176TIP3   OH227942   1.710   0.075  17.025 -0.2998 -0.4603  0.1030
 2176TIP3    H127943   1.676   0.006  17.081  0.9536 -1.3726 -0.2340
 2176TIP3    H227944   1.648   0.080  16.952 -1.3486  0.0036  0.9899
 2177TIP3   OH227945   2.234   5.096  14.624 -0.5226 -0.1369 -0.0968
 2177TIP3    H127946   2.325   5.091  14.594 -1.2794  0.2113 -2.7624
 2177TIP3    H227947   2.213   5.007  14.652  0.6182 -0.2105  0.6010
 2178TIP3   OH227948   1.829   0.496  14.261 -0.0516  0.1396 -0.0578
 2178TIP3    H127949   1.867   0.526  14.178 -1.5649 -0.2688 -0.9330
 2178TIP3    H227950   1.744   0.540  14.267 -1.1363 -1.8367 -0.0602
 2179TIP3   OH227951   6.499   4.518  11.011  0.0920 -0.0234  0.1427
 2179TIP3    H127952   6.445   4.525  11.090  0.9022  1.6137  0.5953
 2179TIP3    H227953   6.479   4.597  10.961 -0.0097 -0.7830 -1.0460
 2180TIP3   OH227954   4.844   3.060  16.083  0.3287 -0.2067 -0.2610
 2180TIP3    H127955   4.749   3.060  16.083  0.2879 -1.9249 -0.2446
 2180TIP3    H227956   4.868   3.031  15.995  0.8998  1.5734 -0.7353
 2181TIP3   OH227957   2.535   2.088   2.631  0.3776 -0.0249 -0.6842
 2181TIP3    H127958   2.604   2.026   2.607 -1.7284 -2.1009 -1.8574
 2181TIP3    H227959   2.521   2.073   2.725 -1.2180 -2.7167 -1.2453
 2182TIP3   OH227960   5.607   0.373   3.264  0.2365 -0.5175  0.1942
 2182TIP3    H127961   5.592   0.280   3.248 -1.5080 -0.0154 -1.5281
 2182TIP3    H227962   5.579   0.416   3.183  0.6265  1.5463  1.0851
 2183TIP3   OH227963   1.629   4.436  11.247  0.0566 -0.5893  0.7234
 2183TIP3    H127964   1.701   4.499  11.242  0.5071 -1.1406 -0.2860
 2183TIP3    H227965   1.603   4.423  11.156 -0.8088 -0.9854  1.0180
 2184TIP3   OH227966   5.990   6.535  14.848  0.0096 -0.2625 -0.2838
 2184TIP3    H127967   6.062   6.517  14.789 -0.7493  1.0176 -1.6640
 2184TIP3    H227968   5.965   6.625  14.830 -1.6469 -0.5212  0.4507
 2185TIP3   OH227969   6.228   4.513   1.195  0.2706  0.1105 -0.3575
 2185TIP3    H127970   6.273   4.485   1.275 -0.2647 -1.3370 -0.5457
 2185TIP3    H227971   6.276   4.591   1.167  2.2048 -0.9775 -0.1782
 2186TIP3   OH227972   0.850   1.632  16.685  0.0191 -0.1993  0.6234
 2186TIP3    H127973   0.921   1.589  16.733 -1.6039 -2.7264  1.0217
 2186TIP3    H227974   0.887   1.714  16.653  3.2831 -1.6781  0.2353
 2187TIP3   OH227975   0.441   5.021   0.543  0.1398  0.1554 -0.1718
 2187TIP3    H127976   0.422   5.082   0.614  0.0727  0.2501 -0.2704
 2187TIP3    H227977   0.488   4.949   0.585  0.3481  0.3442 -0.0779
 2188TIP3   OH227978   0.048   2.043   4.961 -0.1338  0.2913 -0.2034
 2188TIP3    H127979   0.071   2.132   4.934  0.2752 -0.1118 -1.2683
 2188TIP3    H227980   0.003   2.054   5.045 -2.5623  1.7531 -1.5651
 2189TIP3   OH227981   1.632   4.686   2.345 -0.0706 -0.6351 -0.3025
 2189TIP3    H127982   1.557   4.736   2.378 -0.1382 -0.1907 -1.0938
 2189TIP3    H227983   1.596   4.632   2.274  0.7433  1.4223 -2.4231
 2190TIP3   OH227984   6.234   4.825   0.041  0.3078 -0.3215 -0.3615
 2190TIP3    H127985   6.161   4.853   0.097  0.3998 -1.8008  0.5341
 2190TIP3    H227986   6.230   4.730   0.042  1.2350 -0.4019 -1.7008
 2191TIP3   OH227987   6.219   1.670   4.996 -0.0371  0.3791  0.0480
 2191TIP3    H127988   6.208   1.599   5.059  2.4100  0.1604  0.3255
 2191TIP3    H227989   6.289   1.724   5.032 -0.6704  1.9846 -1.0031
 2192TIP3   OH227990   1.274   5.390  17.112  0.7924 -0.6193 -0.5039
 2192TIP3    H127991   1.208   5.335  17.070  0.1458 -0.3605  0.1580
 2192TIP3    H227992   1.228   5.432  17.185  1.4501  0.2574 -0.5730
 2193TIP3   OH227993   3.371   5.221   2.172 -0.5102 -0.2216 -0.3335
 2193TIP3    H127994   3.357   5.282   2.245  0.3481 -1.9565  1.3720
 2193TIP3    H227995   3.454   5.247   2.133 -2.1707  2.3489 -2.4946
 2194TIP3   OH227996   6.540   6.711   3.772  0.4865  0.1747  0.1668
 2194TIP3    H127997   6.532   6.783   3.709 -1.1655 -0.9543 -0.9781
 2194TIP3    H227998   6.606   6.653   3.734  0.6579  0.2906  0.2871
 2195TIP3   OH227999   3.082   1.096  10.236  0.9085  0.3244  0.4375
 2195TIP3    H128000   3.147   1.073  10.170  1.4293 -1.7542  1.5732
 2195TIP3    H228001   2.998   1.083  10.192  1.2011  2.0772 -0.7408
 2196TIP3   OH228002   5.185   4.577   4.616 -0.1977 -0.6219  0.0041
 2196TIP3    H128003   5.210   4.632   4.691 -1.7498  0.1740 -0.0144
 2196TIP3    H228004   5.156   4.640   4.550  3.1689 -1.1152 -2.2041
 2197TIP3   OH228005   1.931   2.179  14.280 -0.6185  0.3457 -0.3007
 2197TIP3    H128006   1.871   2.132  14.337 -3.1338  2.8524 -0.6599
 2197TIP3    H228007   1.975   2.242  14.337 -0.6738  0.6280 -0.5669
 2198TIP3   OH228008   5.701   6.787   5.879  0.5492 -0.2442  0.2192
 2198TIP3    H128009   5.608   6.807   5.876  0.2521 -0.8756  2.8878
 2198TIP3    H228010   5.735   6.838   5.953  1.7760 -1.8612  0.8442
 2199TIP3   OH228011   3.038   3.341   1.085 -0.3372  0.1015 -0.0195
 2199TIP3    H128012   2.972   3.277   1.112  1.8763 -0.9200  3.6989
 2199TIP3    H228013   3.055   3.392   1.164  0.2465  3.3062 -2.0336
 2200TIP3   OH228014   0.400   2.996   5.522  0.5017 -0.1423 -0.1023
 2200TIP3    H128015   0.485   2.957   5.543  0.7092  0.6565  0.5781
 2200TIP3    H228016   0.343   2.968   5.593  0.6152  0.6444  0.3133
 2201TIP3   OH228017   4.461   2.877   2.460 -0.4030 -0.4974  0.5967
 2201TIP3    H128018   4.520   2.850   2.389  0.0818  0.3980  0.6453
 2201TIP3    H228019   4.438   2.795   2.504  0.9864 -0.8481  0.7184
 2202TIP3   OH228020   4.656   0.563  17.157  0.3549 -0.0273  0.1611
 2202TIP3    H128021   4.589   0.494  17.159  1.7089 -1.4076  1.8969
 2202TIP3    H228022   4.737   0.516  17.135  1.1352  1.1942  0.3582
 2203TIP3   OH228023   4.550   5.294   1.135  0.1865  0.2030  0.3858
 2203TIP3    H128024   4.626   5.334   1.093  2.1685 -2.9805  0.6355
 2203TIP3    H228025   4.490   5.276   1.062  0.5325  0.9374 -0.0987
 2204TIP3   OH228026   1.369   2.656   6.435 -0.0310 -0.6796 -0.0260
 2204TIP3    H128027   1.289   2.641   6.485 -1.4180  2.2618 -1.1390
 2204TIP3    H228028   1.345   2.639   6.344  1.7436 -3.4414 -0.0861
 2205TIP3   OH228029   2.256   4.769   2.486 -0.2524 -0.1226 -0.5586
 2205TIP3    H128030   2.263   4.697   2.549  1.4070  1.4612  1.1766
 2205TIP3    H228031   2.335   4.762   2.432  1.7300  2.1935  1.7701
 2206TIP3   OH228032   0.842   6.627   3.172 -0.2308  0.9834  0.1979
 2206TIP3    H128033   0.852   6.593   3.261  0.1918  0.7521  0.0666
 2206TIP3    H228034   0.811   6.552   3.121  0.3971  0.8659 -0.0279
 2207TIP3   OH228035   3.293   4.448  13.847 -0.0134 -0.2082  0.0768
 2207TIP3    H128036   3.285   4.530  13.798  2.5745 -0.8420 -1.5497
 2207TIP3    H228037   3.238   4.386  13.800  0.8693 -0.2929 -0.8721
 2208TIP3   OH228038   1.096   4.490  11.256 -0.5590  0.4675 -0.1268
 2208TIP3    H128039   1.019   4.516  11.307 -0.0187 -0.9962  1.5137
 2208TIP3    H228040   1.079   4.526  11.169 -1.8731  2.4049  0.8401
 2209TIP3   OH228041   0.628   0.719   4.010  0.0622 -0.5976 -0.0378
 2209TIP3    H128042   0.693   0.741   4.076 -2.1428 -0.9711  2.4427
 2209TIP3    H228043   0.677   0.710   3.929  2.9894 -0.4699  1.6058
 2210TIP3   OH228044   0.873   3.808  14.284  0.0680  0.1324  0.1021
 2210TIP3    H128045   0.881   3.835  14.375 -1.6260  0.4374  0.1899
 2210TIP3    H228046   0.953   3.840  14.242  0.0428  1.5856  1.0942
 2211TIP3   OH228047   2.991   6.003  12.624 -0.3130  0.2807 -0.0753
 2211TIP3    H128048   3.070   6.047  12.593  0.5055 -1.3342 -0.4025
 2211TIP3    H228049   2.949   5.970  12.545 -1.9861  2.0726 -0.0245
 2212TIP3   OH228050   3.361   0.058  12.476  0.0975  0.0199  0.3700
 2212TIP3    H128051   3.306   0.127  12.513  0.0448  0.5722 -0.7074
 2212TIP3    H228052   3.327   0.045  12.387  0.8053 -0.6176  0.1846
 2213TIP3   OH228053   5.830   1.628   2.272  0.0370  0.4362 -0.1987
 2213TIP3    H128054   5.740   1.612   2.245  0.6012 -1.4770 -1.1007
 2213TIP3    H228055   5.838   1.586   2.357  0.0249  0.7857 -0.0242
 2214TIP3   OH228056   3.260   2.652   0.958  0.3711  0.3905 -0.4770
 2214TIP3    H128057   3.246   2.738   0.997 -0.0419 -0.8523  2.3524
 2214TIP3    H228058   3.335   2.616   1.005 -0.5362 -1.4557 -0.3499
 2215TIP3   OH228059   2.734   1.242  14.607  0.4078  0.4285 -0.3833
 2215TIP3    H128060   2.641   1.262  14.596  0.4213  0.3968 -0.5539
 2215TIP3    H228061   2.757   1.279  14.693  0.2521  0.4852 -0.3670
 2216TIP3   OH228062   5.541   3.318  15.906 -0.3857 -0.5291  0.1097
 2216TIP3    H128063   5.465   3.322  15.964 -0.7906 -1.2426 -0.3543
 2216TIP3    H228064   5.506   3.282  15.824 -0.5620  3.4676 -1.7874
 2217TIP3   OH228065   3.881   3.679   3.978 -0.4386 -0.0734 -0.2370
 2217TIP3    H128066   3.901   3.757   4.030 -0.3146 -0.0881 -0.2613
 2217TIP3    H228067   3.794   3.696   3.942 -0.2499  0.2253 -0.5604
 2218TIP3   OH228068   5.636   6.460  12.800  0.0663  0.3672  0.6606
 2218TIP3    H128069   5.694   6.429  12.869  0.1024  2.2360  1.5524
 2218TIP3    H228070   5.693   6.511  12.742  0.0332 -1.1679 -0.8071
 2219TIP3   OH228071   0.467   1.372  10.516  0.1204  0.0142  0.3023
 2219TIP3    H128072   0.536   1.438  10.528  0.6977 -0.6148  0.5191
 2219TIP3    H228073   0.428   1.394  10.432  1.4591 -0.3683 -0.4578
 2220TIP3   OH228074   6.153   1.375   1.636  0.3455 -0.6214  0.5661
 2220TIP3    H128075   6.113   1.374   1.549  1.5391  1.5804 -0.0992
 2220TIP3    H228076   6.100   1.436   1.686  1.7975  1.0945  0.1479
 2221TIP3   OH228077   0.485   3.930  16.784 -0.1574 -0.1599  0.5802
 2221TIP3    H128078   0.570   3.974  16.770  0.4563 -1.5178 -0.1161
 2221TIP3    H228079   0.452   3.913  16.696 -0.2454 -1.3373  0.8300
 2222TIP3   OH228080   3.594   3.859  13.506 -0.8547 -0.0253  0.2266
 2222TIP3    H128081   3.548   3.836  13.425 -0.3755 -0.4502  0.0708
 2222TIP3    H228082   3.524   3.886  13.566 -1.3800 -1.1515  0.1571
 2223TIP3   OH228083   2.809   2.320  11.340 -0.0874  0.3452 -0.1066
 2223TIP3    H128084   2.871   2.248  11.330 -1.5377 -1.1831  1.3492
 2223TIP3    H228085   2.816   2.369  11.258  0.0782 -2.1361 -1.6795
 2224TIP3   OH228086   6.457   4.614   2.254 -0.3611 -0.8179 -0.0841
 2224TIP3    H128087   6.479   4.659   2.335 -0.9983 -0.7381  0.0487
 2224TIP3    H228088   6.527   4.638   2.193 -1.5829  1.8942 -0.5914
 2225TIP3   OH228089   5.072   0.632   3.910  0.4064  0.0633  0.8324
 2225TIP3    H128090   5.022   0.592   3.981  2.2388  0.6685  2.5578
 2225TIP3    H228091   5.126   0.561   3.876 -0.6391 -0.2844 -0.1863
 2226TIP3   OH228092   1.417   1.976   5.299 -0.1922  0.1719 -0.1291
 2226TIP3    H128093   1.329   1.957   5.268  0.0958  0.9176 -1.4460
 2226TIP3    H228094   1.416   2.069   5.322  0.3604  0.2850 -0.5426
 2227TIP3   OH228095   2.174   0.368  13.023 -0.3490  0.5957  0.5219
 2227TIP3    H128096   2.207   0.322  12.946  0.5671 -0.9867  1.8010
 2227TIP3    H228097   2.251   0.378  13.080 -0.6199  3.2993  0.5328
 2228TIP3   OH228098   6.473   4.136   2.151  0.0858 -0.2646  0.7280
 2228TIP3    H128099   6.520   4.055   2.170  1.4917  0.3633  0.0728
 2228TIP3    H228100   6.460   4.134   2.056  0.1262  0.2690  0.7086
 2229TIP3   OH228101   2.958   0.814  15.146  0.2750  0.0365  0.4290
 2229TIP3    H128102   2.944   0.909  15.144  0.0908  0.0021 -0.2327
 2229TIP3    H228103   3.043   0.803  15.188  1.2486  0.6232 -1.3022
 2230TIP3   OH228104   1.229   6.006  13.256 -0.1761 -0.1015 -0.1829
 2230TIP3    H128105   1.136   6.023  13.270  0.2210  2.0243  0.1949
 2230TIP3    H228106   1.245   5.922  13.299 -1.6061  0.2588  1.1529
 2231TIP3   OH228107   4.213   0.566  10.453  0.6045 -0.2983 -0.3334
 2231TIP3    H128108   4.229   0.472  10.452  0.5764 -0.3084 -0.0609
 2231TIP3    H228109   4.253   0.596  10.535  0.7024 -0.0569 -0.4677
 2232TIP3   OH228110   4.455   0.265   1.940  0.4402  0.6565 -0.4101
 2232TIP3    H128111   4.446   0.194   2.004  0.5070 -0.0961 -1.2169
 2232TIP3    H228112   4.397   0.333   1.973  0.9074  0.5256  0.7649
 2233TIP3   OH228113   5.353   5.774   4.778  0.1484 -0.2626 -0.1708
 2233TIP3    H128114   5.429   5.717   4.788 -0.5032 -1.2094 -0.4060
 2233TIP3    H228115   5.367   5.845   4.840 -0.3252 -2.1234  2.1969
 2234TIP3   OH228116   5.227   4.570  13.269  0.4672 -0.0851  0.0881
 2234TIP3    H128117   5.269   4.504  13.214 -1.2770 -1.1939 -0.0028
 2234TIP3    H228118   5.186   4.519  13.339 -0.6603  0.9269  0.1993
 2235TIP3   OH228119   2.710   1.298  12.806  0.3370  0.3815 -0.0399
 2235TIP3    H128120   2.708   1.211  12.766 -0.6310 -0.0594  0.8875
 2235TIP3    H228121   2.631   1.300  12.860  1.0988  1.2837  1.0897
 2236TIP3   OH228122   2.501   1.026  17.056  0.6718 -0.8090  0.1719
 2236TIP3    H128123   2.585   1.038  17.012  2.6964 -1.6002  3.4076
 2236TIP3    H228124   2.491   1.104  17.110  0.1674 -1.4457  1.0349
 2237TIP3   OH228125   6.142   6.276   3.110  0.4304 -0.3242  0.2147
 2237TIP3    H128126   6.175   6.202   3.059  0.2030 -1.5270  1.7516
 2237TIP3    H228127   6.181   6.265   3.196  1.4793  2.1423  0.1306
 2238TIP3   OH228128   5.607   5.757   2.422 -0.2423 -0.2811 -0.6326
 2238TIP3    H128129   5.591   5.840   2.467  0.8587 -1.2032  1.6006
 2238TIP3    H228130   5.694   5.766   2.385 -0.9518  0.2888 -2.2548
 2239TIP3   OH228131   0.378   5.789  11.136  0.3864  0.3748  0.0059
 2239TIP3    H128132   0.294   5.833  11.129  0.3499  0.4817  0.9898
 2239TIP3    H228133   0.410   5.811  11.224  2.0920  1.4893 -0.8327
 2240TIP3   OH228134   5.128   5.369  16.891 -0.4989  0.5491  0.0193
 2240TIP3    H128135   5.116   5.342  16.800  3.7044  0.3122 -0.6400
 2240TIP3    H228136   5.070   5.444  16.901 -3.2145 -1.1184 -1.8860
 2241TIP3   OH228137   6.393   1.088  10.935 -0.1840 -0.1900 -0.7142
 2241TIP3    H128138   6.483   1.066  10.912  0.4499  0.4568  1.0576
 2241TIP3    H228139   6.399   1.167  10.988 -1.7106 -0.6457  0.2183
 2242TIP3   OH228140   1.856   3.887  16.452  0.4103  0.4809 -0.2500
 2242TIP3    H128141   1.869   3.821  16.384 -2.1818  1.8892 -2.2751
 2242TIP3    H228142   1.914   3.959  16.427  1.5098 -0.0529  0.6616
 2243TIP3   OH228143   2.974   0.991  10.825  0.4076  0.4842 -0.1467
 2243TIP3    H128144   2.932   0.988  10.911  0.3749  1.1412 -0.1294
 2243TIP3    H228145   3.065   0.966  10.841 -0.2387 -2.2940 -0.3965
 2244TIP3   OH228146   0.925   5.935   0.010  0.0097  0.1945  0.4183
 2244TIP3    H128147   0.968   5.936  -0.076 -0.1545  1.7272  0.3347
 2244TIP3    H228148   0.940   5.846   0.043  1.2714  0.0020 -0.5954
 2245TIP3   OH228149   6.649   1.050   1.452  0.6518 -0.1229  0.5734
 2245TIP3    H128150   6.647   1.070   1.546 -0.1461  1.4744  0.2495
 2245TIP3    H228151   6.609   1.126   1.410  0.3468 -1.1109 -1.0289
 2246TIP3   OH228152   4.184   3.402  16.797 -0.5941  0.7059 -0.1584
 2246TIP3    H128153   4.270   3.445  16.802 -0.7805  1.4743 -2.4732
 2246TIP3    H228154   4.198   3.316  16.835  0.9185  1.2054  0.4973
 2247TIP3   OH228155   0.091   5.963   0.940  0.0151 -0.1441 -0.0587
 2247TIP3    H128156   0.038   5.884   0.932 -0.8136  0.3308  0.5875
 2247TIP3    H228157   0.030   6.034   0.922  0.6376  0.3763 -0.1454
 2248TIP3   OH228158   3.303   0.763  11.140  0.1555 -0.0892  0.1406
 2248TIP3    H128159   3.273   0.732  11.225 -0.4731  0.7534  0.2413
 2248TIP3    H228160   3.398   0.768  11.148  0.2579 -1.7682  0.1739
 2249TIP3   OH228161   0.169   6.548   2.679 -0.6425  0.0928  0.0449
 2249TIP3    H128162   0.110   6.474   2.692 -0.2939 -0.4897 -1.5051
 2249TIP3    H228163   0.251   6.522   2.721 -0.7196 -0.1341  0.0518
 2250TIP3   OH228164   5.985   2.688  11.034  0.0207 -0.4231  0.4904
 2250TIP3    H128165   6.011   2.666  11.123  1.0307 -0.1009  0.2923
 2250TIP3    H228166   6.057   2.655  10.980  1.4199  2.8375  0.1197
 2251TIP3   OH228167   5.941   3.855  11.592  0.4724  0.0338  0.7339
 2251TIP3    H128168   5.922   3.892  11.678 -2.4661 -1.3545  0.8195
 2251TIP3    H228169   5.887   3.907  11.532  0.0547 -0.9829  0.2029
 2252TIP3   OH228170   0.820   3.542  14.243 -0.0427  0.1522  0.4401
 2252TIP3    H128171   0.732   3.528  14.280 -0.5628  0.1959 -0.7430
 2252TIP3    H228172   0.831   3.637  14.244 -0.4871  0.2241 -0.4490
 2253TIP3   OH228173   5.341   4.811   1.865 -0.3391  0.0752  0.1126
 2253TIP3    H128174   5.275   4.837   1.801 -0.6221 -0.2300  0.2781
 2253TIP3    H228175   5.409   4.877   1.857 -1.1346  1.0009  0.6538
 2254TIP3   OH228176   1.100   6.066   3.979  0.9135 -0.1134 -0.6088
 2254TIP3    H128177   1.098   6.131   4.049 -0.3209  0.1680 -0.8768
 2254TIP3    H228178   1.050   6.105   3.908  1.5122 -0.7064 -1.3761
 2255TIP3   OH228179   1.536   4.212   4.213  0.1744  0.2218 -0.0305
 2255TIP3    H128180   1.561   4.195   4.304  1.1108  1.3554 -0.0390
 2255TIP3    H228181   1.551   4.129   4.168  2.6957  0.4368  0.2662
 2256TIP3   OH228182   6.754   5.963  13.657 -0.1030  0.3478  0.1753
 2256TIP3    H128183   6.670   5.973  13.702  0.4778  2.3946  0.9110
 2256TIP3    H228184   6.819   5.990  13.721  1.3255 -2.6021  0.1273
 2257TIP3   OH228185   0.673   4.024   0.339  0.0853 -0.4269 -0.0518
 2257TIP3    H128186   0.599   3.971   0.368  0.8726 -1.5199  0.0666
 2257TIP3    H228187   0.635   4.096   0.289 -1.0610 -0.7607  0.3272
 2258TIP3   OH228188   2.014   4.883  12.267  0.0153 -0.0828  0.6178
 2258TIP3    H128189   2.004   4.961  12.321 -0.5936 -0.5318  1.1607
 2258TIP3    H228190   1.929   4.841  12.270  0.9859 -2.1116  2.4215
 2259TIP3   OH228191   4.044   2.495  13.944 -0.4457  0.1537 -0.3233
 2259TIP3    H128192   4.048   2.423  13.881 -0.8989 -1.2600  1.1997
 2259TIP3    H228193   4.113   2.475  14.007  0.1912  1.6998 -0.4960
 2260TIP3   OH228194   1.782   1.979  11.553 -0.0002 -0.3057 -0.6156
 2260TIP3    H128195   1.830   2.034  11.615 -0.1876 -0.5011 -0.2923
 2260TIP3    H228196   1.840   1.970  11.478  0.2470 -0.1023 -0.4495
 2261TIP3   OH228197   5.420   4.768  12.573 -0.2155  0.0123  1.2046
 2261TIP3    H128198   5.369   4.846  12.597 -0.5324  1.5511 -3.4436
 2261TIP3    H228199   5.511   4.795  12.585 -0.3172  1.2468 -0.4064
 2262TIP3   OH228200   2.870   6.683   1.794  0.4409 -0.7241  0.5651
 2262TIP3    H128201   2.848   6.770   1.761 -0.7794 -0.7830  1.1707
 2262TIP3    H228202   2.965   6.678   1.786  1.0683  2.1055  3.9080
 2263TIP3   OH228203   0.536   6.284  12.341 -0.6932 -0.8749  0.2979
 2263TIP3    H128204   0.575   6.196  12.350  0.4045 -0.3443  1.0787
 2263TIP3    H228205   0.542   6.321  12.430  0.9181  0.7943 -0.4263
 2264TIP3   OH228206   2.891   1.188   1.184  0.4752  0.3217 -0.4452
 2264TIP3    H128207   2.986   1.182   1.186  0.5496  0.7353  2.9959
 2264TIP3    H228208   2.872   1.281   1.197 -0.3074 -0.1151  1.9779
 2265TIP3   OH228209   1.151   2.343  16.971 -0.7180 -0.1162  0.4368
 2265TIP3    H128210   1.223   2.397  17.003 -1.3805  0.1018  1.6220
 2265TIP3    H228211   1.143   2.273  17.037 -2.0391  0.2790  0.7126
 2266TIP3   OH228212   0.947   1.984  15.565 -0.3688 -0.3971 -0.0102
 2266TIP3    H128213   0.871   1.991  15.507  0.5171 -0.2633 -1.2033
 2266TIP3    H228214   0.944   1.894  15.598 -1.0340 -0.3988 -0.0582
 2267TIP3   OH228215   4.658   0.507  13.689 -0.4821 -0.8814 -0.0602
 2267TIP3    H128216   4.670   0.412  13.683 -2.7236 -1.2955  0.7769
 2267TIP3    H228217   4.609   0.530  13.610 -0.4616 -0.5280  0.0298
 2268TIP3   OH228218   2.482   5.645   1.423  0.1477  0.0513  0.0608
 2268TIP3    H128219   2.422   5.720   1.416  0.0615  0.0017  0.2648
 2268TIP3    H228220   2.501   5.621   1.332  0.7577  0.7867 -0.0178
 2269TIP3   OH228221   5.829   2.046   4.207 -0.4424 -0.3223  0.1538
 2269TIP3    H128222   5.764   2.030   4.276 -0.8123 -0.5429 -0.2389
 2269TIP3    H228223   5.901   2.089   4.252 -1.5709  1.5130  0.3100
 2270TIP3   OH228224   5.661   2.384  13.075  0.3823  0.2706  0.2388
 2270TIP3    H128225   5.679   2.316  13.011 -0.3434 -0.4893  0.8242
 2270TIP3    H228226   5.748   2.420  13.096  0.5335  1.4081 -2.0501
 2271TIP3   OH228227   5.242   4.913  17.059 -0.3482 -0.9292 -0.1535
 2271TIP3    H128228   5.291   4.959  16.991  3.0135 -0.3717  2.4057
 2271TIP3    H228229   5.165   4.969  17.074  0.5702  0.7101 -1.2142
 2272TIP3   OH228230   2.773   1.784   0.570  0.2974 -0.5912 -0.3239
 2272TIP3    H128231   2.751   1.839   0.495  1.7550 -0.1368 -0.4392
 2272TIP3    H228232   2.855   1.819   0.603  0.4730 -1.7527  0.5488
 2273TIP3   OH228233   6.390   0.843   2.020 -0.1030  0.3482 -0.3080
 2273TIP3    H128234   6.296   0.824   2.027  0.1409 -0.9036 -0.2362
 2273TIP3    H228235   6.414   0.874   2.107  0.0425 -1.7484  0.4503
 2274TIP3   OH228236   4.217   4.183   2.424 -0.9242 -0.4452  0.0159
 2274TIP3    H128237   4.180   4.102   2.460 -0.3099 -1.7191 -2.0578
 2274TIP3    H228238   4.304   4.190   2.465 -1.0596 -0.7171  0.3536
 2275TIP3   OH228239   2.688   3.399  15.193 -0.3335 -0.2820  0.1771
 2275TIP3    H128240   2.674   3.309  15.223 -1.5003 -0.5353 -1.0071
 2275TIP3    H228241   2.772   3.425  15.232 -0.5258 -1.4710  1.4604
 2276TIP3   OH228242   6.242   5.304  17.117 -0.0164  0.1257  0.6162
 2276TIP3    H128243   6.233   5.239  17.047 -1.2882  2.1716 -1.2465
 2276TIP3    H228244   6.164   5.292  17.172 -0.4405  0.3108  0.0592
 2277TIP3   OH228245   2.792   3.469  14.894  0.1818 -0.8475  0.3459
 2277TIP3    H128246   2.708   3.488  14.852  1.0278  2.8180  0.0045
 2277TIP3    H228247   2.769   3.450  14.985 -1.0065  1.4706  0.6001
 2278TIP3   OH228248   1.363   1.739  16.128 -0.2784 -0.1700  0.0985
 2278TIP3    H128249   1.327   1.783  16.205  1.7964 -0.2100  1.1630
 2278TIP3    H228250   1.324   1.651  16.131  1.1247 -0.8029  2.2178
 2279TIP3   OH228251   4.826   0.905  13.125 -0.2376 -0.6177  0.0069
 2279TIP3    H128252   4.883   0.834  13.153 -0.2187 -0.7766 -0.4205
 2279TIP3    H228253   4.737   0.870  13.136 -0.3356  0.1715  2.1347
 2280TIP3   OH228254   0.501   4.243  16.798  0.1866 -0.6530 -0.6539
 2280TIP3    H128255   0.558   4.168  16.779  0.1757 -0.7854 -0.1870
 2280TIP3    H228256   0.416   4.204  16.815  0.5371 -0.7104  1.2180
 2281TIP3   OH228257   2.919   3.667   3.774  0.5059 -0.4661  0.2624
 2281TIP3    H128258   2.957   3.737   3.721  0.8739 -0.5693  0.3841
 2281TIP3    H228259   2.957   3.680   3.861  1.8255 -1.7574 -0.0869
 2282TIP3   OH228260   0.086   3.820  12.712  0.5557  0.4735 -0.6171
 2282TIP3    H128261   0.173   3.860  12.716  0.5374  0.4438  0.1195
 2282TIP3    H228262   0.103   3.728  12.690  0.5998  0.8304 -2.2462
 2283TIP3   OH228263   0.130   1.601  15.193 -0.1771 -0.5615  0.3364
 2283TIP3    H128264   0.213   1.570  15.157 -0.6547 -0.0161 -1.3016
 2283TIP3    H228265   0.135   1.696  15.187 -0.7497 -0.5086  0.6350
 2284TIP3   OH228266   5.137   0.237   2.316  0.6528 -0.7881 -0.2523
 2284TIP3    H128267   5.046   0.232   2.286  0.6044  1.6304 -0.7171
 2284TIP3    H228268   5.137   0.191   2.400 -0.4492 -2.8391 -1.3103
 2285TIP3   OH228269   1.724   5.414  11.952  0.2482 -0.0993  0.2107
 2285TIP3    H128270   1.781   5.453  11.887  0.0039 -1.7770 -1.1006
 2285TIP3    H228271   1.637   5.416  11.911 -0.3404  0.8351  1.4436
 2286TIP3   OH228272   4.044   0.143   2.060  0.4415 -0.2909 -0.0435
 2286TIP3    H128273   3.965   0.089   2.066 -0.1103  0.4816 -0.1027
 2286TIP3    H228274   4.105   0.104   2.122 -1.0257  0.7713  2.2395
 2287TIP3   OH228275   4.461   2.286   2.272  0.0755  0.5861 -0.1804
 2287TIP3    H128276   4.497   2.200   2.295  1.5349  1.4478  0.9192
 2287TIP3    H228277   4.489   2.343   2.343 -0.3139  2.1249 -1.2265
 2288TIP3   OH228278   5.357   1.084   4.232  0.3873 -0.1340 -0.1052
 2288TIP3    H128279   5.336   1.172   4.203  1.6948 -0.3538 -1.9626
 2288TIP3    H228280   5.356   1.032   4.152  3.6282 -0.9411  0.2337
 2289TIP3   OH228281   2.799   3.507   5.010 -0.0722  0.6445  0.2425
 2289TIP3    H128282   2.764   3.474   5.093 -0.3935  1.3501  0.3985
 2289TIP3    H228283   2.729   3.561   4.974 -0.6630 -1.1133 -1.4090
 2290TIP3   OH228284   0.256   4.482   0.513 -0.2239  0.1341 -0.1280
 2290TIP3    H128285   0.264   4.431   0.594  1.3066  1.0203  0.3093
 2290TIP3    H228286   0.190   4.548   0.532  0.5439  0.7083  0.6335
 2291TIP3   OH228287   4.918   1.451  14.404 -0.1227  0.1557  0.1295
 2291TIP3    H128288   4.939   1.443  14.311 -1.6963 -0.4725 -0.1990
 2291TIP3    H228289   4.830   1.415  14.413  0.1655 -0.2267  1.9554
 2292TIP3   OH228290   5.917   1.411   2.079  0.3376 -0.3325  0.4771
 2292TIP3    H128291   5.982   1.374   2.140  0.8070 -0.2533  0.0309
 2292TIP3    H228292   5.880   1.335   2.035  0.1555 -0.3741  0.6964
 2293TIP3   OH228293   1.580   4.735  14.834 -0.3219  0.2347 -0.2415
 2293TIP3    H128294   1.501   4.787  14.819  0.4010  0.5234 -3.8085
 2293TIP3    H228295   1.555   4.646  14.810  0.2034  0.1923 -0.6552
 2294TIP3   OH228296   0.760   2.317   1.737  0.2626 -0.7431  0.0332
 2294TIP3    H128297   0.719   2.391   1.692 -0.7721 -0.8998  0.6866
 2294TIP3    H228298   0.719   2.240   1.697 -1.0289 -0.8822  1.5096
 2295TIP3   OH228299   5.751   0.074  14.401 -0.1731 -0.2921 -0.1850
 2295TIP3    H128300   5.734  -0.014  14.366 -2.5708  0.0586 -0.0620
 2295TIP3    H228301   5.846   0.084  14.394  0.2656 -3.1293  0.3885
 2296TIP3   OH228302   3.630   2.074   1.313  0.3265 -0.2082  0.0424
 2296TIP3    H128303   3.589   2.159   1.329 -1.9460 -1.3558  0.7091
 2296TIP3    H228304   3.666   2.049   1.398  0.6486 -0.0904 -0.0592
 2297TIP3   OH228305   3.236   0.307   3.901  0.3822  0.0031 -0.5531
 2297TIP3    H128306   3.236   0.286   3.807 -1.8402  0.8657 -0.8094
 2297TIP3    H228307   3.234   0.221   3.944  0.5871 -0.3917 -1.3024
 2298TIP3   OH228308   2.124   6.117  16.715 -0.1853  0.5226  0.0973
 2298TIP3    H128309   2.165   6.072  16.641  1.5302  1.4380  0.4536
 2298TIP3    H228310   2.084   6.195  16.676 -1.7571 -0.4293 -0.2665
 2299TIP3   OH228311   1.226   0.639  12.561 -0.2247  0.5693  0.5244
 2299TIP3    H128312   1.168   0.590  12.503 -0.9582  0.5014  1.2782
 2299TIP3    H228313   1.272   0.700  12.504 -1.9699  1.4957  0.0314
 2300TIP3   OH228314   0.351   3.934  16.516  0.2351  0.6856  0.5016
 2300TIP3    H128315   0.423   3.915  16.455  0.1143  1.2017  0.1890
 2300TIP3    H228316   0.364   4.025  16.541  0.2828  0.4768  1.2614
 2301TIP3   OH228317   1.912   4.859   0.873 -0.0189 -1.1102 -0.5441
 2301TIP3    H128318   1.959   4.798   0.817  0.5890 -1.3147  0.1627
 2301TIP3    H228319   1.888   4.807   0.950 -1.3227 -0.9802 -0.8375
 2302TIP3   OH228320   1.523   3.767  11.220 -0.3971 -0.3715 -0.5145
 2302TIP3    H128321   1.447   3.824  11.224  0.7117  1.1317  1.3178
 2302TIP3    H228322   1.519   3.726  11.134 -4.0412 -1.5315  0.0550
 2303TIP3   OH228323   2.792   2.731   0.990 -0.0319  0.2465  0.3963
 2303TIP3    H128324   2.710   2.763   0.954  0.7187  1.8689  0.0355
 2303TIP3    H228325   2.849   2.808   0.992  2.0224 -1.1551 -0.8860
 2304TIP3   OH228326   4.046   5.754  12.587  1.0190  0.0754  0.1106
 2304TIP3    H128327   4.046   5.703  12.667 -0.1342  1.3310  0.9625
 2304TIP3    H228328   4.138   5.777  12.572  1.3399 -0.8646  0.5907
 2305TIP3   OH228329   3.335   6.456  11.933  0.0150 -0.1252  0.1632
 2305TIP3    H128330   3.427   6.482  11.945  1.4812 -3.5679 -2.1803
 2305TIP3    H228331   3.310   6.496  11.850  0.0080 -0.6444 -0.0854
 2306TIP3   OH228332   4.407   0.648   1.840  0.7363 -0.5961  0.4091
 2306TIP3    H128333   4.385   0.673   1.930  0.4500 -1.2415  0.5206
 2306TIP3    H228334   4.342   0.582   1.816  1.0794 -0.7503 -0.1145
 2307TIP3   OH228335   0.081   1.013  13.443 -0.6246 -0.3992  0.2131
 2307TIP3    H128336   0.034   1.035  13.363  0.7764 -0.0303 -0.5384
 2307TIP3    H228337   0.143   0.945  13.416 -0.1886 -0.3255  1.0064
 2308TIP3   OH228338   1.481   4.850   0.706  0.3295  0.7071  0.4620
 2308TIP3    H128339   1.406   4.811   0.751 -0.1444  0.3223 -0.6117
 2308TIP3    H228340   1.462   4.944   0.705  0.5353  0.7660  1.3784
 2309TIP3   OH228341   0.293   3.268  11.353 -0.1570 -0.4943 -0.2356
 2309TIP3    H128342   0.255   3.259  11.266 -1.4730  0.3113  0.2295
 2309TIP3    H228343   0.226   3.234  11.412  0.5460 -0.6332  0.5009
 2310TIP3   OH228344   6.485   5.841   4.804 -0.2317  0.3528 -0.5031
 2310TIP3    H128345   6.502   5.784   4.729  0.3994  1.4104 -1.1797
 2310TIP3    H228346   6.498   5.930   4.771  2.7845  0.7974  1.5131
 2311TIP3   OH228347   5.736   1.171  11.686  0.4402 -0.0855 -0.2295
 2311TIP3    H128348   5.695   1.128  11.612 -0.0615 -0.7153  0.3984
 2311TIP3    H228349   5.826   1.188  11.657 -0.4212  2.0444 -1.9064
 2312TIP3   OH228350   1.020   5.073   3.582 -0.0169 -0.0809  0.4400
 2312TIP3    H128351   0.981   5.034   3.660 -1.0582 -0.1415 -0.0994
 2312TIP3    H228352   0.996   5.165   3.586 -1.6850 -0.4141 -0.7268
 2313TIP3   OH228353   2.312   2.803   4.587  0.5284  0.7467 -0.3847
 2313TIP3    H128354   2.372   2.877   4.594  1.3164  0.1089 -0.1925
 2313TIP3    H228355   2.237   2.837   4.539  0.9281  1.6333 -0.3998
 2314TIP3   OH228356   4.020   5.826   3.539 -0.6629  1.1343  0.4585
 2314TIP3    H128357   4.027   5.912   3.580  1.1312  0.5802  1.4303
 2314TIP3    H228358   4.066   5.767   3.599  0.1054 -0.1131 -1.2629
 2315TIP3   OH228359   1.622   6.319   4.195  0.4809 -0.0115 -0.2698
 2315TIP3    H128360   1.615   6.267   4.115  0.4357 -0.1981 -0.1461
 2315TIP3    H228361   1.557   6.281   4.254  0.4828  0.1548 -0.1609
 2316TIP3   OH228362   2.316   5.819  13.561  0.3442 -0.5719  0.6661
 2316TIP3    H128363   2.329   5.801  13.654  1.4035 -1.5588  0.3560
 2316TIP3    H228364   2.355   5.744  13.516  0.4245  0.1760 -0.5896
 2317TIP3   OH228365   1.956   4.921  15.310 -0.1888 -0.3888 -1.0242
 2317TIP3    H128366   1.866   4.922  15.342 -0.2200 -1.8591 -0.9646
 2317TIP3    H228367   2.007   4.881  15.381  0.9848  2.6029 -0.0514
 2318TIP3   OH228368   0.298   1.220  11.049 -0.2213  0.1536  0.1847
 2318TIP3    H128369   0.294   1.220  11.144  0.3393  0.5318  0.2126
 2318TIP3    H228370   0.213   1.253  11.020  0.3323  2.0630  0.5974
 2319TIP3   OH228371   4.439   2.696   5.178  0.6587  0.2897 -0.7340
 2319TIP3    H128372   4.430   2.791   5.187  0.3630  0.3404 -1.4792
 2319TIP3    H228373   4.433   2.662   5.268  0.8667  0.9816 -0.4587
 2320TIP3   OH228374   6.130   4.929   2.363  1.0041  0.2458 -0.1950
 2320TIP3    H128375   6.069   4.910   2.291  0.5895  2.1748 -0.4145
 2320TIP3    H228376   6.073   4.948   2.438  1.3726  0.2893  0.0748
 2321TIP3   OH228377   5.591   4.725   2.504 -0.0400 -0.1435 -0.1348
 2321TIP3    H128378   5.675   4.695   2.469 -0.5420 -0.9102 -0.7112
 2321TIP3    H228379   5.574   4.808   2.459  0.2790 -0.1146 -0.2078
 2322TIP3   OH228380   4.521   0.303  12.931 -0.3005  0.5434 -0.2696
 2322TIP3    H128381   4.521   0.268  12.842  1.2935  0.2113 -0.1737
 2322TIP3    H228382   4.593   0.257  12.975 -0.5373  1.2856  0.9451
 2323TIP3   OH228383   2.086   0.513   5.220  0.9071  0.0864  0.2267
 2323TIP3    H128384   2.166   0.520   5.168  1.0522 -0.4505  0.3717
 2323TIP3    H228385   2.056   0.603   5.231 -0.0370  0.1491 -2.1974
 2324TIP3   OH228386   2.952   3.078   2.515  0.5203  0.3916  0.7117
 2324TIP3    H128387   3.005   3.059   2.437 -0.8050 -0.3341 -0.0423
 2324TIP3    H228388   2.951   2.996   2.564  1.2705  0.8196  1.4804
 2325TIP3   OH228389   3.156   3.892   2.555 -0.4734  0.3235 -0.1535
 2325TIP3    H128390   3.214   3.945   2.501 -0.6448 -0.0145 -0.6827
 2325TIP3    H228391   3.101   3.845   2.492  0.1500 -1.0276  0.2628
 2326TIP3   OH228392   2.710   3.925   4.886 -0.3804 -0.4036  0.4428
 2326TIP3    H128393   2.658   3.877   4.822 -0.9107  0.3699  0.2841
 2326TIP3    H228394   2.700   3.876   4.967  0.0451 -1.2176  0.0165
 2327TIP3   OH228395   5.525   5.055  11.429  1.0719 -0.2075  0.0057
 2327TIP3    H128396   5.544   4.963  11.409 -1.0455 -0.7997  0.4971
 2327TIP3    H228397   5.445   5.075  11.380 -0.9814  0.0021  3.1357
 2328TIP3   OH228398   5.966   4.581   5.047 -0.2416  0.3624  0.7259
 2328TIP3    H128399   5.952   4.660   4.995 -0.7187  1.4883  2.4618
 2328TIP3    H228400   5.941   4.509   4.990 -1.8003  1.6023 -0.2339
 2329TIP3   OH228401   0.568   6.524  12.067  0.1422  0.1794  0.5404
 2329TIP3    H128402   0.614   6.473  12.000  1.7658  0.0656  1.7079
 2329TIP3    H228403   0.627   6.597  12.088 -1.3638  1.5586  0.1995
 2330TIP3   OH228404   6.277   2.507  13.700  0.0279  0.5674  0.1415
 2330TIP3    H128405   6.285   2.447  13.625 -3.0734  1.4789 -1.0708
 2330TIP3    H228406   6.359   2.496  13.748  1.2598 -1.6471 -2.2110
 2331TIP3   OH228407   0.147   2.943  12.518  1.0179 -0.6543 -0.0805
 2331TIP3    H128408   0.072   2.950  12.576  2.7984  2.2101  2.1746
 2331TIP3    H228409   0.123   2.992  12.440 -0.0078 -1.1901 -0.1108
 2332TIP3   OH228410   4.939   6.146  15.448  0.2968 -0.6644 -0.0811
 2332TIP3    H128411   4.871   6.081  15.428  0.0878 -0.5388  0.2163
 2332TIP3    H228412   4.991   6.152  15.367 -0.8346  0.2179 -0.7753
 2333TIP3   OH228413   5.551   4.597   3.895  0.2690  0.1402 -0.1528
 2333TIP3    H128414   5.530   4.689   3.880  0.0526 -0.0071 -0.8035
 2333TIP3    H228415   5.493   4.550   3.835 -1.4251 -0.5548  1.9114
 2334TIP3   OH228416   5.681   4.454  12.758 -0.4597  0.1685  0.2298
 2334TIP3    H128417   5.771   4.465  12.789 -0.3968  0.0859  0.0785
 2334TIP3    H228418   5.632   4.525  12.799 -0.2708  0.3778  0.0963
 2335TIP3   OH228419   6.764   0.822   1.574 -0.1846  0.0679 -0.0723
 2335TIP3    H128420   6.768   0.833   1.669  0.4354  0.1192 -0.0984
 2335TIP3    H228421   6.768   0.912   1.539 -0.0023  0.0283 -0.1555
 2336TIP3   OH228422   4.820   3.563  12.285  0.1723  0.0512  1.1586
 2336TIP3    H128423   4.800   3.526  12.199  0.8514  1.6441  0.2685
 2336TIP3    H228424   4.738   3.554  12.334 -1.2293  1.7747 -0.6730
 2337TIP3   OH228425   4.884   6.225   4.482  0.7691 -0.4200 -0.4554
 2337TIP3    H128426   4.950   6.232   4.550 -0.3795  0.6821  0.5828
 2337TIP3    H228427   4.848   6.313   4.474 -0.0731 -0.8357 -1.5201
 2338TIP3   OH228428   1.187   1.946  15.873  0.0088 -0.1225 -0.5341
 2338TIP3    H128429   1.174   1.976  15.963 -2.7118 -3.0489  0.2392
 2338TIP3    H228430   1.179   1.851  15.878  0.5755 -0.4723 -3.7916
 2339TIP3   OH228431   0.354   5.489   0.641 -0.1813  0.2505 -0.8008
 2339TIP3    H128432   0.419   5.419   0.641  0.2411  0.6074 -1.8199
 2339TIP3    H228433   0.366   5.532   0.555 -2.6385 -0.4700 -1.5731
 2340TIP3   OH228434   4.434   2.022  10.480  0.2261  0.0759  0.1885
 2340TIP3    H128435   4.527   2.013  10.502  0.1980  2.3276  1.5593
 2340TIP3    H228436   4.402   1.933  10.471  1.8762 -0.8475  2.6091
 2341TIP3   OH228437   0.401   0.595   4.323 -0.2719  0.8271  0.4105
 2341TIP3    H128438   0.410   0.548   4.240  0.4051 -0.2161  1.0623
 2341TIP3    H228439   0.484   0.581   4.368 -0.9777  0.6008  1.6683
 2342TIP3   OH228440   6.326   6.061   5.687  0.4472 -0.2692  0.5334
 2342TIP3    H128441   6.339   5.977   5.732  1.4993  0.9811  2.7201
 2342TIP3    H228442   6.258   6.043   5.622  0.2565 -2.6779  1.3087
 2343TIP3   OH228443   3.485   6.275   3.509  0.3311  0.4678 -0.1439
 2343TIP3    H128444   3.505   6.287   3.602 -3.5204 -0.5843  0.9957
 2343TIP3    H228445   3.470   6.363   3.476  1.1786  0.8102  0.3585
 2344TIP3   OH228446   3.681   4.758   4.651 -0.1111 -0.1162  0.1886
 2344TIP3    H128447   3.586   4.757   4.643 -0.2666 -0.9306  1.8250
 2344TIP3    H228448   3.711   4.805   4.573 -1.7715 -0.9191 -0.9845
 2345TIP3   OH228449   5.657   0.394  16.107 -0.0983  0.1482 -0.3732
 2345TIP3    H128450   5.583   0.447  16.079 -0.0493  0.0499 -0.6899
 2345TIP3    H228451   5.731   0.427  16.057  0.1467  0.4806  0.1998
 2346TIP3   OH228452   0.732   3.067   4.360  0.8427  0.3808 -0.0516
 2346TIP3    H128453   0.698   3.022   4.283  2.4590 -0.8363 -0.0967
 2346TIP3    H228454   0.674   3.142   4.371  0.1752  0.2139 -2.0443
 2347TIP3   OH228455   2.786   6.276  16.592 -0.0209 -0.2482 -0.4992
 2347TIP3    H128456   2.757   6.214  16.659  0.4852 -0.7800 -0.7721
 2347TIP3    H228457   2.749   6.360  16.621 -3.3017 -1.1171 -1.6801
 2348TIP3   OH228458   4.842   2.308  11.467  0.4261 -0.3500 -0.9368
 2348TIP3    H128459   4.908   2.378  11.467  1.4694 -1.2960 -1.1378
 2348TIP3    H228460   4.890   2.231  11.499 -0.7998 -0.8868 -0.3399
 2349TIP3   OH228461   2.389   5.948   5.509 -0.0016 -0.0529 -0.3295
 2349TIP3    H128462   2.408   5.854   5.518  0.2184 -0.1753 -1.8248
 2349TIP3    H228463   2.309   5.951   5.457 -0.6682  0.5895  0.6989
 2350TIP3   OH228464   0.586   4.366  14.195 -0.3236  0.0087  0.2007
 2350TIP3    H128465   0.577   4.331  14.284  0.8380  1.5670  0.9775
 2350TIP3    H228466   0.680   4.361  14.177 -0.4580  0.4130 -0.6475
 2351TIP3   OH228467   0.711   4.559   6.342  0.3835  0.0039  0.0964
 2351TIP3    H128468   0.766   4.611   6.401  2.2823 -0.1784 -1.4331
 2351TIP3    H228469   0.644   4.621   6.313  1.9960  1.3915 -0.8919
 2352TIP3   OH228470   6.152   0.155   0.403  0.2180  0.0984 -0.1630
 2352TIP3    H128471   6.102   0.236   0.395  0.7764  0.7957  2.5426
 2352TIP3    H228472   6.088   0.091   0.435 -0.1319 -0.5146 -1.9378
 2353TIP3   OH228473   5.232   2.269   2.040  0.1501 -0.0128  0.2408
 2353TIP3    H128474   5.139   2.267   2.019  0.0940 -0.4090  0.5012
 2353TIP3    H228475   5.259   2.177   2.040  0.1411 -0.0508  1.8460
 2354TIP3   OH228476   4.144   5.514   3.939 -0.2578 -0.4653  0.4404
 2354TIP3    H128477   4.084   5.463   3.884 -0.8643  2.0180 -1.3600
 2354TIP3    H228478   4.115   5.496   4.029 -3.0632 -0.1945 -0.3249
 2355TIP3   OH228479   5.364   5.246  12.702 -0.3481  0.0761 -0.2213
 2355TIP3    H128480   5.457   5.265  12.707 -0.4778  0.6715  0.0259
 2355TIP3    H228481   5.351   5.172  12.762 -0.4829  1.7967  2.0295
 2356TIP3   OH228482   5.944   4.489  12.856 -0.1935 -0.1504 -0.1677
 2356TIP3    H128483   5.935   4.496  12.951 -0.3044 -0.0152 -0.1879
 2356TIP3    H228484   6.026   4.442  12.843  1.3470  2.3420 -0.0496
 2357TIP3   OH228485   4.040   5.035   2.623  0.5148 -0.1191  0.2366
 2357TIP3    H128486   4.063   5.041   2.715  1.0949 -1.1683  0.1741
 2357TIP3    H228487   4.123   5.042   2.576  0.1202  1.5228 -0.2843
 2358TIP3   OH228488   5.368   3.544  13.696 -0.2325 -0.3161 -0.0077
 2358TIP3    H128489   5.436   3.481  13.671  2.1187  2.0983 -0.2307
 2358TIP3    H228490   5.295   3.525  13.638 -0.7840 -4.4593  1.6677
 2359TIP3   OH228491   1.208   5.213   2.534 -0.2351 -0.2878  0.1932
 2359TIP3    H128492   1.224   5.124   2.567 -0.7397  0.8026  3.7863
 2359TIP3    H228493   1.253   5.270   2.596 -0.7494  2.0633 -1.4477
 2360TIP3   OH228494   0.391   3.467  15.441  0.5377 -0.5508 -0.3460
 2360TIP3    H128495   0.309   3.464  15.392  1.4435 -2.0566 -1.8635
 2360TIP3    H228496   0.376   3.411  15.516 -0.4741  0.8527  0.5664
 2361TIP3   OH228497   2.281   0.017   1.064 -0.3515  0.2375  0.0947
 2361TIP3    H128498   2.241  -0.070   1.070  2.6837 -1.2379  1.2353
 2361TIP3    H228499   2.225   0.065   1.003 -1.7200 -2.7807 -1.2490
 2362TIP3   OH228500   3.465   5.308   4.478 -0.5993 -0.4393  0.1068
 2362TIP3    H128501   3.494   5.237   4.420 -1.1421 -0.0908 -0.6129
 2362TIP3    H228502   3.545   5.357   4.498 -0.2790 -1.0508  0.3226
 2363TIP3   OH228503   0.827   2.876  12.631  0.4851 -0.0682 -0.2790
 2363TIP3    H128504   0.755   2.817  12.610 -0.2033  0.3317  0.8466
 2363TIP3    H228505   0.885   2.824  12.686  0.2137  0.0932  0.1661
 2364TIP3   OH228506   2.453   1.577   2.024 -0.0203  0.0078  0.3800
 2364TIP3    H128507   2.515   1.594   2.096 -0.0203  0.1610  0.3439
 2364TIP3    H228508   2.477   1.489   1.993  1.6419  0.9117 -1.0792
 2365TIP3   OH228509   4.920   5.463   4.403  0.2144 -0.0916 -0.0667
 2365TIP3    H128510   4.858   5.529   4.434  0.3997  1.1245 -2.1086
 2365TIP3    H228511   4.877   5.424   4.326  2.2587  1.3951 -2.0694
 2366TIP3   OH228512   4.539   6.412  12.525 -0.3667  0.0142 -0.1029
 2366TIP3    H128513   4.457   6.418  12.476 -0.3750 -0.7537 -0.1919
 2366TIP3    H228514   4.606   6.439  12.462 -0.4863  0.0554 -0.2146
 2367TIP3   OH228515   6.475   2.565  14.973 -0.0972  0.0273  0.4722
 2367TIP3    H128516   6.421   2.639  15.001 -0.0973  0.0265  0.4753
 2367TIP3    H228517   6.460   2.559  14.878  0.4878  0.5063  0.3423
 2368TIP3   OH228518   5.604   0.108   3.369 -0.3358 -0.3126 -0.0263
 2368TIP3    H128519   5.579   0.037   3.427 -1.7704  0.0142 -0.2208
 2368TIP3    H228520   5.592   0.073   3.281 -2.3228  0.5504 -0.1433
 2369TIP3   OH228521   0.948   4.416   5.573  0.1604 -0.4546  0.1236
 2369TIP3    H128522   0.878   4.395   5.511 -1.2862  0.0705  1.5222
 2369TIP3    H228523   0.958   4.337   5.626 -0.0320 -0.2186  0.5180
 2370TIP3   OH228524   4.102   4.182   4.580 -0.5248 -0.0852 -0.6931
 2370TIP3    H128525   4.171   4.237   4.543 -1.9833  1.3675 -1.3624
 2370TIP3    H228526   4.077   4.124   4.508  1.1902 -1.9180  0.0864
 2371TIP3   OH228527   5.978   5.636   5.845  0.1012 -0.5401  0.4411
 2371TIP3    H128528   5.936   5.651   5.930  0.7592 -3.4581  1.4048
 2371TIP3    H228529   5.909   5.596   5.791 -0.3155  1.3033 -0.4701
 2372TIP3   OH228530   3.133   5.006   6.212  0.6387  0.3947 -0.0684
 2372TIP3    H128531   3.141   5.088   6.261  1.5930  0.3058 -0.0739
 2372TIP3    H228532   3.084   5.030   6.133 -2.0594  0.3210  1.4326
 2373TIP3   OH228533   0.558   5.460   2.499  0.0058 -0.0225  0.4495
 2373TIP3    H128534   0.526   5.469   2.589 -2.0508  1.0376 -0.3214
 2373TIP3    H228535   0.530   5.373   2.472  0.0015 -0.0725  0.6125
 2374TIP3   OH228536   3.601   1.977  15.362 -0.3879  0.0862  0.2474
 2374TIP3    H128537   3.526   2.031  15.338 -0.8547 -0.5854  0.1832
 2374TIP3    H228538   3.608   1.913  15.291 -1.0244 -1.1427  1.2573
 2375TIP3   OH228539   2.539   3.803  14.167  0.1900 -0.1085  0.6085
 2375TIP3    H128540   2.465   3.768  14.118 -1.2249  0.7539  2.0384
 2375TIP3    H228541   2.509   3.888  14.200  1.4513 -0.1619  2.0260
 2376TIP3   OH228542   3.244   6.411  11.632 -0.1398  0.1042  0.3399
 2376TIP3    H128543   3.195   6.474  11.578  1.5828 -0.1082 -1.6223
 2376TIP3    H228544   3.189   6.333  11.633 -1.1455  0.7942  0.6566
 2377TIP3   OH228545   3.098   5.442  14.175 -0.2332 -0.3929  0.1750
 2377TIP3    H128546   3.076   5.402  14.091 -0.8640 -0.8042  0.5245
 2377TIP3    H228547   3.076   5.534  14.165 -1.4125 -0.6548  0.2592
 2378TIP3   OH228548   4.399   3.197   5.431  0.0403 -0.3517 -0.4937
 2378TIP3    H128549   4.413   3.278   5.481 -0.6964 -0.3272 -0.3198
 2378TIP3    H228550   4.331   3.219   5.367  0.2666 -0.6670 -0.8493
 2379TIP3   OH228551   5.590   0.993   4.692 -0.3306  0.3991  0.8628
 2379TIP3    H128552   5.547   1.020   4.611  0.0766  1.5901  1.0283
 2379TIP3    H228553   5.679   0.969   4.665 -0.7549 -1.0733  0.6799
 2380TIP3   OH228554   0.156   6.212  16.269  0.5438  0.1007 -0.2738
 2380TIP3    H128555   0.169   6.175  16.356  1.0650  0.1849 -0.3116
 2380TIP3    H228556   0.236   6.189  16.221  0.5480  0.6335 -0.5266
 2381TIP3   OH228557   1.606   6.103   5.437  0.0925  0.5927 -0.2172
 2381TIP3    H128558   1.645   6.190   5.444 -2.8376  2.0348 -0.4357
 2381TIP3    H228559   1.535   6.113   5.373  1.4050 -2.6970 -2.5296
 2382TIP3   OH228560   3.397   5.591  14.547 -0.1589  0.0070  0.4569
 2382TIP3    H128561   3.373   5.499  14.557  0.7091 -0.2776  0.0460
 2382TIP3    H228562   3.372   5.613  14.458  1.3890 -0.4100 -0.1184
 2383TIP3   OH228563   0.914   4.649  11.748 -0.2561  0.2707 -0.4752
 2383TIP3    H128564   0.982   4.715  11.759 -0.9777  0.7665  1.3276
 2383TIP3    H228565   0.832   4.698  11.756 -0.8885 -0.2199 -3.1381
 2384TIP3   OH228566   5.986   1.463  14.483  0.5017  0.4216  0.2901
 2384TIP3    H128567   5.913   1.497  14.431  0.4172 -0.5353 -0.2404
 2384TIP3    H228568   6.032   1.541  14.513  0.2505  1.0070 -0.8040
 2385TIP3   OH228569   5.654   3.959  15.264  0.3362 -0.7449  0.5954
 2385TIP3    H128570   5.682   3.867  15.271  1.9092 -0.2414  1.5007
 2385TIP3    H228571   5.684   3.999  15.345  0.4863  0.7757 -0.1783
 2386TIP3   OH228572   4.075   1.106   3.979  0.6780  0.6993  0.0807
 2386TIP3    H128573   4.072   1.150   4.064  2.7629  1.3718 -0.1345
 2386TIP3    H228574   4.080   1.013   4.000 -0.3713  0.7627  0.6405
 2387TIP3   OH228575   5.377   5.605   3.674  0.7726  0.3777 -0.3907
 2387TIP3    H128576   5.358   5.562   3.757  1.4616 -1.0778 -0.9550
 2387TIP3    H228577   5.326   5.557   3.609 -0.9010  2.4094 -0.6644
 2388TIP3   OH228578   3.405   3.900   4.219 -0.3943 -0.0100 -0.3874
 2388TIP3    H128579   3.336   3.964   4.238 -0.8858 -0.2265 -1.3567
 2388TIP3    H228580   3.358   3.816   4.211  0.3902 -0.7966  2.2167
 2389TIP3   OH228581   2.966   6.080   3.815  0.6349  0.1701 -0.2871
 2389TIP3    H128582   3.048   6.074   3.766  0.2686 -1.1940 -0.7731
 2389TIP3    H228583   2.992   6.066   3.906  0.8554 -1.0003 -0.5221
 2390TIP3   OH228584   1.799   0.678  12.878 -0.0650 -0.0263  0.4800
 2390TIP3    H128585   1.834   0.758  12.918  0.2291 -0.1472  0.4686
 2390TIP3    H228586   1.865   0.611  12.898 -0.5241 -0.3631  0.8755
 2391TIP3   OH228587   6.507   6.047   2.465 -0.0328 -0.1927  0.2472
 2391TIP3    H128588   6.425   5.998   2.468  0.5480 -1.1710  0.7658
 2391TIP3    H228589   6.573   5.982   2.442  0.8136  0.2719  1.2731
 2392TIP3   OH228590   4.107   4.992   5.285  0.3738 -0.1000 -0.5675
 2392TIP3    H128591   4.172   4.989   5.214  0.2095  1.0667 -0.7925
 2392TIP3    H228592   4.049   4.918   5.267  1.0168 -0.5254 -0.9683
 2393TIP3   OH228593   6.120   4.992  12.606  0.2530  0.3718  0.3053
 2393TIP3    H128594   6.143   5.081  12.582 -1.1752  0.9558  1.0194
 2393TIP3    H228595   6.074   4.957  12.530  0.1160  0.5078  0.3266
 2394TIP3   OH228596   1.564   6.568  11.252 -0.2510 -0.1600 -0.0317
 2394TIP3    H128597   1.650   6.529  11.267  0.1940  0.6757 -0.3233
 2394TIP3    H228598   1.522   6.510  11.189 -0.8357 -1.8586  1.8132
 2395TIP3   OH228599   5.954   5.941   3.558 -0.1716 -0.5552 -0.3543
 2395TIP3    H128600   5.914   5.902   3.481  0.8165 -1.5443 -0.3915
 2395TIP3    H228601   6.034   5.890   3.573  2.0194  2.3342 -1.2605
 2396TIP3   OH228602   1.707   1.732   0.693 -0.2928  0.3549 -0.0701
 2396TIP3    H128603   1.725   1.825   0.680 -3.4434  1.2988  1.3810
 2396TIP3    H228604   1.653   1.707   0.618 -1.5929  0.4244  0.8204
 2397TIP3   OH228605   2.162   3.148  15.570 -0.8303 -0.8334 -0.3873
 2397TIP3    H128606   2.081   3.126  15.617  0.2546 -2.5419  0.7945
 2397TIP3    H228607   2.165   3.086  15.498  0.0589 -1.7335  0.3802
 2398TIP3   OH228608   6.575   1.684   3.532 -0.1653  0.0665 -0.3093
 2398TIP3    H128609   6.548   1.686   3.440 -1.0131 -2.2814 -0.1768
 2398TIP3    H228610   6.671   1.689   3.528 -0.2042  0.3531 -1.2911
 2399TIP3   OH228611   4.033   1.245   1.836 -0.4524 -0.2374  0.1757
 2399TIP3    H128612   3.955   1.189   1.834  0.5461 -1.6880 -0.2195
 2399TIP3    H228613   4.078   1.220   1.917 -0.0573  0.1060  0.0648
 2400TIP3   OH228614   0.752   2.916  16.101  0.4986  0.2950  0.2677
 2400TIP3    H128615   0.718   2.911  16.012 -0.0502 -0.3377  0.5023
 2400TIP3    H228616   0.797   2.833  16.115  0.4633  0.3344  0.6298
 2401TIP3   OH228617   5.961   6.152   2.929 -0.0933 -0.5624 -0.6171
 2401TIP3    H128618   5.990   6.191   3.011 -2.1713 -0.3364  0.0638
 2401TIP3    H228619   5.901   6.082   2.955 -1.4480  0.0487 -1.9308
 2402TIP3   OH228620   3.983   2.925  16.496 -0.0520 -0.5757  0.1268
 2402TIP3    H128621   4.033   2.844  16.511  0.7877 -0.0628  0.1767
 2402TIP3    H228622   3.929   2.934  16.574 -0.1816 -1.1080  0.1058
 2403TIP3   OH228623   2.108   1.202  13.700 -0.3143  0.1160 -0.0951
 2403TIP3    H128624   2.117   1.249  13.783  1.8100 -1.8072  0.8897
 2403TIP3    H228625   2.177   1.238  13.644  0.1069 -0.4972  0.0131
 2404TIP3   OH228626   1.215   0.473   4.868 -1.0770 -0.6259  0.1512
 2404TIP3    H128627   1.147   0.472   4.800 -0.9161  0.5007 -0.0455
 2404TIP3    H228628   1.248   0.563   4.868 -0.9377 -0.6517  1.5969
 2405TIP3   OH228629   2.667   4.828  13.433  0.0852 -0.1549 -0.1262
 2405TIP3    H128630   2.739   4.891  13.438 -1.0027  1.0431  0.8364
 2405TIP3    H228631   2.704   4.755  13.383  1.3723  1.2382 -1.3318
 2406TIP3   OH228632   1.184   3.058   5.090 -0.3198 -0.0238  0.1315
 2406TIP3    H128633   1.183   2.995   5.018 -1.4524  0.2794 -0.1444
 2406TIP3    H228634   1.265   3.039   5.137 -0.2223 -1.1213 -0.4308
 2407TIP3   OH228635   0.388   0.796  15.806 -0.1260  0.0108  0.2794
 2407TIP3    H128636   0.354   0.717  15.847  0.3683  0.2952  1.2621
 2407TIP3    H228637   0.442   0.765  15.733 -1.4802 -0.4802 -0.5347
 2408TIP3   OH228638   1.265   1.841   3.767  0.0500  0.1760 -0.7473
 2408TIP3    H128639   1.352   1.848   3.730 -0.5799  0.1348 -2.3148
 2408TIP3    H228640   1.233   1.931   3.771  0.6792  0.3782  1.2686
 2409TIP3   OH228641   6.302   6.505   2.317 -0.1895  0.6396  0.6416
 2409TIP3    H128642   6.282   6.571   2.250  0.0215  0.3621  0.3041
 2409TIP3    H228643   6.388   6.471   2.292 -1.1376 -1.1754 -0.3244
 2410TIP3   OH228644   3.860   3.293  14.933 -0.2112 -0.4220  0.1588
 2410TIP3    H128645   3.844   3.349  14.856 -0.7255 -0.9886 -0.1635
 2410TIP3    H228646   3.788   3.230  14.930  1.3466 -2.2519 -0.5500
 2411TIP3   OH228647   6.170   6.556   1.120 -0.6245 -0.0924 -0.3151
 2411TIP3    H128648   6.080   6.586   1.113 -0.1585  1.0404 -2.0621
 2411TIP3    H228649   6.217   6.606   1.053  1.2988 -0.6619  0.5492
 2412TIP3   OH228650   2.664   1.189   0.241 -0.1207 -0.1328  0.5884
 2412TIP3    H128651   2.666   1.095   0.259  1.7481  0.0085  1.3290
 2412TIP3    H228652   2.698   1.229   0.321  2.0121  0.9642 -0.7955
 2413TIP3   OH228653   1.342   2.630   4.494 -0.1143 -0.2428 -0.1057
 2413TIP3    H128654   1.280   2.557   4.492 -0.4153  0.0224 -0.8821
 2413TIP3    H228655   1.392   2.617   4.574 -0.0244 -1.4241 -0.3393
 2414TIP3   OH228656   1.034   5.226   0.278  0.1344  0.0950  0.4421
 2414TIP3    H128657   0.994   5.294   0.331 -0.4236 -1.7933  2.5991
 2414TIP3    H228658   0.969   5.156   0.275  0.2640 -0.0574 -2.5373
 2415TIP3   OH228659   0.171   0.419   4.423 -0.1372 -0.3015  0.3418
 2415TIP3    H128660   0.230   0.494   4.414  1.1350 -1.3938 -0.7235
 2415TIP3    H228661   0.112   0.426   4.348 -0.1361 -0.2798  0.3428
 2416TIP3   OH228662   6.054   4.759   1.700  0.1377  0.4906 -0.2493
 2416TIP3    H128663   6.072   4.747   1.607  0.3707 -0.5334 -0.0839
 2416TIP3    H228664   6.125   4.713   1.744 -1.1254 -0.8647  0.4284
 2417TIP3   OH228665   5.830   0.392   5.225  0.5594 -0.1296 -0.2049
 2417TIP3    H128666   5.907   0.449   5.234  0.1458  0.7182 -1.6632
 2417TIP3    H228667   5.777   0.412   5.302  1.0795  0.4333  0.0206
 2418TIP3   OH228668   0.104   2.865   1.680  0.1275 -0.3870 -0.1916
 2418TIP3    H128669   0.066   2.778   1.694  1.1925 -0.6495  1.2628
 2418TIP3    H228670   0.179   2.868   1.739 -0.3093  1.8035  0.3401
 2419TIP3   OH228671   5.852   5.425   1.674 -0.5216  0.2362 -0.2479
 2419TIP3    H128672   5.799   5.495   1.636 -0.7781 -0.4919 -1.2628
 2419TIP3    H228673   5.854   5.445   1.768 -4.7600 -1.0741  0.3219
 2420TIP3   OH228674   4.059   2.419   4.636  0.2417  0.5865 -0.6513
 2420TIP3    H128675   4.080   2.415   4.543 -2.3338 -2.3593 -1.2395
 2420TIP3    H228676   4.083   2.333   4.670  1.9608  1.8814  1.7109
 2421TIP3   OH228677   3.368   5.997  14.509  0.4243 -0.3723  0.2023
 2421TIP3    H128678   3.292   5.955  14.548  1.0174 -0.5828  1.1835
 2421TIP3    H228679   3.433   5.999  14.580  1.1590  0.2339 -0.4676
 2422TIP3   OH228680   0.465   0.578   0.238 -1.0642 -0.9043  0.2673
 2422TIP3    H128681   0.393   0.555   0.180 -0.9498  0.9095 -0.6769
 2422TIP3    H228682   0.543   0.577   0.183 -0.4209 -2.2747  1.1499
 2423TIP3   OH228683   4.779   1.521  11.530 -0.2844 -0.0063  0.2331
 2423TIP3    H128684   4.814   1.602  11.566 -1.5238 -0.0052  1.5394
 2423TIP3    H228685   4.732   1.548  11.451 -0.4443  0.5248  0.5027
 2424TIP3   OH228686   2.810   0.312  12.196 -0.5628 -0.1227 -0.0753
 2424TIP3    H128687   2.799   0.219  12.178 -2.2558  0.2159 -1.1117
 2424TIP3    H228688   2.730   0.352  12.161 -0.0420  1.6742  0.6772
 2425TIP3   OH228689   0.608   1.906   1.007  0.0268  0.3879 -0.1927
 2425TIP3    H128690   0.537   1.970   1.015 -1.0818 -0.5578 -1.7817
 2425TIP3    H228691   0.592   1.843   1.078 -0.4988  0.4159 -0.2809
 2426TIP3   OH228692   3.537   3.666   1.015  0.4218 -0.0162 -0.1694
 2426TIP3    H128693   3.472   3.709   0.960 -0.1653 -1.1378 -0.3884
 2426TIP3    H228694   3.580   3.737   1.063 -1.6907  0.7058  0.7900
 2427TIP3   OH228695   2.851   2.073   3.029  0.2382 -0.2032  0.1585
 2427TIP3    H128696   2.937   2.039   3.053  0.1438  0.7897  2.0992
 2427TIP3    H228697   2.869   2.141   2.964  0.9782  0.2803  0.8530
 2428TIP3   OH228698   2.724   0.555   3.238  0.8134 -0.1250 -0.0614
 2428TIP3    H128699   2.669   0.584   3.166  1.1990 -0.4815 -0.5065
 2428TIP3    H228700   2.719   0.459   3.235 -0.0983 -0.1421  1.1146
 2429TIP3   OH228701   5.306   2.693   2.275  0.1490  0.0824 -0.1460
 2429TIP3    H128702   5.298   2.787   2.289 -2.8142 -0.0603 -0.3080
 2429TIP3    H228703   5.324   2.657   2.362  1.6265  0.7496 -0.1285
 2430TIP3   OH228704   1.430   3.093  15.728 -1.2714 -0.4268 -0.1865
 2430TIP3    H128705   1.387   3.009  15.747 -0.4447 -0.5516  1.2866
 2430TIP3    H228706   1.417   3.106  15.634 -3.9575 -0.7379  0.0811
 2431TIP3   OH228707   3.155   0.243  10.955 -0.6606 -0.5476 -0.6162
 2431TIP3    H128708   3.164   0.224  10.862  1.2331 -2.6697 -0.0882
 2431TIP3    H228709   3.110   0.166  10.991 -1.8442  0.4721  0.1941
 2432TIP3   OH228710   1.195   2.702  16.731  0.2632  0.7699  0.7705
 2432TIP3    H128711   1.193   2.792  16.698 -0.9559 -0.1165 -1.8304
 2432TIP3    H228712   1.103   2.679  16.745  0.6389  0.3803  2.9437
 2433TIP3   OH228713   2.428   3.800  10.739 -0.6299  0.7473 -0.1258
 2433TIP3    H128714   2.395   3.837  10.657 -0.9378 -0.1895 -0.4341
 2433TIP3    H228715   2.463   3.875  10.787  1.5268  1.0536 -2.0046
 2434TIP3   OH228716   2.203   2.397   0.121 -0.0320 -0.4842  0.0037
 2434TIP3    H128717   2.210   2.363   0.031  1.7041 -0.4472  0.0977
 2434TIP3    H228718   2.222   2.490   0.112  0.8092 -0.6066  0.4986
 2435TIP3   OH228719   4.447   1.703   1.767 -0.0480 -0.1676 -0.1536
 2435TIP3    H128720   4.433   1.733   1.677 -2.1607  0.5108  0.3356
 2435TIP3    H228721   4.511   1.765   1.802 -0.9318  1.0313 -0.5420
 2436TIP3   OH228722   0.472   0.279  13.769 -0.2235 -0.5613 -0.7639
 2436TIP3    H128723   0.489   0.187  13.788 -0.0531 -0.0680  1.9025
 2436TIP3    H228724   0.554   0.311  13.731  0.4746 -1.0752  0.2542
 2437TIP3   OH228725   6.213   2.194   2.317  0.2273 -0.0909  0.6569
 2437TIP3    H128726   6.262   2.211   2.397  0.0705  1.0089  0.5321
 2437TIP3    H228727   6.186   2.280   2.287  2.5875 -0.1686 -2.0698
 2438TIP3   OH228728   6.308   1.877  17.024  0.2307  0.4275  0.6627
 2438TIP3    H128729   6.395   1.901  17.056  0.8185  0.1791 -0.6735
 2438TIP3    H228730   6.289   1.941  16.957 -0.9121  0.8436  1.3637
 2439TIP3   OH228731   2.693   0.529   1.392  0.0168  0.1633 -0.1135
 2439TIP3    H128732   2.645   0.612   1.396  4.1843  2.8802 -0.6925
 2439TIP3    H228733   2.718   0.512   1.483 -0.4488 -0.2107 -0.0553
 2440TIP3   OH228734   2.235   2.391  13.496  0.4140  0.5672 -0.4709
 2440TIP3    H128735   2.329   2.410  13.500  0.6011  0.2697 -2.3442
 2440TIP3    H228736   2.200   2.424  13.579  2.1960  0.4729  0.3613
 2441TIP3   OH228737   4.556   1.334   4.266 -0.0466 -0.1363 -0.1836
 2441TIP3    H128738   4.601   1.256   4.297 -0.6413 -1.1062 -1.6518
 2441TIP3    H228739   4.499   1.360   4.339  2.3428  0.7675  1.4636
 2442TIP3   OH228740   1.838   6.172   4.399 -0.0737  0.2360  0.1368
 2442TIP3    H128741   1.753   6.143   4.366 -0.0715 -1.9432  1.8237
 2442TIP3    H228742   1.839   6.267   4.382 -2.0562  0.0403 -1.5197
 2443TIP3   OH228743   2.894   5.395   2.526 -0.7012  0.1981  0.0219
 2443TIP3    H128744   2.848   5.420   2.606  0.8751  1.3600  0.6197
 2443TIP3    H228745   2.987   5.404   2.548 -0.1614 -1.8305 -1.2097
 2444TIP3   OH228746   2.297   4.563  15.894  0.2094 -0.2067  0.1510
 2444TIP3    H128747   2.334   4.501  15.956  0.2959  0.0398  0.3492
 2444TIP3    H228748   2.369   4.585  15.835  0.2275 -0.1521  0.1939
 2445TIP3   OH228749   0.478   2.649   3.597 -0.1344  0.0158 -0.4802
 2445TIP3    H128750   0.527   2.663   3.678  0.4879  0.6659 -0.9620
 2445TIP3    H228751   0.416   2.579   3.619 -0.7715  0.9584  0.9012
 2446TIP3   OH228752   1.117   5.215  12.051 -0.5166 -0.5155 -0.0496
 2446TIP3    H128753   1.114   5.127  12.088 -0.7291 -0.2938  0.4560
 2446TIP3    H228754   1.134   5.272  12.125 -0.3253 -0.1337 -0.3871
 2447TIP3   OH228755   5.086   5.020  11.532 -0.1604 -0.3299  0.2931
 2447TIP3    H128756   5.071   5.060  11.446 -0.8108 -1.0561  0.0584
 2447TIP3    H228757   5.169   5.057  11.561  0.5283 -0.7451 -1.0425
 2448TIP3   OH228758   1.522   2.293   1.881  0.3929  0.7166  0.7788
 2448TIP3    H128759   1.445   2.278   1.826  0.4779 -0.1643  0.8795
 2448TIP3    H228760   1.519   2.386   1.904 -1.0062  0.5497  1.3249
 2449TIP3   OH228761   2.584   3.741  15.538 -0.6166 -0.4807 -0.4740
 2449TIP3    H128762   2.566   3.750  15.632 -2.5311 -1.6267 -0.6767
 2449TIP3    H228763   2.667   3.693  15.534 -0.1593  0.1768  0.6027
 2450TIP3   OH228764   2.114   1.498  14.511  0.2369  0.1858 -0.6554
 2450TIP3    H128765   2.030   1.497  14.465  0.4876  1.0716 -1.1655
 2450TIP3    H228766   2.094   1.536  14.597  0.5216  3.1104 -1.7477
 2451TIP3   OH228767   0.063   3.199  15.032 -0.1396  0.5248  0.1422
 2451TIP3    H128768   0.002   3.143  14.985  0.8733 -2.8752  2.5102
 2451TIP3    H228769   0.142   3.198  14.979  0.2931 -1.5101  0.7296
 2452TIP3   OH228770   0.496   4.373   5.151  0.2671  0.2345 -0.5323
 2452TIP3    H128771   0.463   4.330   5.073 -0.0708 -0.0270 -0.2502
 2452TIP3    H228772   0.438   4.447   5.165  1.7890  1.7875 -1.9346
 2453TIP3   OH228773   2.376   6.671   5.405 -0.2523 -0.2056  0.3053
 2453TIP3    H128774   2.407   6.659   5.495 -1.3601 -1.7557  0.5285
 2453TIP3    H228775   2.390   6.764   5.387  0.7969 -0.0494  1.7654
 2454TIP3   OH228776   0.175   0.907  12.155 -0.1223  0.0654 -0.4070
 2454TIP3    H128777   0.217   0.827  12.125 -1.8951 -0.2110 -2.3353
 2454TIP3    H228778   0.085   0.882  12.174 -0.6287  1.5236 -0.7435
 2455TIP3   OH228779   2.240   5.195  10.829  0.1278  0.0819  0.8116
 2455TIP3    H128780   2.186   5.265  10.794 -1.5517 -2.0179 -1.0572
 2455TIP3    H228781   2.221   5.194  10.923 -1.1665  1.0008  0.5728
 2456TIP3   OH228782   4.146   6.461   5.333  0.1149 -0.5899  0.9201
 2456TIP3    H128783   4.171   6.398   5.265 -3.7981 -0.4491 -0.9215
 2456TIP3    H228784   4.165   6.546   5.294 -1.9349 -0.5156 -0.0237
 2457TIP3   OH228785   0.720   5.376   3.851 -0.0019 -0.3255  0.2439
 2457TIP3    H128786   0.802   5.424   3.864  0.9462 -2.1751  1.5904
 2457TIP3    H228787   0.707   5.375   3.756  1.1933  0.5393  0.0555
 2458TIP3   OH228788   4.493   5.072   4.831 -0.1467  0.5626 -0.0417
 2458TIP3    H128789   4.550   5.017   4.886  0.9736  0.5184 -1.2024
 2458TIP3    H228790   4.495   5.158   4.873  1.9006  0.9232 -0.7707
 2459TIP3   OH228791   1.430   4.767  12.570 -0.8366  0.8305 -0.2333
 2459TIP3    H128792   1.434   4.682  12.528 -1.2201  2.1040 -3.0961
 2459TIP3    H228793   1.337   4.790  12.569 -0.8301  1.0211  1.1662
 2460TIP3   OH228794   5.906   3.113   5.154  0.7273  0.6403 -0.1237
 2460TIP3    H128795   5.969   3.041   5.147  1.4269  1.0359  1.6232
 2460TIP3    H228796   5.934   3.162   5.231 -0.9649  1.6001 -0.0685
 2461TIP3   OH228797   2.281   5.075   2.179  0.2759  0.0053  0.2417
 2461TIP3    H128798   2.260   5.108   2.091 -0.8311 -1.9353 -0.2822
 2461TIP3    H228799   2.332   4.996   2.162  1.1311  0.2877  1.4033
 2462TIP3   OH228800   3.522   1.395   1.553  0.3477 -0.3588 -0.2629
 2462TIP3    H128801   3.590   1.394   1.620  1.2871 -0.9474 -1.1894
 2462TIP3    H228802   3.444   1.362   1.597  0.7014  0.1804  0.7815
 2463TIP3   OH228803   4.634   5.692  15.335 -0.0903 -0.1544 -0.4595
 2463TIP3    H128804   4.620   5.603  15.303 -0.1442 -0.5570  0.6528
 2463TIP3    H228805   4.551   5.717  15.375  0.7387 -0.6439  1.6567
 2464TIP3   OH228806   6.409   3.230   3.247 -0.4805  0.1904  0.2272
 2464TIP3    H128807   6.398   3.225   3.342  0.0710 -0.2992  0.2724
 2464TIP3    H228808   6.497   3.195   3.231 -0.8205 -0.3531 -0.5213
 2465TIP3   OH228809   3.786   5.254  15.328 -0.6936  0.4313 -0.2007
 2465TIP3    H128810   3.848   5.326  15.340 -0.8356  0.9105 -2.0737
 2465TIP3    H228811   3.708   5.281  15.376  0.6596 -0.4627  2.7445
 2466TIP3   OH228812   2.260   6.660   2.017 -0.5441  0.4274 -0.4390
 2466TIP3    H128813   2.339   6.692   1.973  1.1127 -1.5354  0.9041
 2466TIP3    H228814   2.262   6.703   2.103  1.0319 -2.0893  0.9045
 2467TIP3   OH228815   2.397   4.601   6.482  0.0792  0.8241  0.1786
 2467TIP3    H128816   2.492   4.597   6.477 -0.0084 -0.2090 -3.5074
 2467TIP3    H228817   2.371   4.522   6.529  1.0150 -0.1539 -0.9004
 2468TIP3   OH228818   4.362   3.600   2.103 -0.1989  0.1171 -0.6223
 2468TIP3    H128819   4.423   3.529   2.085 -0.8002 -0.2646 -1.2175
 2468TIP3    H228820   4.411   3.680   2.085  0.4781 -0.1405  0.0389
 2469TIP3   OH228821   0.647   3.963   2.446 -0.3802  0.0444 -0.3287
 2469TIP3    H128822   0.679   3.997   2.363 -1.7569 -0.4359 -1.0886
 2469TIP3    H228823   0.681   4.025   2.511  2.9658 -0.9968 -0.8694
 2470TIP3   OH228824   5.991   2.836  13.824  0.4924  0.3885 -0.1058
 2470TIP3    H128825   5.956   2.922  13.803  0.7449 -0.0692 -2.6512
 2470TIP3    H228826   6.035   2.807  13.744  1.1704 -1.7487  0.9583
 2471TIP3   OH228827   4.637   3.587  10.946  0.0089  0.6046 -0.5742
 2471TIP3    H128828   4.619   3.600  10.852  2.1369 -1.7980 -1.4225
 2471TIP3    H228829   4.587   3.509  10.970  0.1396  0.7184  0.0867
 2472TIP3   OH228830   2.414   0.336   0.782  0.5628  0.0778 -0.2263
 2472TIP3    H128831   2.484   0.337   0.848 -0.1059  3.7690  0.6684
 2472TIP3    H228832   2.441   0.401   0.717 -1.6099  1.0594 -0.2426
 2473TIP3   OH228833   4.945   1.511   5.203  0.3507  0.0353 -0.1720
 2473TIP3    H128834   5.022   1.455   5.194 -0.3310 -0.8150 -0.8958
 2473TIP3    H228835   4.959   1.581   5.140  1.2894  0.8174  0.8574
 2474TIP3   OH228836   2.151   3.297   2.651  0.0756  0.3920  0.0112
 2474TIP3    H128837   2.208   3.373   2.642  0.7681 -0.3506 -2.3499
 2474TIP3    H228838   2.086   3.306   2.582  0.1508 -1.1350 -0.3062
 2475TIP3   OH228839   1.789   6.722  15.884  0.5716  0.6171  0.3861
 2475TIP3    H128840   1.736   6.682  15.815 -0.3906  2.0758  0.2272
 2475TIP3    H228841   1.877   6.727  15.847  0.0255  1.5701 -0.8515
 2476TIP3   OH228842   2.441   6.020  15.943  0.2042  0.0708  0.2650
 2476TIP3    H128843   2.402   5.974  16.017  0.1004 -0.3075 -0.0193
 2476TIP3    H228844   2.535   6.018  15.959  0.3923 -2.1417 -0.7921
 2477TIP3   OH228845   2.164   4.409  16.711 -0.1758 -0.4456 -0.8001
 2477TIP3    H128846   2.164   4.394  16.617 -0.0980 -0.8985 -0.7314
 2477TIP3    H228847   2.072   4.418  16.734 -0.1130  1.7785 -1.2330
 2478TIP3   OH228848   1.682   1.774  11.385 -0.0287  0.6443 -0.1533
 2478TIP3    H128849   1.728   1.691  11.395 -1.0297  0.0255 -0.5122
 2478TIP3    H228850   1.752   1.840  11.384  0.7071 -0.0627  1.3101
 2479TIP3   OH228851   1.482   5.850   2.879  0.8679  0.3042  0.0414
 2479TIP3    H128852   1.442   5.777   2.831 -0.4896  0.9089  0.1902
 2479TIP3    H228853   1.532   5.898   2.813  3.8663 -2.0593  0.3848
 2480TIP3   OH228854   4.959   4.905   0.340 -0.0714  0.0523 -0.3021
 2480TIP3    H128855   5.029   4.965   0.316  0.4438 -0.8440 -1.0989
 2480TIP3    H228856   4.878   4.952   0.317  0.3412  0.1749 -1.5798
 2481TIP3   OH228857   5.339   6.534   2.269  0.4404 -0.1967 -0.1693
 2481TIP3    H128858   5.364   6.552   2.178  1.8418 -0.7140  0.0983
 2481TIP3    H228859   5.248   6.563   2.274  0.7887  1.2817 -1.3348
 2482TIP3   OH228860   6.056   6.320  12.077 -0.2651 -0.0535 -0.6209
 2482TIP3    H128861   5.971   6.277  12.084 -1.0518  1.2168 -1.9132
 2482TIP3    H228862   6.082   6.336  12.168 -1.9032  0.4667 -0.2114
 2483TIP3   OH228863   4.014   0.296   1.590  0.0340  0.1039  0.3937
 2483TIP3    H128864   4.102   0.277   1.623  0.1014 -1.5741 -0.6264
 2483TIP3    H228865   3.956   0.276   1.664  0.5232  2.9521  1.7029
 2484TIP3   OH228866   2.571   5.686  15.674 -0.4187 -0.3110 -0.1457
 2484TIP3    H128867   2.658   5.658  15.704  0.6267 -0.3889 -2.8799
 2484TIP3    H228868   2.510   5.647  15.736  1.5003  0.4169  2.3520
 2485TIP3   OH228869   2.944   3.880   5.825  0.3387 -0.0894  0.2990
 2485TIP3    H128870   2.956   3.791   5.790  1.5079 -0.0316  0.4938
 2485TIP3    H228871   2.932   3.867   5.919 -3.1568 -0.2710 -0.0470
 2486TIP3   OH228872   4.841   4.954  13.357  0.0051 -0.0570  0.3936
 2486TIP3    H128873   4.772   4.994  13.304 -0.3896 -0.3162  0.7112
 2486TIP3    H228874   4.811   4.963  13.447 -0.8720 -2.4297  0.4288
 2487TIP3   OH228875   0.527   0.359   1.605 -0.3877  0.1342 -0.5675
 2487TIP3    H128876   0.450   0.388   1.555 -0.8999  0.5398  0.4171
 2487TIP3    H228877   0.582   0.437   1.612  0.0347 -0.1145 -1.1322
 2488TIP3   OH228878   0.607   5.081   3.219 -0.3774 -0.1363  0.5613
 2488TIP3    H128879   0.655   5.011   3.175  0.2853  0.1613  0.8087
 2488TIP3    H228880   0.588   5.144   3.150  1.4542  0.7718  0.8357
 2489TIP3   OH228881   0.314   4.453   5.353  0.4157 -0.2549 -0.6282
 2489TIP3    H128882   0.228   4.478   5.389 -0.2425  0.2362 -2.4056
 2489TIP3    H228883   0.370   4.529   5.370 -0.4852  0.9028 -2.4389
 2490TIP3   OH228884   3.731   2.716   1.474  0.2327  0.0381  0.2459
 2490TIP3    H128885   3.796   2.678   1.414 -0.9652 -0.9632 -0.4581
 2490TIP3    H228886   3.702   2.642   1.527 -1.6901  0.0583 -0.7199
 2491TIP3   OH228887   2.432   0.851  16.046 -0.0526  0.3882  0.4410
 2491TIP3    H128888   2.526   0.831  16.043  0.2635  1.9369 -0.7214
 2491TIP3    H228889   2.396   0.806  15.970 -0.3070 -0.3962  1.0156
 2492TIP3   OH228890   2.637   3.153  15.326 -0.7186 -0.5082  0.0579
 2492TIP3    H128891   2.585   3.091  15.276 -0.2164 -0.2190 -0.8570
 2492TIP3    H228892   2.631   3.123  15.416 -1.7072 -1.0047 -0.1594
 2493TIP3   OH228893   2.952   5.443  11.187 -0.4550 -0.2985 -0.2651
 2493TIP3    H128894   2.985   5.433  11.098  0.8262  1.5676 -0.0665
 2493TIP3    H228895   3.028   5.473  11.237 -1.2119 -1.0274  1.4113
 2494TIP3   OH228896   1.148   5.043  11.544 -0.5281 -0.2464  1.0127
 2494TIP3    H128897   1.078   5.102  11.517 -1.0839 -0.8391  1.1432
 2494TIP3    H228898   1.172   5.072  11.632  1.1866  1.5981  0.0199
 2495TIP3   OH228899   6.796   2.264  11.326 -0.7502 -0.5724 -0.0615
 2495TIP3    H128900   6.810   2.358  11.309 -0.8188 -0.4521  0.5188
 2495TIP3    H228901   6.884   2.226  11.319 -0.9234 -0.7383 -1.8327
 2496TIP3   OH228902   5.749   2.071  16.219 -0.3355 -0.2671  1.1007
 2496TIP3    H128903   5.690   2.007  16.179  1.1953 -0.6858 -0.5989
 2496TIP3    H228904   5.835   2.029  16.219  0.2560  0.8438  2.2792
 2497TIP3   OH228905   6.186   3.907   5.270  0.2447 -0.1215  0.0157
 2497TIP3    H128906   6.278   3.931   5.277 -0.2157  1.6021  0.8491
 2497TIP3    H228907   6.164   3.923   5.178  0.1567  2.1968  0.3677
 2498TIP3   OH228908   6.628   0.691   4.697 -0.1687  0.1348  0.6551
 2498TIP3    H128909   6.684   0.742   4.637  1.8618 -0.5231  1.9170
 2498TIP3    H228910   6.653   0.600   4.681 -2.1383 -0.3519  0.0668
 2499TIP3   OH228911   4.229   2.931   1.508  0.3705 -0.0838 -0.0236
 2499TIP3    H128912   4.324   2.939   1.517  0.2435  1.3181  0.2430
 2499TIP3    H228913   4.209   2.845   1.547  1.7866 -1.5802 -2.3507
 2500TIP3   OH228914   2.344   5.664  11.528  0.0263 -0.3579 -0.7190
 2500TIP3    H128915   2.430   5.683  11.489  0.2521  0.2006  0.0260
 2500TIP3    H228916   2.364   5.639  11.618 -0.6607  0.8329 -0.2119
 2501TIP3   OH228917   5.766   3.760   1.332 -0.5232 -0.7724 -0.4946
 2501TIP3    H128918   5.686   3.749   1.280 -0.0261  2.6507 -2.2821
 2501TIP3    H228919   5.836   3.763   1.267  0.9732 -2.4596  0.9392
 2502TIP3   OH228920   2.374   4.981  11.367  0.9590 -0.3711  0.3203
 2502TIP3    H128921   2.304   4.917  11.381  2.0582 -1.6062  0.3320
 2502TIP3    H228922   2.453   4.928  11.359  1.8748  0.9916  0.1524
 2503TIP3   OH228923   6.233   6.167   6.078 -0.1158  0.0631 -0.3673
 2503TIP3    H128924   6.285   6.087   6.084 -1.6684 -0.9971 -0.3003
 2503TIP3    H228925   6.293   6.237   6.102  1.2612 -1.0933 -0.3049
 2504TIP3   OH228926   0.050   5.355   4.000  0.1960  0.0379 -1.1116
 2504TIP3    H128927   0.092   5.369   3.915  1.8630  0.0908 -0.3301
 2504TIP3    H228928   0.097   5.414   4.059 -1.3784  0.4947 -0.2643
 2505TIP3   OH228929   0.800   2.015  13.196  0.2909 -0.6078 -0.2953
 2505TIP3    H128930   0.739   1.963  13.248  0.2914 -0.2494  0.0683
 2505TIP3    H228931   0.879   1.962  13.191  0.6717 -0.1928  0.9836
 2506TIP3   OH228932   3.607   4.207   3.850 -0.0863  0.5021 -0.7316
 2506TIP3    H128933   3.563   4.173   3.772 -2.6022  0.5572  0.5523
 2506TIP3    H228934   3.581   4.299   3.855 -2.1606 -0.0941  1.4703
 2507TIP3   OH228935   6.102   1.659  13.881 -0.1016  0.6168 -0.0411
 2507TIP3    H128936   6.187   1.619  13.858 -0.5554  0.3577 -1.3810
 2507TIP3    H228937   6.062   1.597  13.942  0.4426  0.4685  0.1734
 2508TIP3   OH228938   5.705   5.251   1.968  0.1910 -0.4836 -0.2816
 2508TIP3    H128939   5.689   5.345   1.965  1.2662 -0.2883 -0.4517
 2508TIP3    H228940   5.672   5.218   1.885 -2.5463 -0.6943  0.7947
 2509TIP3   OH228941   5.608   1.252   0.283 -0.5412 -0.4130 -0.7494
 2509TIP3    H128942   5.689   1.236   0.332  0.3493  3.2728 -0.7391
 2509TIP3    H228943   5.542   1.265   0.351 -0.9648 -2.2193 -0.7508
 2510TIP3   OH228944   5.109   2.038   4.392 -0.6184  0.1179 -0.5908
 2510TIP3    H128945   5.028   2.035   4.442 -0.4115 -1.0661 -0.2981
 2510TIP3    H228946   5.098   2.113   4.333 -0.5178  2.0895  1.7781
 2511TIP3   OH228947   0.905   6.635  14.810  0.2137  0.2817  0.0126
 2511TIP3    H128948   0.918   6.621  14.904 -0.2371  2.3340  0.4360
 2511TIP3    H228949   0.875   6.725  14.803 -3.0114 -0.7662 -1.8201
 2512TIP3   OH228950   2.152   3.783  16.723 -0.3957 -0.0699  0.3266
 2512TIP3    H128951   2.173   3.867  16.764  0.1485 -0.2818  0.4923
 2512TIP3    H228952   2.209   3.778  16.646  0.4318 -0.7979  0.9659
 2513TIP3   OH228953   1.100   0.015   0.414 -0.0901  0.7391 -0.3158
 2513TIP3    H128954   1.069  -0.025   0.494  1.3389 -1.9540 -0.9737
 2513TIP3    H228955   1.187   0.048   0.436  0.4765 -0.3689 -0.7826
 2514TIP3   OH228956   4.081   0.529   5.299 -0.2369 -0.2230  0.1856
 2514TIP3    H128957   4.137   0.522   5.221 -0.4892 -1.0450  0.0762
 2514TIP3    H228958   4.140   0.557   5.368 -0.1854  1.5172 -0.5066
 2515TIP3   OH228959   5.507   5.544   4.769 -0.2620  0.0084 -0.8532
 2515TIP3    H128960   5.483   5.466   4.819 -1.1469  2.0040  2.0400
 2515TIP3    H228961   5.593   5.569   4.803 -0.4024  0.8167 -1.0859
 2516TIP3   OH228962   3.838   0.859  14.041 -0.4745  0.1414  0.1073
 2516TIP3    H128963   3.834   0.948  14.075 -0.5393  0.2715 -0.2365
 2516TIP3    H228964   3.864   0.869  13.949 -1.9537 -0.0816 -0.3756
 2517TIP3   OH228965   4.007   3.216  13.363 -0.2258  0.0871  0.2676
 2517TIP3    H128966   3.966   3.176  13.440 -0.9793 -1.3631 -0.8286
 2517TIP3    H228967   3.942   3.205  13.293  0.0040  2.3033 -0.3786
 2518TIP3   OH228968   4.135   4.592  11.294  0.7241 -0.3327 -0.3303
 2518TIP3    H128969   4.052   4.598  11.341  1.4001  1.3079  0.7098
 2518TIP3    H228970   4.193   4.653  11.338  1.8074  0.3268 -2.4970
 2519TIP3   OH228971   2.447   4.806   5.829  0.3824  0.3503 -0.0332
 2519TIP3    H128972   2.455   4.799   5.924 -0.3803  0.1660  0.0260
 2519TIP3    H228973   2.521   4.757   5.794  0.1726 -0.3316  0.4616
 2520TIP3   OH228974   5.448   6.798   5.671  0.1021  0.3327 -0.0374
 2520TIP3    H128975   5.394   6.753   5.734  1.4260  0.5279  1.2963
 2520TIP3    H228976   5.514   6.734   5.645  0.9817  0.9450  0.6025
 2521TIP3   OH228977   1.992   5.454   1.023  0.3445  0.2167 -0.0063
 2521TIP3    H128978   2.036   5.409   1.094 -0.5492 -1.9628 -0.7477
 2521TIP3    H228979   1.900   5.428   1.031  0.4430 -1.3564 -2.7690
 2522TIP3   OH228980   2.624   2.986   6.450 -0.1405 -0.3740  0.8656
 2522TIP3    H128981   2.649   2.968   6.359  0.4466 -1.7652  1.2712
 2522TIP3    H228982   2.606   3.080   6.452  0.8864 -0.1196 -0.4479
 2523TIP3   OH228983   0.626   0.860  12.389  0.1681  0.1850 -0.5435
 2523TIP3    H128984   0.706   0.831  12.346 -0.1823 -1.0111 -0.4286
 2523TIP3    H228985   0.610   0.793  12.457 -1.5961 -0.3119 -1.3858
 2524TIP3   OH228986   6.465   5.802  16.986  0.7268 -0.3433 -0.5100
 2524TIP3    H128987   6.437   5.872  17.046  0.9388 -0.7494  0.0679
 2524TIP3    H228988   6.526   5.845  16.927  0.2078  0.1566 -0.6887
 2525TIP3   OH228989   6.628   2.625   2.308 -0.7081  0.1602  0.0445
 2525TIP3    H128990   6.559   2.559   2.315  0.0190 -0.6107  0.1139
 2525TIP3    H228991   6.647   2.631   2.214  0.6590 -1.2825  0.1829
 2526TIP3   OH228992   0.115   0.065  15.845  0.1720 -0.4277 -0.6312
 2526TIP3    H128993   0.121  -0.009  15.905  1.8773 -0.9151 -1.3502
 2526TIP3    H228994   0.198   0.066  15.799 -0.1533  1.4100 -1.2843
 2527TIP3   OH228995   2.309   4.530  15.031  0.2771  0.2020 -0.1922
 2527TIP3    H128996   2.266   4.473  14.967 -1.1026 -0.7142  1.4559
 2527TIP3    H228997   2.383   4.569  14.983 -1.8354  1.1839 -2.9177
 2528TIP3   OH228998   2.527   6.160  13.442  0.3053  0.0684  0.1922
 2528TIP3    H128999   2.594   6.104  13.402 -0.8718 -0.6345 -0.8678
 2528TIP3    H229000   2.539   6.147  13.536 -0.2917 -2.4858 -0.0021
 2529TIP3   OH229001   1.025   1.871  13.082 -0.5126 -0.5647  0.3880
 2529TIP3    H129002   1.047   1.812  13.153  0.5207  0.3571  0.8626
 2529TIP3    H229003   1.096   1.936  13.081 -0.9114 -0.0999 -0.9657
 2530TIP3   OH229004   6.055   5.629  11.506  0.3656 -0.0604  0.3572
 2530TIP3    H129005   6.059   5.622  11.602  1.4517  1.3107  0.4367
 2530TIP3    H229006   6.119   5.565  11.475 -0.5289 -1.0553  0.4906
 2531TIP3   OH229007   6.729   1.550  13.282  0.0804  0.1490  0.3665
 2531TIP3    H129008   6.824   1.559  13.281  0.1781 -0.6617  1.1063
 2531TIP3    H229009   6.699   1.603  13.208  1.0176  1.2411  0.7428
 2532TIP3   OH229010   2.575   0.919  11.552 -0.0929  0.2924 -0.4412
 2532TIP3    H129011   2.666   0.896  11.574  0.0224  0.7732 -0.4088
 2532TIP3    H229012   2.581   0.964  11.467 -0.5033 -1.2760 -1.3404
 2533TIP3   OH229013   2.137   1.419  17.097  0.4880  0.0031 -0.5633
 2533TIP3    H129014   2.094   1.501  17.121  0.3492  0.0345 -0.9202
 2533TIP3    H229015   2.203   1.444  17.032  0.6038 -0.1351 -0.4998
 2534TIP3   OH229016   2.157   1.103  17.105  0.0848 -0.2540 -0.0725
 2534TIP3    H129017   2.231   1.062  17.151  0.1152  0.4171  0.4780
 2534TIP3    H229018   2.176   1.196  17.106 -0.5758 -0.1116 -0.2872
 2535TIP3   OH229019   3.050   0.983  16.349 -0.0138 -0.0204  0.3475
 2535TIP3    H129020   3.032   0.995  16.442 -1.0989  0.4711  0.0901
 2535TIP3    H229021   2.964   0.986  16.307  0.2488 -2.2369 -0.4794
 2536TIP3   OH229022   3.285   6.317  13.395  0.0659 -0.4852  0.1722
 2536TIP3    H129023   3.201   6.339  13.354 -0.3538 -1.0745  0.6818
 2536TIP3    H229024   3.267   6.235  13.442  1.2507 -1.2705 -0.7128
 2537TIP3   OH229025   2.893   2.237  15.784 -0.0373  0.1057  0.3013
 2537TIP3    H129026   2.964   2.179  15.811  0.9188  1.2233  0.2178
 2537TIP3    H229027   2.869   2.285  15.863  1.1318  1.6486 -0.2484
 2538TIP3   OH229028   1.355   1.048   2.766  0.3209  0.3993  0.2707
 2538TIP3    H129029   1.301   1.101   2.707  1.0248  0.2004 -0.5815
 2538TIP3    H229030   1.307   0.967   2.778  0.2699  0.3547 -0.2183
 2539TIP3   OH229031   5.911   1.772   5.728  0.3025 -0.0797  0.3314
 2539TIP3    H129032   5.905   1.836   5.799  1.7916  0.8491 -0.3258
 2539TIP3    H229033   5.998   1.734   5.739  0.8708  0.6334 -1.4234
 2540TIP3   OH229034   5.265   3.182  14.781  0.4982 -0.1041 -0.2775
 2540TIP3    H129035   5.317   3.218  14.709 -0.0562 -0.3731 -0.8113
 2540TIP3    H229036   5.235   3.259  14.830  1.2699  0.0627 -0.0401
 2541TIP3   OH229037   5.256   5.745  16.959 -0.6138  0.1332 -0.3390
 2541TIP3    H129038   5.309   5.673  16.926 -1.3576 -0.9214  0.6809
 2541TIP3    H229039   5.201   5.706  17.027 -1.1014  1.6490  0.1970
 2542TIP3   OH229040   1.248   0.602  12.231  0.0976 -0.3663  0.1886
 2542TIP3    H129041   1.237   0.688  12.191 -0.7359  0.0805  1.3098
 2542TIP3    H229042   1.169   0.554  12.206  1.0810 -1.2355 -1.3873
 2543TIP3   OH229043   2.945   0.852   5.335 -0.7544  0.3666 -0.9629
 2543TIP3    H129044   3.003   0.826   5.263 -0.4619 -2.3652  0.1550
 2543TIP3    H229045   2.869   0.794   5.327  0.4735 -2.0015  2.3946
 2544TIP3   OH229046   5.813   3.492  12.829  0.2226 -0.2322  0.4449
 2544TIP3    H129047   5.831   3.402  12.857  0.4444 -0.9391 -1.7469
 2544TIP3    H229048   5.748   3.483  12.759  0.8665  1.2315 -0.3956
 2545TIP3   OH229049   2.225   0.951   4.287  0.4110  0.4488  0.1421
 2545TIP3    H129050   2.223   0.880   4.223 -1.5011  1.3213 -0.8624
 2545TIP3    H229051   2.179   0.916   4.363 -1.1360  0.7709 -0.6031
 2546TIP3   OH229052   5.738   5.728  11.606  0.2658  0.3329 -0.2853
 2546TIP3    H129053   5.737   5.795  11.537  2.0782  0.6494 -0.0365
 2546TIP3    H229054   5.812   5.672  11.584  0.4959  0.0736  1.0860
 2547TIP3   OH229055   6.104   3.160  14.293  0.0014  0.6241 -0.4818
 2547TIP3    H129056   6.072   3.133  14.379  0.2454 -1.4987 -1.0001
 2547TIP3    H229057   6.032   3.143  14.233  0.7624 -0.5863 -1.0910
 2548TIP3   OH229058   3.863   2.242  11.534 -0.0626 -0.3771 -0.0495
 2548TIP3    H129059   3.893   2.307  11.470 -3.0658  1.2783  0.0075
 2548TIP3    H229060   3.795   2.193  11.489 -1.8872  0.4788  1.5994
 2549TIP3   OH229061   2.348   3.348  16.907  0.3370  0.4679  0.1263
 2549TIP3    H129062   2.348   3.271  16.849  0.8119  0.4412  0.1562
 2549TIP3    H229063   2.300   3.414  16.858  2.0903  0.9628 -1.0207
 2550TIP3   OH229064   1.106   6.511   4.808  0.4665 -0.0259  0.5654
 2550TIP3    H129065   1.042   6.526   4.738  0.9035 -0.2147  0.1245
 2550TIP3    H229066   1.113   6.596   4.852  0.2426  0.1123  0.3398
 2551TIP3   OH229067   3.324   5.961  10.841 -0.0812 -0.6320  0.1174
 2551TIP3    H129068   3.383   5.935  10.770  1.0611  2.4505 -0.2485
 2551TIP3    H229069   3.289   6.045  10.812 -0.1971  0.3565  2.8285
 2552TIP3   OH229070   1.007   2.118  14.626 -0.5920 -0.5035  0.3988
 2552TIP3    H129071   1.030   2.030  14.657 -3.0984 -0.4911  2.6226
 2552TIP3    H229072   0.929   2.104  14.572 -0.7666  0.2941  0.4318
 2553TIP3   OH229073   1.247   1.271   3.711 -0.4927 -0.1581 -0.7294
 2553TIP3    H129074   1.268   1.321   3.790 -0.8663 -0.9679 -0.0939
 2553TIP3    H229075   1.151   1.266   3.711 -0.4227 -2.3517  0.2018
 2554TIP3   OH229076   3.172   6.655   0.535 -0.3091 -0.0600  0.6784
 2554TIP3    H129077   3.199   6.734   0.488  0.6936 -0.5166  0.4555
 2554TIP3    H229078   3.091   6.680   0.580 -1.4875  0.3033 -1.5198
 2555TIP3   OH229079   6.346   4.018   3.592  0.3417  0.2134  0.2756
 2555TIP3    H129080   6.253   4.013   3.570  0.8423 -0.2192 -1.9579
 2555TIP3    H229081   6.357   3.956   3.664 -1.2471  0.9879  1.2349
 2556TIP3   OH229082   3.778   5.155  11.857  0.5649 -0.8034 -0.9489
 2556TIP3    H129083   3.814   5.199  11.779  0.5398  0.9766 -0.0100
 2556TIP3    H229084   3.724   5.222  11.899 -1.0204 -2.3337 -0.4215
 2557TIP3   OH229085   3.603   1.452   1.904  0.0872  0.3729 -0.3450
 2557TIP3    H129086   3.685   1.436   1.857 -0.0940  0.3897 -0.6746
 2557TIP3    H229087   3.630   1.494   1.985  0.4628 -0.3305 -0.0957
 2558TIP3   OH229088   4.627   2.802   0.170 -0.3826 -0.2929  0.2753
 2558TIP3    H129089   4.576   2.732   0.129 -1.6524  1.0675 -0.5801
 2558TIP3    H229090   4.569   2.878   0.168  1.5435  1.2370 -0.3614
 2559TIP3   OH229091   4.706   4.906  13.599  0.4840 -0.5732 -1.0062
 2559TIP3    H129092   4.688   4.820  13.637 -0.1349 -1.1403 -2.5463
 2559TIP3    H229093   4.620   4.946  13.587  0.7861  0.6757  0.5093
 2560TIP3   OH229094   0.045   0.323  16.375  1.3582 -0.0833 -1.0635
 2560TIP3    H129095   0.110   0.371  16.426 -0.3868  2.1930 -0.7767
 2560TIP3    H229096   0.005   0.263  16.437  0.2766  1.6101 -0.0415
 2561TIP3   OH229097   4.952   5.300   4.014  0.1027  0.5010  0.2592
 2561TIP3    H129098   4.909   5.267   3.936 -0.9969  2.5342 -0.0710
 2561TIP3    H229099   4.927   5.239   4.084 -0.6937 -0.1182 -0.5522
 2562TIP3   OH229100   3.421   6.769   3.403  0.0870 -0.1379 -0.1233
 2562TIP3    H129101   3.378   6.807   3.327  0.3046  2.5350  0.9672
 2562TIP3    H229102   3.349   6.736   3.457 -0.3023  0.5933 -0.1812
 2563TIP3   OH229103   4.534   2.888  11.866 -0.7498 -0.5464 -0.1637
 2563TIP3    H129104   4.610   2.847  11.825 -1.0205 -1.1878 -0.0327
 2563TIP3    H229105   4.477   2.911  11.792 -0.4711 -0.1384 -0.2567
 2564TIP3   OH229106   0.517   1.196  17.008 -0.0421  0.8031  0.2769
 2564TIP3    H129107   0.424   1.193  16.987 -0.2781  0.6351  1.2598
 2564TIP3    H229108   0.555   1.121  16.964 -0.3340  0.9972 -0.3067
 2565TIP3   OH229109   5.555   5.198   3.000 -0.0595 -0.1344  0.0723
 2565TIP3    H129110   5.531   5.108   3.019  3.8551 -1.2440  0.6893
 2565TIP3    H229111   5.623   5.191   2.932  1.3395  2.1959  1.1176
 2566TIP3   OH229112   3.687   5.149   3.211  0.4887  0.1127  0.0129
 2566TIP3    H129113   3.713   5.117   3.125  0.1586 -0.1287  0.0030
 2566TIP3    H229114   3.769   5.181   3.250  0.6607  0.1063 -0.3359
 2567TIP3   OH229115   0.210   4.159  15.666 -0.8486 -0.1434  0.3405
 2567TIP3    H129116   0.199   4.078  15.716 -1.5817 -1.7734 -2.2454
 2567TIP3    H229117   0.304   4.174  15.665 -0.5339 -1.8709 -0.3415
 2568TIP3   OH229118   2.821   3.701  16.192  0.2514 -0.7886  0.1506
 2568TIP3    H129119   2.897   3.682  16.137  0.4787 -0.7093  0.4344
 2568TIP3    H229120   2.852   3.766  16.254 -0.0037 -0.8745  0.3712
 2569TIP3   OH229121   0.711   3.837  13.226 -0.1967  0.2710 -0.3209
 2569TIP3    H129122   0.638   3.781  13.254 -0.1618  0.2827 -0.2084
 2569TIP3    H229123   0.738   3.800  13.141  0.9089 -0.9036  0.5061
 2570TIP3   OH229124   1.524   2.052  12.121  1.1116 -0.5247 -0.0421
 2570TIP3    H129125   1.553   1.961  12.128 -1.0977 -1.2640  0.2693
 2570TIP3    H229126   1.436   2.052  12.159  0.5456  1.4778 -1.2192
 2571TIP3   OH229127   0.859   3.615   5.895  0.4930  0.2226 -0.7100
 2571TIP3    H129128   0.927   3.589   5.957 -1.1800 -1.8172  0.3943
 2571TIP3    H229129   0.806   3.679   5.943 -1.9789 -2.7835  0.9398
 2572TIP3   OH229130   0.007   2.239  11.610  0.9353 -0.4271  0.1473
 2572TIP3    H129131  -0.006   2.236  11.515  1.0546  1.3097  0.0533
 2572TIP3    H229132   0.075   2.305  11.623  0.8523 -0.5740  1.4524
 2573TIP3   OH229133   0.106   1.433  16.587  0.5416  0.5523  0.1484
 2573TIP3    H129134   0.044   1.396  16.649  0.4488 -0.6008 -0.6108
 2573TIP3    H229135   0.190   1.429  16.632  0.7620 -1.8006 -0.3539
 2574TIP3   OH229136   3.615   3.288   1.439 -0.1819 -0.2893 -0.0266
 2574TIP3    H129137   3.574   3.370   1.466  0.5217 -0.0586  0.3542
 2574TIP3    H229138   3.619   3.236   1.520 -0.7340 -0.7518 -0.2892
 2575TIP3   OH229139   2.859   2.359  13.818 -0.5847 -0.2581  0.5703
 2575TIP3    H129140   2.908   2.277  13.822 -0.6711 -0.4282 -1.0175
 2575TIP3    H229141   2.768   2.332  13.806 -0.5501  0.0410 -0.4941
 2576TIP3   OH229142   2.062   5.957  15.473  0.1307 -0.3538 -0.4229
 2576TIP3    H129143   2.130   5.891  15.488  0.1849 -0.2604 -0.2555
 2576TIP3    H229144   1.985   5.906  15.449  0.0999 -0.4978 -0.0298
 2577TIP3   OH229145   6.495   4.409  15.186  0.3728  0.2337 -0.0137
 2577TIP3    H129146   6.483   4.315  15.201 -1.0342  0.2306 -0.9623
 2577TIP3    H229147   6.587   4.418  15.160  0.9628 -0.6456  1.6317
 2578TIP3   OH229148   4.923   5.487  11.525 -0.2153 -0.0673 -0.0956
 2578TIP3    H129149   4.832   5.478  11.556 -0.3588 -0.1908 -0.5557
 2578TIP3    H229150   4.944   5.579  11.540 -1.0414  0.4090 -1.6685
 2579TIP3   OH229151   3.056   5.322   0.577  0.2224 -0.1036 -0.2261
 2579TIP3    H129152   2.995   5.271   0.631  0.4561 -0.5575 -0.3834
 2579TIP3    H229153   3.057   5.275   0.493 -1.0653  1.2642 -1.0569
 2580TIP3   OH229154   1.650   6.697  12.704 -0.8242 -0.3131 -0.4921
 2580TIP3    H129155   1.704   6.770  12.674  0.4523 -1.0820 -0.1269
 2580TIP3    H229156   1.712   6.625  12.719 -2.0582 -1.5504 -1.0549
 2581TIP3   OH229157   2.748   4.527   4.116 -0.1226 -0.2420 -0.0200
 2581TIP3    H129158   2.703   4.573   4.044  1.5834 -1.6159 -2.0775
 2581TIP3    H229159   2.730   4.434   4.100 -2.3347 -0.5224  3.2490
 2582TIP3   OH229160   2.496   0.537   5.640 -0.7879  0.1319  0.1170
 2582TIP3    H129161   2.545   0.565   5.718  0.6316 -0.9001 -0.3513
 2582TIP3    H229162   2.423   0.487   5.675  0.5329 -1.4002  0.8140
 2583TIP3   OH229163   1.182   3.166  10.569  0.4480  0.3852  0.0941
 2583TIP3    H129164   1.105   3.122  10.605  2.3185 -1.6525  1.9856
 2583TIP3    H229165   1.198   3.122  10.486  0.0024  0.2591  0.0718
 2584TIP3   OH229166   3.197   5.268   6.305  0.2027 -0.2074  0.0772
 2584TIP3    H129167   3.159   5.340   6.355 -1.5219 -0.6984 -0.4560
 2584TIP3    H229168   3.274   5.306   6.262 -0.5111  1.2312  0.0153
 2585TIP3   OH229169   1.217   2.934  11.863 -0.1146  0.0153  0.1756
 2585TIP3    H129170   1.299   2.907  11.904 -0.2917  1.8365  1.9035
 2585TIP3    H229171   1.243   2.997  11.796 -0.0809  0.3888  0.5392
 2586TIP3   OH229172   5.715   3.178   4.176  0.1143  0.3018 -0.0568
 2586TIP3    H129173   5.808   3.181   4.151  0.1833  1.2256  0.2676
 2586TIP3    H229174   5.678   3.107   4.124  1.1227 -0.4394  0.2106
 2587TIP3   OH229175   5.334   6.486   0.417 -0.4658  0.1477 -0.2139
 2587TIP3    H129176   5.426   6.494   0.444 -0.3900 -0.8742 -0.1219
 2587TIP3    H229177   5.322   6.555   0.353  0.7445 -0.4811 -1.1653
 2588TIP3   OH229178   5.552   4.925  10.969  0.8790 -0.0577  0.0171
 2588TIP3    H129179   5.564   5.020  10.962  0.5985  0.0548  0.8790
 2588TIP3    H229180   5.496   4.914  11.046  0.8111 -0.9175 -0.1484
 2589TIP3   OH229181   0.409   3.124   4.974  0.1591 -0.4667  0.0970
 2589TIP3    H129182   0.336   3.107   4.915 -0.9265  1.2134  0.8749
 2589TIP3    H229183   0.375   3.102   5.061  1.6059 -2.5265  0.2326
 2590TIP3   OH229184   5.414   2.055  11.012 -0.7111  0.7225  0.0257
 2590TIP3    H129185   5.433   2.147  10.994 -0.4279  0.2685 -2.2772
 2590TIP3    H229186   5.468   2.007  10.950 -1.1658 -1.0074  0.9095
 2591TIP3   OH229187   3.929   4.797   1.211  0.5169  0.4910 -0.0884
 2591TIP3    H129188   3.839   4.816   1.238  0.7286  1.0097  0.2894
 2591TIP3    H229189   3.960   4.732   1.274  0.4725  0.4734 -0.0845
 2592TIP3   OH229190   3.932   5.122   0.634  0.1882 -0.5908 -0.0251
 2592TIP3    H129191   3.997   5.176   0.678  0.2552 -0.5308 -0.1976
 2592TIP3    H229192   3.968   5.033   0.637  0.2859 -0.5547 -0.1375
 2593TIP3   OH229193   6.341   4.265  14.273 -0.2072  0.1556  0.0017
 2593TIP3    H129194   6.369   4.271  14.182 -0.0029 -0.5662  0.0116
 2593TIP3    H229195   6.358   4.352  14.309  2.2160 -0.2671  0.0549
 2594TIP3   OH229196   4.220   0.916   1.798 -0.1851 -0.1897 -0.0929
 2594TIP3    H129197   4.243   0.983   1.862 -0.3070 -1.4250  1.2859
 2594TIP3    H229198   4.255   0.835   1.834 -1.3463 -1.1181 -0.9705
 2595TIP3   OH229199   0.894   1.805   1.596 -0.1973  0.0866  0.2439
 2595TIP3    H129200   0.956   1.734   1.576  0.8218  0.6841  1.1382
 2595TIP3    H229201   0.913   1.872   1.530 -1.1762 -0.4655 -0.6154
 2596TIP3   OH229202   4.264   0.257  11.049 -0.5534  0.1749 -0.6946
 2596TIP3    H129203   4.305   0.281  10.965 -0.3916  1.1262 -0.3580
 2596TIP3    H229204   4.275   0.162  11.055  1.1659  0.3301 -0.8472
 2597TIP3   OH229205   6.674   2.335   2.629 -0.1169 -0.8637  0.4266
 2597TIP3    H129206   6.642   2.251   2.662 -1.5480 -0.3845  0.3339
 2597TIP3    H229207   6.664   2.328   2.534  0.1761 -0.7424  0.3864
 2598TIP3   OH229208   4.837   2.462  13.688  0.1266 -0.1946  0.1388
 2598TIP3    H129209   4.840   2.505  13.773  2.4954  0.3229 -0.1308
 2598TIP3    H229210   4.923   2.481  13.649 -0.2712 -1.8187 -1.6574
 2599TIP3   OH229211   6.144   4.213  16.174  0.1065  0.1395 -0.2260
 2599TIP3    H129212   6.190   4.194  16.093 -0.2597 -0.2526 -0.3466
 2599TIP3    H229213   6.055   4.237  16.146 -0.7154 -2.1901  0.1467
 2600TIP3   OH229214   2.890   6.448  14.759 -0.4686 -0.2421 -0.7214
 2600TIP3    H129215   2.815   6.389  14.771  1.1238 -2.3152 -0.3153
 2600TIP3    H229216   2.913   6.478  14.847 -0.4073 -0.1591 -0.7650
 2601TIP3   OH229217   4.579   3.433  17.065  0.0743  0.1609 -0.0062
 2601TIP3    H129218   4.537   3.393  17.141  1.0540  1.9801  1.5786
 2601TIP3    H229219   4.629   3.361  17.025 -0.4676 -0.8402  1.0489
 2602TIP3   OH229220   3.596   3.887   2.438 -0.2181  0.3954 -0.3415
 2602TIP3    H129221   3.681   3.932   2.443 -0.4656  1.0862 -1.7077
 2602TIP3    H229222   3.619   3.795   2.422  0.3350  0.8269 -2.4286
 2603TIP3   OH229223   4.249   1.659   0.402  0.4579 -0.5867  0.1505
 2603TIP3    H129224   4.224   1.616   0.484 -0.8184 -0.4790 -0.1567
 2603TIP3    H229225   4.338   1.630   0.385 -0.0132 -2.3269  0.4806
 2604TIP3   OH229226   5.876   2.911  11.170  0.0810 -0.2844  0.4247
 2604TIP3    H129227   5.821   2.868  11.235  0.8090  0.6778  1.7460
 2604TIP3    H229228   5.928   2.841  11.132 -1.5613 -1.1131 -0.3960
 2605TIP3   OH229229   6.741   5.415   4.917 -0.1578  0.0023 -0.4670
 2605TIP3    H129230   6.825   5.449   4.886  0.4338 -1.9483 -1.1761
 2605TIP3    H229231   6.764   5.364   4.994 -0.5138 -1.3239 -1.2065
 2606TIP3   OH229232   0.264   4.694   3.011  0.1991  0.1980 -0.0793
 2606TIP3    H129233   0.199   4.627   2.988  0.7575  0.0721 -1.3667
 2606TIP3    H229234   0.228   4.775   2.977 -0.0282  0.4018  0.6361
 2607TIP3   OH229235   4.903   3.577   5.094  0.7527 -0.1942  0.2914
 2607TIP3    H129236   4.949   3.660   5.083 -0.0994  0.8918  3.4917
 2607TIP3    H229237   4.817   3.592   5.055  1.2354 -0.2780 -0.8288
 2608TIP3   OH229238   6.135   4.218   4.020  0.1048 -0.3785  0.3093
 2608TIP3    H129239   6.184   4.300   4.026 -0.1412 -0.2500  0.5858
 2608TIP3    H229240   6.158   4.171   4.100 -3.4951  1.5108  2.7377
 2609TIP3   OH229241   5.350   6.546   2.566  0.2443 -0.2546 -0.1440
 2609TIP3    H129242   5.316   6.510   2.484  0.4908 -0.3071 -0.2227
 2609TIP3    H229243   5.439   6.513   2.572 -0.1118 -1.1123  0.6650
 2610TIP3   OH229244   4.114   1.737   1.422 -0.0364  0.6387  0.0174
 2610TIP3    H129245   4.098   1.673   1.491 -0.2272  2.5542  1.8507
 2610TIP3    H229246   4.029   1.778   1.407 -0.2386 -0.4452 -2.1715
 2611TIP3   OH229247   1.220   2.293  12.073 -0.2320 -0.6461  0.0328
 2611TIP3    H129248   1.273   2.361  12.032 -1.1582  1.5307  2.2249
 2611TIP3    H229249   1.264   2.274  12.156 -2.0038  0.1665  1.2269
 2612TIP3   OH229250   1.595   6.688   3.788 -0.4603  0.1703  0.1286
 2612TIP3    H129251   1.536   6.736   3.846 -0.6170 -1.3895  1.3369
 2612TIP3    H229252   1.606   6.602   3.830  0.7549 -0.4369 -1.3101
 2613TIP3   OH229253   5.309   2.524  16.700 -0.0795  0.0100  0.3071
 2613TIP3    H129254   5.384   2.470  16.723  0.1663  0.5666  0.8528
 2613TIP3    H229255   5.247   2.511  16.773  0.4468  1.3080  1.0267
 2614TIP3   OH229256   3.887   0.618  16.022 -0.4585  0.5427 -0.6110
 2614TIP3    H129257   3.810   0.571  16.054  1.0945 -2.0892 -0.4457
 2614TIP3    H229258   3.869   0.631  15.928 -0.2091 -2.2278 -1.1446
 2615TIP3   OH229259   4.492   3.755  13.707  0.2981  0.0799 -0.3535
 2615TIP3    H129260   4.566   3.735  13.651  0.4041  0.7080 -0.4489
 2615TIP3    H229261   4.436   3.678  13.702  1.0384 -0.4853 -0.1213
 2616TIP3   OH229262   3.658   2.573   4.194 -0.1276 -0.4154  0.2786
 2616TIP3    H129263   3.683   2.665   4.196 -1.0597 -0.1696  1.2643
 2616TIP3    H229264   3.615   2.561   4.110  1.6577 -0.4251 -0.6789
 2617TIP3   OH229265   5.663   6.653   3.446 -0.2619  0.9150  0.0691
 2617TIP3    H129266   5.711   6.593   3.389  0.2175 -0.5267  1.8499
 2617TIP3    H229267   5.574   6.616   3.450 -0.8706  2.1415 -1.2385
 2618TIP3   OH229268   3.530   1.594   1.048  0.3761  0.6489  0.1294
 2618TIP3    H129269   3.509   1.503   1.030 -1.0891  0.8319  0.8062
 2618TIP3    H229270   3.476   1.617   1.123 -1.2882  2.8299 -1.6106
 2619TIP3   OH229271   3.464   1.522   4.079  0.0944 -0.2394 -0.2194
 2619TIP3    H129272   3.428   1.578   4.148 -0.4548  1.6761 -1.9332
 2619TIP3    H229273   3.426   1.557   3.998  1.9044 -1.3798 -1.6511
 2620TIP3   OH229274   2.474   3.102  15.615 -0.0847 -0.5682  0.0662
 2620TIP3    H129275   2.381   3.113  15.600 -0.2002  0.3063  1.2595
 2620TIP3    H229276   2.488   3.135  15.704  1.3129 -0.9476  0.0155
 2621TIP3   OH229277   4.383   5.478   2.269 -0.5452 -0.2315 -0.3063
 2621TIP3    H129278   4.302   5.451   2.312  0.4808 -1.4846  0.9642
 2621TIP3    H229279   4.418   5.548   2.324 -1.7518  1.8096 -2.0096
 2622TIP3   OH229280   4.595   2.640   3.515  0.4016 -0.3694 -0.3873
 2622TIP3    H129281   4.628   2.702   3.450  1.0729 -0.4650 -0.1409
 2622TIP3    H229282   4.609   2.684   3.599  0.4791 -0.6757 -0.2393
 2623TIP3   OH229283   0.075   0.094  14.489 -0.2013  0.2114 -0.3065
 2623TIP3    H129284  -0.006   0.075  14.537  0.1791  0.6467  0.5211
 2623TIP3    H229285   0.110   0.172  14.532  0.0112  0.7809 -1.4708
 2624TIP3   OH229286   5.806   4.912  11.122  0.0291  0.1422  0.1834
 2624TIP3    H129287   5.730   4.857  11.142  0.6949 -0.5315  0.9576
 2624TIP3    H229288   5.770   4.987  11.074 -1.0315 -0.4747 -0.0164
 2625TIP3   OH229289   4.178   5.235   5.397 -0.3488  0.1615 -0.4430
 2625TIP3    H129290   4.176   5.225   5.492  1.9786  0.4907 -0.2962
 2625TIP3    H229291   4.163   5.147   5.364  0.4625 -0.2896  0.3123
 2626TIP3   OH229292   4.823   6.647  12.123  0.2415 -0.0817 -0.2482
 2626TIP3    H129293   4.741   6.692  12.100 -0.0110 -0.6908 -0.5703
 2626TIP3    H229294   4.873   6.712  12.172  0.3978  0.9625 -1.7163
 2627TIP3   OH229295   2.694   3.418   2.994  0.0774 -0.2849 -0.2843
 2627TIP3    H129296   2.697   3.455   3.082  0.7842 -3.0092  0.9669
 2627TIP3    H229297   2.752   3.473   2.941 -1.6764  2.4158  0.4515
 2628TIP3   OH229298   0.877   2.475   2.398 -0.0687  0.3099 -0.0080
 2628TIP3    H129299   0.814   2.492   2.328 -0.7654 -1.4523  0.1427
 2628TIP3    H229300   0.823   2.467   2.477  0.4847  0.1210  0.3612
 2629TIP3   OH229301   3.444   5.047   1.396 -0.3162  0.3878  0.5697
 2629TIP3    H129302   3.461   4.955   1.373  0.5223  0.9929 -1.4374
 2629TIP3    H229303   3.500   5.063   1.472 -1.1991 -0.9963  1.5666
 2630TIP3   OH229304   4.613   6.334  11.384  0.5162 -0.1650  0.0696
 2630TIP3    H129305   4.647   6.392  11.452 -2.2585  1.7279 -0.0219
 2630TIP3    H229306   4.647   6.370  11.302 -0.5528  0.8721  0.0742
 2631TIP3   OH229307   2.869   6.328  11.069 -0.1643 -0.3911  0.6198
 2631TIP3    H129308   2.783   6.370  11.063  0.4476  0.8181 -0.0733
 2631TIP3    H229309   2.885   6.320  11.164 -0.4824  0.5449  0.7578
 2632TIP3   OH229310   4.646   1.689   3.369  0.4320 -0.2584  0.1513
 2632TIP3    H129311   4.658   1.645   3.285 -0.0829  0.5378 -0.3542
 2632TIP3    H229312   4.707   1.645   3.428  0.2713 -1.3223 -0.4468
 2633TIP3   OH229313   2.512   3.212   1.696 -0.9089 -0.6341  0.0649
 2633TIP3    H129314   2.508   3.197   1.602 -0.2501 -0.7776  0.0518
 2633TIP3    H229315   2.602   3.188   1.720 -0.5610  0.9405  0.4554
 2634TIP3   OH229316   0.076   3.151  12.348  0.7610 -0.1907  0.0101
 2634TIP3    H129317  -0.001   3.161  12.291 -0.9065 -0.7107  2.0787
 2634TIP3    H229318   0.105   3.241  12.364 -0.9320  0.2068  1.1236
 2635TIP3   OH229319   4.930   0.498   5.773  0.0011  0.1104 -0.1375
 2635TIP3    H129320   5.018   0.493   5.809  0.7489  0.9677 -1.7707
 2635TIP3    H229321   4.882   0.555   5.833  0.8871  0.5962  0.1162
 2636TIP3   OH229322   4.853   6.434   0.317  0.4315 -0.6334 -0.4977
 2636TIP3    H129323   4.854   6.428   0.412  0.0163  1.0764 -0.3479
 2636TIP3    H229324   4.944   6.427   0.290  0.6474 -0.1501  0.1074
 2637TIP3   OH229325   3.796   5.022   0.222  0.2221 -0.6789 -0.2919
 2637TIP3    H129326   3.837   4.999   0.305 -0.3425  1.0724  0.5391
 2637TIP3    H229327   3.857   4.991   0.155  2.6072  1.1377  0.8614
 2638TIP3   OH229328   4.037   4.507  13.855 -0.7613  0.8645 -0.2440
 2638TIP3    H129329   4.054   4.506  13.760 -0.3871 -0.6108 -0.1814
 2638TIP3    H229330   3.978   4.432  13.869  0.3365  0.1929  0.8789
 2639TIP3   OH229331   0.510   4.753   0.639  0.1766 -0.5198 -0.0040
 2639TIP3    H129332   0.546   4.674   0.599  0.6047  0.0488 -0.7576
 2639TIP3    H229333   0.418   4.753   0.613  0.2626 -0.5800 -0.3143
 2640TIP3   OH229334   3.373   1.943  16.842 -0.5624 -0.3512  0.7910
 2640TIP3    H129335   3.433   1.874  16.814 -1.4132 -1.2116  1.0461
 2640TIP3    H229336   3.385   1.949  16.937 -0.7162 -0.3665  0.8119
 2641TIP3   OH229337   4.734   3.103  12.689  0.1114 -0.2887 -0.3861
 2641TIP3    H129338   4.730   3.136  12.599  1.2619 -1.2712 -0.8189
 2641TIP3    H229339   4.814   3.142  12.725 -0.7176  0.6911  0.4891
 2642TIP3   OH229340   0.854   0.081  11.295  0.7891  0.1283  0.4203
 2642TIP3    H129341   0.765   0.114  11.307  1.2405  1.4552  0.3623
 2642TIP3    H229342   0.893   0.141  11.231  2.2440  0.6331  1.7216
 2643TIP3   OH229343   0.162   6.558   1.166  0.5140 -0.2254  0.3736
 2643TIP3    H129344   0.200   6.621   1.105  0.8417 -1.6826 -0.9906
 2643TIP3    H229345   0.238   6.520   1.211  0.2815  0.7609  1.6706
 2644TIP3   OH229346   6.212   0.814   4.183 -0.1507  0.5250 -0.0918
 2644TIP3    H129347   6.190   0.747   4.248  0.0770 -0.4207 -0.9546
 2644TIP3    H229348   6.156   0.888   4.205 -1.0151 -0.2490  0.4025
 2645TIP3   OH229349   2.832   6.393   5.537 -0.2597 -0.2265  0.1534
 2645TIP3    H129350   2.897   6.369   5.471  1.0189  1.2089  0.8023
 2645TIP3    H229351   2.768   6.445   5.490  0.4834  0.5381 -0.0509
 2646TIP3   OH229352   4.643   2.150  11.456 -0.2835  0.2969  0.7950
 2646TIP3    H129353   4.717   2.210  11.452  1.6977 -1.7885  2.8170
 2646TIP3    H229354   4.586   2.186  11.524 -0.1267  0.8957  0.6144
 2647TIP3   OH229355   3.865   3.119   6.149 -0.6097  0.0639 -0.4061
 2647TIP3    H129356   3.891   3.103   6.059 -1.9209 -2.4648 -0.4007
 2647TIP3    H229357   3.905   3.048   6.199 -0.4917  1.0238  0.9262
 2648TIP3   OH229358   4.251   5.664   4.798 -0.7702 -0.2572 -0.5897
 2648TIP3    H129359   4.239   5.597   4.866 -0.0167  1.2329  1.0931
 2648TIP3    H229360   4.331   5.637   4.752  0.8225  0.5726  1.5230
 2649TIP3   OH229361   1.485   6.202  13.878  0.2168  0.4731 -0.1500
 2649TIP3    H129362   1.428   6.257  13.824 -2.0034 -2.2920 -0.9203
 2649TIP3    H229363   1.499   6.124  13.824 -0.5256 -1.6061  2.4551
 2650TIP3   OH229364   2.235   1.479  14.103  0.2104  0.2670 -0.1338
 2650TIP3    H129365   2.228   1.432  14.186  1.8141  0.8226  0.3480
 2650TIP3    H229366   2.168   1.440  14.047  1.4387 -2.5977  0.2437
 2651TIP3   OH229367   3.319   5.946   5.490 -0.1436  0.2930 -0.5395
 2651TIP3    H129368   3.415   5.937   5.489 -0.2902 -1.9730  0.3856
 2651TIP3    H229369   3.292   5.903   5.571 -2.0425 -0.0577 -1.3196
 2652TIP3   OH229370   6.249   5.923  13.072 -0.4279 -0.0479 -0.4490
 2652TIP3    H129371   6.319   5.946  13.011 -0.8465  1.3690 -0.4292
 2652TIP3    H229372   6.282   5.847  13.119 -0.0224 -1.0836 -2.3117
 2653TIP3   OH229373   5.762   1.831  11.658 -0.1100  0.1014 -0.4232
 2653TIP3    H129374   5.825   1.761  11.677 -1.2600 -0.6779  0.7540
 2653TIP3    H229375   5.795   1.873  11.579  1.8614 -0.2811  0.1448
 2654TIP3   OH229376   4.441   5.537   1.760 -0.1342 -0.5136  0.1386
 2654TIP3    H129377   4.485   5.599   1.702 -2.9927  1.5054 -0.0586
 2654TIP3    H229378   4.400   5.474   1.701  1.0077 -1.4278  0.2667
 2655TIP3   OH229379   0.550   4.078  13.235  0.5826  0.8180 -0.0313
 2655TIP3    H129380   0.583   3.991  13.215  1.3611  0.8064  1.1955
 2655TIP3    H229381   0.552   4.125  13.152  0.0448 -0.3536 -0.7309
 2656TIP3   OH229382   6.649   6.702  17.187  0.0515 -0.4410 -0.4552
 2656TIP3    H129383   6.554   6.716  17.196  0.1281  1.2654 -1.8384
 2656TIP3    H229384   6.687   6.753  17.259 -0.0888 -2.7271  1.3586
 2657TIP3   OH229385   2.533   5.216   5.696 -0.2607 -0.0374  0.1886
 2657TIP3    H129386   2.522   5.256   5.610 -1.1720  0.1337  0.3745
 2657TIP3    H229387   2.508   5.284   5.758 -0.0285 -0.3002  0.5754
 2658TIP3   OH229388   5.506   0.142   4.648 -0.8219 -0.0312 -0.7324
 2658TIP3    H129389   5.562   0.217   4.628  0.6413 -0.9339 -0.0978
 2658TIP3    H229390   5.485   0.151   4.741  0.2634 -0.9766 -0.3797
 2659TIP3   OH229391   4.502   3.383   1.787 -0.2230  0.3987 -0.1935
 2659TIP3    H129392   4.548   3.445   1.731 -2.0704  0.6507 -1.5491
 2659TIP3    H229393   4.412   3.382   1.753 -0.7294 -1.5694  1.0090
 2660TIP3   OH229394   5.164   6.667   5.437  0.1122 -0.1024 -0.3250
 2660TIP3    H129395   5.147   6.747   5.386  1.9370 -0.5445 -1.7413
 2660TIP3    H229396   5.164   6.597   5.372  2.6595 -0.6838  0.1740
 2661TIP3   OH229397   6.297   5.900   0.238 -0.0423 -0.2524 -0.2040
 2661TIP3    H129398   6.247   5.971   0.276  2.3900  0.9261  1.0639
 2661TIP3    H229399   6.250   5.821   0.262  0.2163  0.5666  3.6319
 2662TIP3   OH229400   2.832   0.298  15.027  0.2650 -0.7327  0.3759
 2662TIP3    H129401   2.812   0.379  15.074 -0.0457 -0.1359 -0.7303
 2662TIP3    H229402   2.796   0.228  15.081  0.0870 -0.0844  1.1038
 2663TIP3   OH229403   2.529   2.473   5.663 -0.2904  0.3462 -0.5141
 2663TIP3    H129404   2.487   2.425   5.734 -0.4414 -0.6990 -1.2803
 2663TIP3    H229405   2.621   2.447   5.667 -0.2623  0.4338 -0.5816
 2664TIP3   OH229406   2.349   1.984   3.967  0.0602 -0.3462  0.3191
 2664TIP3    H129407   2.432   1.987   4.015 -0.0035  2.3917  0.4361
 2664TIP3    H229408   2.326   2.076   3.954 -1.9185 -1.0192 -1.5512
 2665TIP3   OH229409   0.811   5.884   1.952 -0.0823  0.6539 -0.3074
 2665TIP3    H129410   0.838   5.905   2.041  0.9646 -1.2763 -0.1217
 2665TIP3    H229411   0.727   5.838   1.962 -0.5544  1.4529 -0.4426
 2666TIP3   OH229412   2.945   1.709  12.406  0.1611  0.5437 -0.2660
 2666TIP3    H129413   2.869   1.714  12.348 -0.7079  0.9499  0.8643
 2666TIP3    H229414   3.007   1.772  12.369 -0.1286  0.3786 -1.0708
 2667TIP3   OH229415   2.544   5.793   0.890  0.4330 -0.2349  0.0288
 2667TIP3    H129416   2.607   5.732   0.852  0.4414  0.4308 -1.0456
 2667TIP3    H229417   2.593   5.873   0.905 -0.5678  1.0633 -2.8851
 2668TIP3   OH229418   2.477   1.843   2.215  0.5593  0.3262 -0.5228
 2668TIP3    H129419   2.567   1.865   2.240  0.7466  0.0746 -0.9598
 2668TIP3    H229420   2.423   1.891   2.277  0.9749  1.1325 -0.7693
 2669TIP3   OH229421   4.314   0.744  14.031 -0.6262  0.0667 -0.0822
 2669TIP3    H129422   4.261   0.665  14.043  2.1594 -2.0567 -0.6005
 2669TIP3    H229423   4.310   0.789  14.115 -0.8582 -1.6350  0.8695
 2670TIP3   OH229424   0.292   4.486  12.843 -0.5709 -0.1560 -0.7270
 2670TIP3    H129425   0.355   4.555  12.862 -1.4141  0.3538  0.3524
 2670TIP3    H229426   0.217   4.532  12.805 -0.1740 -0.7993 -2.3683
 2671TIP3   OH229427   0.382   0.783  16.175 -0.4067 -0.2301 -0.0307
 2671TIP3    H129428   0.347   0.818  16.257  3.7143 -0.2029  1.9323
 2671TIP3    H229429   0.339   0.698  16.165 -1.6198  0.1290  1.6516
 2672TIP3   OH229430   3.058   5.576  15.247 -0.0936  0.3302  0.1461
 2672TIP3    H129431   2.966   5.556  15.228 -0.9568  0.9855  3.1171
 2672TIP3    H229432   3.097   5.492  15.271  0.1065  0.0652 -1.0365
 2673TIP3   OH229433   2.559   2.214   4.251 -0.2304  0.0116 -0.7411
 2673TIP3    H129434   2.465   2.229   4.250  0.0349  2.2170  0.4519
 2673TIP3    H229435   2.595   2.290   4.298  2.0069 -1.5475  0.2395
 2674TIP3   OH229436   1.013   3.372  15.017  0.3986  0.0188 -0.6111
 2674TIP3    H129437   0.970   3.394  14.935 -0.2968  0.5002 -0.1300
 2674TIP3    H229438   1.094   3.329  14.991 -1.4567 -3.3028 -1.6246
 2675TIP3   OH229439   3.739   3.551   0.886 -0.2177  0.3434 -0.0877
 2675TIP3    H129440   3.769   3.626   0.834 -1.1190  0.4004 -0.5474
 2675TIP3    H229441   3.663   3.583   0.934  0.6482  0.3082  1.3628
 2676TIP3   OH229442   4.254   5.661  15.035 -0.4068 -0.2821  0.3881
 2676TIP3    H129443   4.241   5.585  15.092  2.3617 -1.8777 -0.8869
 2676TIP3    H229444   4.203   5.641  14.956 -0.7734 -0.1541  0.5923
 2677TIP3   OH229445   4.668   0.648   4.892 -0.0424  0.1811  0.8100
 2677TIP3    H129446   4.754   0.606   4.884 -0.5106 -0.5649 -0.5816
 2677TIP3    H229447   4.605   0.577   4.879 -0.8691  0.8953  0.8088
 2678TIP3   OH229448   3.376   5.614   0.679  0.2244 -0.2928  0.0488
 2678TIP3    H129449   3.370   5.531   0.633  1.9862  0.0167 -0.8252
 2678TIP3    H229450   3.414   5.675   0.615  0.1982  0.8402  1.0643
 2679TIP3   OH229451   2.302   3.793   5.797  0.2989 -0.6509  0.0186
 2679TIP3    H129452   2.287   3.887   5.793 -0.2296 -0.7085  0.4023
 2679TIP3    H229453   2.218   3.757   5.829  0.6967 -1.1849  0.4926
 2680TIP3   OH229454   1.295   6.620  13.888 -0.4970  0.1969  0.0276
 2680TIP3    H129455   1.311   6.689  13.952  0.3359 -0.1645  0.2134
 2680TIP3    H229456   1.211   6.643  13.848 -0.9493  0.5116  1.1358
 2681TIP3   OH229457   4.166   5.662   1.022 -0.2242 -0.2943  0.7234
 2681TIP3    H129458   4.140   5.746   1.058 -0.5544  1.5107 -3.2545
 2681TIP3    H229459   4.261   5.659   1.033 -0.1247  0.9538  0.3560
 2682TIP3   OH229460   2.663   4.008  15.855 -0.1091 -0.5484 -0.3167
 2682TIP3    H129461   2.685   3.978  15.944 -0.7194 -0.5461 -0.1610
 2682TIP3    H229462   2.592   3.951  15.827 -1.3881  0.7911  0.0374
 2683TIP3   OH229463   3.261   2.685  12.796 -0.1627 -0.3520 -0.5439
 2683TIP3    H129464   3.334   2.727  12.750  1.6562 -2.1087  0.5982
 2683TIP3    H229465   3.258   2.728  12.881 -0.2571 -0.4948 -0.4745
 2684TIP3   OH229466   6.604   5.954  12.351 -0.3868 -0.4334  0.1563
 2684TIP3    H129467   6.698   5.940  12.338 -0.2930 -0.2922  0.6657
 2684TIP3    H229468   6.587   6.039  12.311  0.3247  1.0333  2.7403
 2685TIP3   OH229469   0.948   3.435   4.019 -0.0057 -0.1780  0.5704
 2685TIP3    H129470   0.914   3.493   4.088  0.2054 -1.2373  1.5909
 2685TIP3    H229471   0.894   3.356   4.025  0.0772 -0.3236 -0.4283
 2686TIP3   OH229472   6.372   4.169  15.525  0.1209  0.2376  0.5318
 2686TIP3    H129473   6.352   4.243  15.467  0.1861 -1.5465 -1.9487
 2686TIP3    H229474   6.288   4.146  15.563 -0.2458  0.4265 -0.1453
 2687TIP3   OH229475   5.291   2.160   0.678  0.1172 -0.0575  0.6485
 2687TIP3    H129476   5.300   2.117   0.593  0.0824  1.0359  0.0720
 2687TIP3    H229477   5.379   2.162   0.714  0.4639  1.1703 -0.2265
 2688TIP3   OH229478   3.720   5.761  10.529  0.0139 -0.0665 -0.2093
 2688TIP3    H129479   3.782   5.747  10.600 -0.1713  0.3941  0.0488
 2688TIP3    H229480   3.727   5.855  10.509 -2.3162  0.5387  1.4688
 2689TIP3   OH229481   5.495   4.010  16.662 -0.0261 -0.0310 -0.1596
 2689TIP3    H129482   5.564   3.967  16.612  0.2695  0.0971  0.1341
 2689TIP3    H229483   5.470   4.085  16.609  0.5630  0.3291  0.0647
 2690TIP3   OH229484   3.347   1.315  14.638  0.7265  0.0136 -0.5134
 2690TIP3    H129485   3.295   1.294  14.561 -1.9364 -1.0853  1.4470
 2690TIP3    H229486   3.303   1.391  14.676 -0.9369 -2.1559  2.3071
 2691TIP3   OH229487   3.941   5.978   1.943  0.1056  0.5942 -0.0069
 2691TIP3    H129488   3.958   5.955   2.035 -0.4895 -1.7704 -0.4169
 2691TIP3    H229489   3.852   6.012   1.942 -0.2509 -0.2939  0.1953
 2692TIP3   OH229490   4.285   1.179   0.615  0.3181  0.6541  0.7926
 2692TIP3    H129491   4.195   1.213   0.611  0.5545  1.5916  2.3249
 2692TIP3    H229492   4.338   1.248   0.576  0.5239  0.8087  1.3402
 2693TIP3   OH229493   0.546   1.619  17.075  0.5288 -0.2771  0.0113
 2693TIP3    H129494   0.585   1.672  17.004  1.7175  0.8683  1.4380
 2693TIP3    H229495   0.617   1.560  17.101  0.6332  0.3566  1.2224
 2694TIP3   OH229496   1.258   1.329  14.009 -0.0906 -0.6383  0.4403
 2694TIP3    H129497   1.239   1.294  14.096 -1.7801  1.3679  0.9767
 2694TIP3    H229498   1.185   1.390  13.991  2.0670  1.7919 -0.8051
 2695TIP3   OH229499   1.917   1.575  16.135 -0.1745 -0.5051 -0.4282
 2695TIP3    H129500   1.954   1.556  16.221 -1.9215  1.6987  0.9253
 2695TIP3    H229501   1.982   1.631  16.092 -0.2285  0.2042  0.3845
 2696TIP3   OH229502   4.967   5.162  12.091  0.1800  0.0088  0.4150
 2696TIP3    H129503   4.954   5.253  12.065  0.0525  0.0614  0.6597
 2696TIP3    H229504   5.051   5.163  12.137  1.0581 -0.3184 -1.1088
 2697TIP3   OH229505   0.514   0.488  12.356 -0.0876 -0.1365 -0.5603
 2697TIP3    H129506   0.421   0.501  12.372 -0.2276 -0.8385 -0.7782
 2697TIP3    H229507   0.557   0.535  12.427 -0.6119 -0.0581 -0.2888
 2698TIP3   OH229508   1.121   4.079   2.643  0.7909  0.6120 -0.3022
 2698TIP3    H129509   1.096   4.171   2.636 -1.3844 -0.0085 -1.8622
 2698TIP3    H229510   1.157   4.070   2.731  0.1914  2.7380  0.2133
 2699TIP3   OH229511   0.880   3.547   4.842 -0.3172 -0.2001 -0.1252
 2699TIP3    H129512   0.934   3.626   4.844 -0.3998 -0.1386  2.1473
 2699TIP3    H229513   0.940   3.477   4.817 -0.2355  0.5217 -2.1139
 2700TIP3   OH229514   5.562   3.056   0.990  0.3256 -0.6555  0.3015
 2700TIP3    H129515   5.595   3.048   0.901  0.6582 -2.2692  0.5410
 2700TIP3    H229516   5.478   3.102   0.980  0.4270 -0.6795 -0.8230
 2701TIP3   OH229517   4.510   1.452   1.353 -0.1432  0.3081 -0.0133
 2701TIP3    H129518   4.432   1.435   1.300  0.7790  0.0980 -1.3738
 2701TIP3    H229519   4.582   1.452   1.289  1.2257 -1.4306  1.4218
 2702TIP3   OH229520   6.644   2.451  15.558  0.1740  0.1504 -0.4555
 2702TIP3    H129521   6.668   2.515  15.491  0.9118 -1.0638 -1.4114
 2702TIP3    H229522   6.548   2.458  15.565  0.0086 -0.0525 -2.0525
 2703TIP3   OH229523   5.823   3.107   2.195  0.4313 -0.0194  0.0101
 2703TIP3    H129524   5.917   3.115   2.178  0.2222  1.5088 -0.5969
 2703TIP3    H229525   5.788   3.071   2.113  0.2591  1.2733 -0.5115
 2704TIP3   OH229526   2.945   2.911  11.444  0.2116 -0.1503 -0.4707
 2704TIP3    H129527   2.982   2.881  11.361  1.3121 -1.2659  0.3783
 2704TIP3    H229528   2.928   2.830  11.493  1.1016  0.5029  0.9953
 2705TIP3   OH229529   0.633   5.464   6.599 -0.2990 -0.3052  0.1827
 2705TIP3    H129530   0.698   5.418   6.546  3.3295  1.8304  2.3013
 2705TIP3    H229531   0.625   5.410   6.678  0.0148  0.0887  0.4912
 2706TIP3   OH229532   5.947   1.485   5.002  0.1167  0.0168  0.8656
 2706TIP3    H129533   5.976   1.494   4.911 -0.8620 -1.4396  0.3678
 2706TIP3    H229534   5.906   1.569   5.023 -0.8048 -0.0697 -0.4943
 2707TIP3   OH229535   5.704   4.580  16.128 -0.3381  0.2808  0.2522
 2707TIP3    H129536   5.713   4.648  16.060 -0.0574  1.4287  1.4076
 2707TIP3    H229537   5.652   4.512  16.086 -0.1872  0.9712 -1.1178
 2708TIP3   OH229538   2.324   4.963   4.493  0.3167  0.0901  0.1397
 2708TIP3    H129539   2.305   5.053   4.467 -0.8571 -0.6396 -1.7381
 2708TIP3    H229540   2.413   4.948   4.462  0.1745  0.3279 -0.4061
 2709TIP3   OH229541   4.263   5.917  12.048  0.4378  0.0180  0.0994
 2709TIP3    H129542   4.209   5.943  12.122  0.2003 -1.1841  0.3665
 2709TIP3    H229543   4.283   5.999  12.003  0.2472  0.7211  1.2576
 2710TIP3   OH229544   4.417   4.176  10.801  0.5815 -0.2901 -0.1550
 2710TIP3    H129545   4.431   4.246  10.738 -0.4776  2.1255  2.0864
 2710TIP3    H229546   4.322   4.171  10.811  0.6455 -1.9200 -0.0961
 2711TIP3   OH229547   4.036   4.237   5.580  0.4810 -0.0537 -0.0686
 2711TIP3    H129548   4.125   4.210   5.558  0.1441 -1.2978  0.0582
 2711TIP3    H229549   4.026   4.217   5.673  0.8027  2.2056  0.5248
 2712TIP3   OH229550   6.216   6.108  11.659  0.6113  0.3835 -0.5688
 2712TIP3    H129551   6.219   6.181  11.597  1.1631 -0.4049 -1.4925
 2712TIP3    H229552   6.153   6.047  11.622  0.1772  0.3616  0.1845
 2713TIP3   OH229553   2.185   4.129   0.336  0.0274  0.2988  0.5229
 2713TIP3    H129554   2.177   4.220   0.306 -0.1686  0.0962 -0.0446
 2713TIP3    H229555   2.108   4.116   0.392 -0.4753  0.1846 -0.1802
 2714TIP3   OH229556   1.486   6.614   1.118 -0.2465  0.8374 -0.2994
 2714TIP3    H129557   1.499   6.622   1.213  0.6399 -1.7930 -0.0838
 2714TIP3    H229558   1.393   6.627   1.105 -0.5565  0.2753  1.1076
 2715TIP3   OH229559   1.824   4.651  15.644  0.4137 -0.4965  0.6929
 2715TIP3    H129560   1.775   4.569  15.644  0.2568 -0.4146 -0.1549
 2715TIP3    H229561   1.915   4.625  15.627  0.0011 -0.3482 -2.2755
 2716TIP3   OH229562   5.120   6.344   6.670 -0.7296  0.0265 -0.0779
 2716TIP3    H129563   5.185   6.370   6.735 -1.3006 -0.0199  0.5229
 2716TIP3    H229564   5.146   6.255   6.644  1.0099  0.9958 -1.8691
 2717TIP3   OH229565   5.202   6.346  13.959 -0.3876 -0.6552 -0.6727
 2717TIP3    H129566   5.145   6.372  13.887  0.2981 -0.4185 -1.1374
 2717TIP3    H229567   5.239   6.261  13.933  0.8130 -0.0059 -1.1809
 2718TIP3   OH229568   6.665   3.525   0.550 -0.2307  0.1659 -0.1225
 2718TIP3    H129569   6.711   3.558   0.473 -1.2707 -1.3204 -1.4413
 2718TIP3    H229570   6.673   3.430   0.545  2.1590  0.0233  3.2376
 2719TIP3   OH229571   4.106   3.643   2.001  0.3037  0.3699 -0.6476
 2719TIP3    H129572   4.137   3.723   2.044 -1.1798  0.7573 -0.2275
 2719TIP3    H229573   4.177   3.580   2.012  1.8108  1.8177 -1.6065
 2720TIP3   OH229574   0.286   3.283  14.889  0.3841 -0.0517  0.7605
 2720TIP3    H129575   0.367   3.332  14.903  0.0136  0.8630 -0.1830
 2720TIP3    H229576   0.216   3.347  14.902 -0.1330 -0.4753  0.1353
 2721TIP3   OH229577   6.637   4.870  13.591 -0.1070  0.1251  0.5138
 2721TIP3    H129578   6.569   4.831  13.646 -0.2042 -2.6825 -1.3707
 2721TIP3    H229579   6.591   4.931  13.534 -0.8131 -0.5055  0.3914
 2722TIP3   OH229580   3.295   0.712  16.167 -0.4844  0.4319 -0.2275
 2722TIP3    H129581   3.308   0.777  16.236 -1.0184  0.1196  0.1694
 2722TIP3    H229582   3.215   0.666  16.191 -1.6821  1.4847 -1.9713
 2723TIP3   OH229583   0.343   0.724   0.444  0.1592  0.5551 -0.1397
 2723TIP3    H129584   0.396   0.686   0.374  0.5104 -0.5410  0.6892
 2723TIP3    H229585   0.301   0.649   0.485 -1.1594  1.3143 -0.0606
 2724TIP3   OH229586   4.473   5.550   6.301 -0.2253 -0.6157 -0.3436
 2724TIP3    H129587   4.564   5.522   6.309 -0.5883 -2.1707 -1.2750
 2724TIP3    H229588   4.424   5.491   6.358 -0.6899  0.0602 -0.0254
 2725TIP3   OH229589   0.328   1.439   5.414  0.6392  0.6488 -0.3034
 2725TIP3    H129590   0.344   1.498   5.488  1.4276 -0.3262  0.3184
 2725TIP3    H229591   0.410   1.440   5.365  1.0770 -0.7742  0.3375
 2726TIP3   OH229592   4.635   4.332  15.890 -0.2424  0.4117  0.1960
 2726TIP3    H129593   4.680   4.274  15.829  1.3131  0.9559  0.7689
 2726TIP3    H229594   4.634   4.284  15.973  0.1294  0.7701  0.4133
 2727TIP3   OH229595   1.768   4.174  13.333 -0.4203 -0.0157 -0.8892
 2727TIP3    H129596   1.803   4.089  13.307  0.8835  0.3945 -0.5689
 2727TIP3    H229597   1.761   4.223  13.251  1.0042  0.3172 -0.8443
 2728TIP3   OH229598   4.016   0.867  10.329  0.5299  0.0499  0.1674
 2728TIP3    H129599   4.087   0.926  10.303  0.4092  0.4363  0.6926
 2728TIP3    H229600   4.003   0.885  10.422  0.9983 -1.3482  0.5263
 2729TIP3   OH229601   6.195   2.280  11.455 -0.6458 -0.4796  0.1836
 2729TIP3    H129602   6.203   2.347  11.523 -1.4968  0.4060 -0.5664
 2729TIP3    H229603   6.196   2.329  11.373 -2.1412 -1.2845 -0.3486
 2730TIP3   OH229604   3.063   3.394  10.689 -0.0046 -0.4431 -0.0002
 2730TIP3    H129605   3.118   3.469  10.712 -0.5129  0.0116 -0.2650
 2730TIP3    H229606   3.024   3.417  10.605 -0.1623 -1.0059 -0.0880
 2731TIP3   OH229607   0.836   0.707   4.185  0.0925  0.3338 -0.1081
 2731TIP3    H129608   0.789   0.747   4.259 -2.5700 -0.2357 -1.3878
 2731TIP3    H229609   0.918   0.675   4.223 -0.0012  2.3470  2.0247
 2732TIP3   OH229610   6.725   5.747  13.455 -0.0998 -0.6540  0.6485
 2732TIP3    H129611   6.741   5.821  13.513 -0.7076  1.2311 -1.4236
 2732TIP3    H229612   6.630   5.739  13.450 -0.1451  0.4726 -1.4524
 2733TIP3   OH229613   4.965   3.950  11.428 -0.5518 -0.4290 -0.0399
 2733TIP3    H129614   5.004   4.028  11.467  2.3035 -1.3364 -0.8083
 2733TIP3    H229615   4.969   3.965  11.334 -0.2901 -1.3478 -0.1894
 2734TIP3   OH229616   0.557   2.933  11.090 -0.3306 -0.2769  0.4040
 2734TIP3    H129617   0.566   2.981  11.173  0.4864  0.5473 -0.1517
 2734TIP3    H229618   0.551   3.002  11.023 -0.0717 -0.9449 -0.3163
 2735TIP3   OH229619   0.017   1.293   2.203  0.2251  0.1667  0.1262
 2735TIP3    H129620  -0.078   1.295   2.217  0.2097  1.0470 -0.0374
 2735TIP3    H229621   0.029   1.332   2.116  0.6940 -0.5521 -0.1424
 2736TIP3   OH229622   1.365   2.538  16.850 -0.6041  0.1992  0.5435
 2736TIP3    H129623   1.316   2.619  16.834  0.0594  1.0969  2.7123
 2736TIP3    H229624   1.448   2.566  16.887  0.4554 -1.4319 -0.4580
 2737TIP3   OH229625   5.346   0.128   1.941  0.3054  0.7945 -0.0333
 2737TIP3    H129626   5.321   0.221   1.943  0.3169  0.8211 -0.8198
 2737TIP3    H229627   5.270   0.085   1.902  0.4583  0.5289 -0.0353
 2738TIP3   OH229628   0.859   1.170  13.735 -0.2680 -0.0384 -0.2929
 2738TIP3    H129629   0.887   1.098  13.792 -0.3040  1.2038  1.3629
 2738TIP3    H229630   0.766   1.180  13.752 -0.2660  0.3930 -0.5252
 2739TIP3   OH229631   5.442   0.436   1.886 -0.7718 -0.4827 -0.0326
 2739TIP3    H129632   5.380   0.481   1.829 -0.8125 -2.0971 -1.3283
 2739TIP3    H229633   5.403   0.440   1.973 -2.0741 -0.4178 -0.6099
 2740TIP3   OH229634   0.669   3.510   3.137 -0.0495 -0.1085 -0.0308
 2740TIP3    H129635   0.625   3.484   3.218 -0.1546 -0.3728 -0.1717
 2740TIP3    H229636   0.762   3.509   3.160 -0.0751 -0.2445  0.0695
 2741TIP3   OH229637   3.357   6.271   2.696  0.4301  0.0501 -0.3460
 2741TIP3    H129638   3.290   6.204   2.682  2.2149 -2.0220  0.4946
 2741TIP3    H229639   3.399   6.247   2.778  2.1022  1.3602 -0.7436
 2742TIP3   OH229640   2.378   6.394  13.322  0.0046  0.7397 -0.3711
 2742TIP3    H129641   2.426   6.325  13.369 -1.1862  0.4069  0.3984
 2742TIP3    H229642   2.351   6.455  13.391 -1.2013  0.5969 -0.6943
 2743TIP3   OH229643   2.073   5.650   1.414  0.1510 -0.0947  0.7142
 2743TIP3    H129644   2.124   5.731   1.420 -0.2654  0.1376  1.1017
 2743TIP3    H229645   2.097   5.600   1.492  1.1584 -0.7952 -0.0086
 2744TIP3   OH229646   1.428   0.825  12.460  0.1647 -0.6111  0.2630
 2744TIP3    H129647   1.518   0.815  12.429 -0.0806 -1.2139 -0.2628
 2744TIP3    H229648   1.380   0.858  12.385 -0.5125 -2.4387 -0.1642
 2745TIP3   OH229649   6.718   3.153  16.995 -0.2804 -0.1956  0.3607
 2745TIP3    H129650   6.727   3.188  17.084  1.6139  2.4027 -0.7032
 2745TIP3    H229651   6.625   3.131  16.987 -0.9838  1.6947  2.2653
 2746TIP3   OH229652   0.413   5.358   6.004 -0.0932  0.2599  0.1854
 2746TIP3    H129653   0.367   5.325   5.927  0.4474  1.9775 -0.9360
 2746TIP3    H229654   0.344   5.383   6.065 -0.6416  1.4060 -0.8713
 2747TIP3   OH229655   2.663   5.926   1.511  0.1565 -0.4891  0.1524
 2747TIP3    H129656   2.692   5.966   1.592  1.3719  2.4902 -1.5956
 2747TIP3    H229657   2.728   5.858   1.493 -2.2819 -4.1980  3.4836
 2748TIP3   OH229658   6.759   4.036  13.813  0.3840 -0.1646 -0.8434
 2748TIP3    H129659   6.849   4.066  13.823  0.3769  0.4724 -2.4723
 2748TIP3    H229660   6.720   4.048  13.900  1.1261  2.0250 -0.7630
 2749TIP3   OH229661   1.487   5.563  16.682 -0.1803 -0.3567  0.2958
 2749TIP3    H129662   1.401   5.581  16.720  0.0224  0.4484  0.3795
 2749TIP3    H229663   1.468   5.510  16.604 -0.7613 -0.0639  0.2366
 2750TIP3   OH229664   4.369   4.128  14.290 -0.1130 -0.1960 -0.8624
 2750TIP3    H129665   4.400   4.103  14.377  1.0684  2.7583 -0.3166
 2750TIP3    H229666   4.388   4.052  14.235  0.9015 -1.4121  1.0552
 2751TIP3   OH229667   4.264   0.426   5.511  0.1795 -0.2096 -0.3288
 2751TIP3    H129668   4.238   0.349   5.562 -2.3919 -0.1494 -1.3923
 2751TIP3    H229669   4.329   0.393   5.449  1.0885 -0.9126  0.9518
 2752TIP3   OH229670   0.159   1.337  12.372  0.0907 -0.3600  0.5002
 2752TIP3    H129671   0.168   1.271  12.440 -0.4643 -0.0278  0.9038
 2752TIP3    H229672   0.134   1.417  12.419 -0.4189 -0.1563 -0.1065
 2753TIP3   OH229673   1.596   3.006   2.029  0.0696 -0.5077  0.3587
 2753TIP3    H129674   1.522   3.014   1.969  1.6657 -2.1463 -1.9927
 2753TIP3    H229675   1.615   2.913   2.033  2.7478 -0.0876 -0.1513
 2754TIP3   OH229676   2.518   4.144  17.122  0.3654 -0.5724 -0.1544
 2754TIP3    H129677   2.453   4.165  17.054  0.7068  1.4245  0.0714
 2754TIP3    H229678   2.602   4.165  17.081  0.6903 -0.8279  0.3781
 2755TIP3   OH229679   0.944   0.203   5.148 -0.3027  0.1509 -0.6167
 2755TIP3    H129680   0.906   0.150   5.219 -2.0113  0.8622 -0.9435
 2755TIP3    H229681   1.035   0.215   5.173 -0.4469 -1.0620  0.5921
 2756TIP3   OH229682   1.834   3.924   6.159  0.2177  0.2722  0.0173
 2756TIP3    H129683   1.815   3.834   6.187 -0.7937 -0.4229 -2.5945
 2756TIP3    H229684   1.921   3.942   6.195  0.5459 -1.8398  0.4329
 2757TIP3   OH229685   4.277   6.538   1.481  0.3433 -0.0970 -0.1907
 2757TIP3    H129686   4.277   6.451   1.443 -0.5472  0.3078 -1.1573
 2757TIP3    H229687   4.194   6.544   1.528  0.0103  0.5127 -0.8359
 2758TIP3   OH229688   4.720   4.955   6.283  0.2361 -0.0560 -0.1279
 2758TIP3    H129689   4.803   4.962   6.331  0.6826  1.0022 -1.0209
 2758TIP3    H229690   4.734   4.885   6.220  0.4470  0.0944 -0.2507
 2759TIP3   OH229691   1.297   6.036  16.131 -0.2770  0.9733  0.0742
 2759TIP3    H129692   1.211   6.046  16.091  0.1862  1.9969 -0.7105
 2759TIP3    H229693   1.306   6.113  16.188  0.0305  0.7471  0.3391
 2760TIP3   OH229694   3.726   0.114   2.186  0.3542  0.3032 -0.0522
 2760TIP3    H129695   3.793   0.047   2.172 -0.1924 -0.4689  0.8465
 2760TIP3    H229696   3.655   0.091   2.126 -0.6581 -1.1376  1.5799
 2761TIP3   OH229697   6.077   6.426  15.452  0.1831  0.0476 -0.6436
 2761TIP3    H129698   6.044   6.503  15.497 -0.7519 -0.8460  0.2476
 2761TIP3    H229699   6.000   6.372  15.435  0.8713 -0.9323 -0.7845
 2762TIP3   OH229700   2.041   0.999  12.195  0.0615 -0.1343  0.4583
 2762TIP3    H129701   2.115   1.053  12.170  0.6584 -1.2851 -0.3778
 2762TIP3    H229702   1.981   1.058  12.241  1.7966  0.6879  1.7843
 2763TIP3   OH229703   2.217   4.373  14.498 -0.2995 -0.2441  1.0325
 2763TIP3    H129704   2.228   4.285  14.533  0.1059 -0.9925 -0.8606
 2763TIP3    H229705   2.122   4.382  14.486 -0.2155 -1.5633 -1.3415
 2764TIP3   OH229706   3.746   1.785   5.398  0.0558 -0.0598 -0.4313
 2764TIP3    H129707   3.791   1.807   5.317  0.5949 -0.8635 -0.3571
 2764TIP3    H229708   3.704   1.701   5.380 -1.8726  0.8935 -0.6757
 2765TIP3   OH229709   3.331   5.599  14.283 -0.1402  0.1582 -0.3981
 2765TIP3    H129710   3.268   5.614  14.213 -0.7583  0.4186  0.2032
 2765TIP3    H229711   3.408   5.562  14.239 -1.2915 -1.7412 -0.9313
 2766TIP3   OH229712   4.413   5.442  16.164  0.2906  0.2838 -0.5982
 2766TIP3    H129713   4.496   5.481  16.191 -0.4006  1.4372 -0.0544
 2766TIP3    H229714   4.363   5.515  16.127 -0.5853 -0.3325 -0.6616
 2767TIP3   OH229715   5.296   1.292  15.189  0.3114  0.5222 -0.4974
 2767TIP3    H129716   5.350   1.250  15.122 -0.3611 -0.4772 -0.4397
 2767TIP3    H229717   5.227   1.228  15.207  0.5827  0.6780  1.2854
 2768TIP3   OH229718   4.202   2.492   5.225  0.2317  0.4427  0.3289
 2768TIP3    H129719   4.247   2.416   5.263 -0.1517 -1.5815 -2.8469
 2768TIP3    H229720   4.272   2.550   5.198  0.9327 -1.1789 -1.6372
 2769TIP3   OH229721   5.175   5.144   3.858  0.6265  0.0958  0.1139
 2769TIP3    H129722   5.132   5.160   3.942  1.5810 -0.2375  0.6771
 2769TIP3    H229723   5.127   5.199   3.796 -2.1858 -2.0314  0.2191
 2770TIP3   OH229724   6.777   4.438  15.417  0.0613  0.1098  0.0110
 2770TIP3    H129725   6.734   4.405  15.339  1.9143  2.0537 -1.9718
 2770TIP3    H229726   6.711   4.429  15.486 -1.2899 -2.6465 -1.4689
 2771TIP3   OH229727   0.037   0.901   1.218  0.2376 -0.1693  0.2156
 2771TIP3    H129728   0.009   0.984   1.181  1.1394 -0.5763 -1.5054
 2771TIP3    H229729  -0.044   0.856   1.243 -0.2993  0.8222  0.2820
 2772TIP3   OH229730   4.951   0.945  12.144  0.8161 -0.0447 -0.5791
 2772TIP3    H129731   5.028   0.893  12.122 -0.1140 -0.6263 -2.7491
 2772TIP3    H229732   4.910   0.899  12.217  0.6766 -1.7343 -1.6614
 2773TIP3   OH229733   5.123   6.205  16.842  0.6110  0.1852 -0.1679
 2773TIP3    H129734   5.032   6.236  16.841  0.7190  0.5166 -1.4163
 2773TIP3    H229735   5.118   6.118  16.883 -0.1576  0.4926  0.4225
 2774TIP3   OH229736   6.096   5.553  15.414 -0.4512 -0.1810  0.2430
 2774TIP3    H129737   6.142   5.535  15.332 -0.9995 -2.1564  0.3263
 2774TIP3    H229738   6.111   5.476  15.468 -0.8675  0.6920  1.6615
 2775TIP3   OH229739   3.791   3.176  13.215  0.4455 -0.3263 -0.1495
 2775TIP3    H129740   3.819   3.132  13.134 -0.9637 -1.0788 -0.2478
 2775TIP3    H229741   3.743   3.109  13.263  0.1554  0.5004  0.7238
 2776TIP3   OH229742   2.928   4.508  11.918  0.3386  0.3165  0.9962
 2776TIP3    H129743   2.847   4.471  11.954  0.5692  0.0915  1.2935
 2776TIP3    H229744   2.900   4.583  11.867 -0.1978 -0.6333 -0.1384
 2777TIP3   OH229745   4.299   2.109   4.404  0.1688 -0.0198  0.5329
 2777TIP3    H129746   4.216   2.124   4.358  0.7893  1.4203 -0.2010
 2777TIP3    H229747   4.346   2.192   4.395  2.2800 -1.2361 -0.2886
 2778TIP3   OH229748   1.406   1.183  11.815 -0.2940 -0.3761 -0.0998
 2778TIP3    H129749   1.493   1.188  11.854 -0.9184 -1.4979  1.5764
 2778TIP3    H229750   1.390   1.271  11.780  0.8476  0.3337  1.0599
 2779TIP3   OH229751   0.563   6.196   2.654  0.3944  0.8037  0.1971
 2779TIP3    H129752   0.583   6.109   2.619 -2.5085 -0.0636  0.3860
 2779TIP3    H229753   0.557   6.184   2.748  0.5602  1.3461  0.2813
 2780TIP3   OH229754   4.602   4.760   3.220 -1.0226  0.1229 -0.0815
 2780TIP3    H129755   4.560   4.761   3.134  0.4299  1.3087 -0.8156
 2780TIP3    H229756   4.608   4.668   3.243 -1.6311 -0.1939 -1.1410
 2781TIP3   OH229757   1.102   0.352  13.451  0.9250 -0.4967 -0.0844
 2781TIP3    H129758   1.073   0.435  13.488 -1.4684 -1.5261  0.5492
 2781TIP3    H229759   1.106   0.367  13.356 -0.0933  0.1769 -0.0265
 2782TIP3   OH229760   3.988   3.788   4.631 -0.0497 -0.2043  0.1454
 2782TIP3    H129761   3.990   3.737   4.712 -0.3489 -1.3622 -0.5507
 2782TIP3    H229762   3.939   3.867   4.654  1.1100  0.1647  1.4527
 2783TIP3   OH229763   6.149   1.718  14.280 -0.3621 -0.1403  0.2102
 2783TIP3    H129764   6.086   1.687  14.214  0.7059  1.0624 -1.4523
 2783TIP3    H229765   6.126   1.809  14.295  1.8199  0.8378 -1.6375
 2784TIP3   OH229766   4.092   3.888  12.797  0.2536  0.1404  0.7696
 2784TIP3    H129767   4.069   3.861  12.885  0.7550  0.2752  0.9441
 2784TIP3    H229768   4.174   3.937  12.807 -0.6690  1.8242  0.4828
 2785TIP3   OH229769   4.690   2.316   1.568 -0.1469 -0.1371 -0.6350
 2785TIP3    H129770   4.640   2.237   1.589 -0.6256  0.4475  0.4688
 2785TIP3    H229771   4.761   2.284   1.511 -0.3032 -1.3689 -0.1756
 2786TIP3   OH229772   0.350   3.601   6.234 -0.2942  0.1567  0.3474
 2786TIP3    H129773   0.329   3.681   6.282  1.3699  0.2757  0.9428
 2786TIP3    H229774   0.337   3.531   6.299  1.6476  0.2905  0.9522
 2787TIP3   OH229775   6.221   5.222   2.384  1.0863  0.5424  0.0668
 2787TIP3    H129776   6.179   5.137   2.396  1.6550  0.1552 -0.5823
 2787TIP3    H229777   6.287   5.227   2.453  1.4444  0.1986 -0.2466
 2788TIP3   OH229778   3.009   2.562  11.071  0.4456 -0.0868 -0.4188
 2788TIP3    H129779   2.991   2.622  10.998 -1.0970 -0.5323 -0.4456
 2788TIP3    H229780   3.006   2.475  11.031  0.4079 -0.2934  0.0342
 2789TIP3   OH229781   0.741   0.227  14.415  0.3077  0.1652  0.2380
 2789TIP3    H129782   0.681   0.301  14.401 -1.5200 -0.8332  2.2079
 2789TIP3    H229783   0.734   0.208  14.508 -1.2631 -3.9922 -0.5233
 2790TIP3   OH229784   0.870   6.161   0.122 -0.0024  0.1326  0.2000
 2790TIP3    H129785   0.868   6.157   0.218  3.6880  0.8745  0.4197
 2790TIP3    H229786   0.894   6.073   0.095  0.6090  0.3420  0.0596
 2791TIP3   OH229787   1.175   6.411   0.774  0.1348 -0.3529  0.5040
 2791TIP3    H129788   1.209   6.443   0.858 -0.0021  1.4469 -0.0660
 2791TIP3    H229789   1.091   6.457   0.765  0.0033 -0.7782 -0.4633
 2792TIP3   OH229790   4.491   1.632  12.287 -0.2447 -0.6458  0.1034
 2792TIP3    H129791   4.456   1.543  12.289  0.6770 -1.0711 -1.5540
 2792TIP3    H229792   4.575   1.626  12.334 -0.5330 -0.4679  0.6548
 2793TIP3   OH229793   3.965   1.994   1.421 -0.2758  0.2797  0.4038
 2793TIP3    H129794   3.881   1.968   1.460 -0.1528  0.9468  1.1165
 2793TIP3    H229795   3.948   1.993   1.327 -0.4134 -1.9443  0.3779
 2794TIP3   OH229796   0.454   4.536   5.812 -0.1773  0.1407  0.0536
 2794TIP3    H129797   0.454   4.443   5.791  1.4646 -0.2664  1.6315
 2794TIP3    H229798   0.391   4.545   5.883 -0.0149  0.1505  0.1976
 2795TIP3   OH229799   1.556   2.707   4.089  0.1439 -0.5073  0.1594
 2795TIP3    H129800   1.467   2.724   4.121  0.4654 -1.6244  1.7383
 2795TIP3    H229801   1.608   2.693   4.168  2.2722  2.3028 -0.5773
 2796TIP3   OH229802   5.108   6.014  16.120  0.6789 -0.4332  0.2432
 2796TIP3    H129803   5.151   5.988  16.201 -0.0784  0.1730  0.8520
 2796TIP3    H229804   5.116   6.109  16.118 -0.4238 -0.3278  0.2575
 2797TIP3   OH229805   5.601   6.412   2.592 -0.1378  0.2197 -0.7108
 2797TIP3    H129806   5.650   6.368   2.661 -1.6627  0.9758  0.9398
 2797TIP3    H229807   5.634   6.373   2.511  2.1464 -0.2746  0.3703
 2798TIP3   OH229808   2.984   5.843  14.409  0.2931 -0.6868  0.0750
 2798TIP3    H129809   2.968   5.922  14.461  2.6793  0.4954 -0.8476
 2798TIP3    H229810   2.983   5.771  14.472 -0.1516  0.2937  1.2150
 2799TIP3   OH229811   0.152   3.292  13.051 -0.2346 -0.1543 -0.2972
 2799TIP3    H129812   0.105   3.222  13.007 -0.4205  0.5828 -1.3047
 2799TIP3    H229813   0.233   3.252  13.082 -1.3240 -1.3544  1.1376
 2800TIP3   OH229814   1.632   2.368   1.029  0.1913  0.0046 -0.3096
 2800TIP3    H129815   1.603   2.369   0.937 -0.0624  1.8516 -0.2568
 2800TIP3    H229816   1.556   2.401   1.078  0.8765  0.6333  0.3509
 2801TIP3   OH229817   4.626   5.427   1.928  0.2281 -0.3145  0.0772
 2801TIP3    H129818   4.556   5.465   1.875  0.8987  2.5889  1.0668
 2801TIP3    H229819   4.594   5.433   2.018  0.9914 -0.7268  0.3827
 2802TIP3   OH229820   4.861   3.566  16.515 -0.0387 -0.3900 -0.1506
 2802TIP3    H129821   4.950   3.600  16.510  0.3915 -1.3208  0.7745
 2802TIP3    H229822   4.872   3.476  16.544 -1.3351 -0.2291  0.9126
 2803TIP3   OH229823   0.246   1.670   1.119  0.0102  0.4568  0.7992
 2803TIP3    H129824   0.289   1.595   1.078  0.7284  1.1940  0.1685
 2803TIP3    H229825   0.318   1.724   1.153 -0.2290  2.4368 -1.5260
 2804TIP3   OH229826   2.962   5.514   5.468  0.5351 -0.4771 -0.2841
 2804TIP3    H129827   3.018   5.578   5.424  0.8422 -1.0242 -0.7078
 2804TIP3    H229828   3.020   5.470   5.530  0.6962 -1.3471 -1.0323
 2805TIP3   OH229829   1.871   3.786  16.708  0.1172 -0.2838  0.2183
 2805TIP3    H129830   1.859   3.807  16.616 -2.6332 -2.1278  0.0327
 2805TIP3    H229831   1.965   3.771  16.718  0.4906  0.0291 -2.2407
 2806TIP3   OH229832   3.288   4.454  16.651 -0.3359  0.1222 -0.6836
 2806TIP3    H129833   3.215   4.503  16.612  0.1192  0.9855 -0.4606
 2806TIP3    H229834   3.360   4.517  16.654  0.4092 -0.7118 -0.8530
 2807TIP3   OH229835   1.387   5.895   1.054 -0.2368  0.0051 -0.3893
 2807TIP3    H129836   1.412   5.856   1.138 -0.5669  2.2546  0.8223
 2807TIP3    H229837   1.294   5.917   1.065  0.0538  1.5321 -0.8218
 2808TIP3   OH229838   0.305   1.680   5.592  0.6898 -0.4686 -0.1032
 2808TIP3    H129839   0.315   1.739   5.517  1.5447  0.5132  0.7433
 2808TIP3    H229840   0.392   1.643   5.605  1.2797  1.3689  1.9410
 2809TIP3   OH229841   3.120   6.231   5.635  0.3158  0.5493  0.2736
 2809TIP3    H129842   3.180   6.279   5.579  1.5706 -0.8694  0.3228
 2809TIP3    H229843   3.099   6.291   5.706 -0.6607  2.0932 -1.2482
 2810TIP3   OH229844   3.315   5.202  12.954 -0.3222  0.5753 -0.0977
 2810TIP3    H129845   3.321   5.126  12.897 -0.8385  1.3129 -1.1624
 2810TIP3    H229846   3.364   5.177  13.033  0.4224 -0.4505 -0.8629
 2811TIP3   OH229847   5.280   3.500   0.668 -0.2570  0.1511 -0.1342
 2811TIP3    H129848   5.225   3.501   0.746  0.5214 -0.5734  0.4401
 2811TIP3    H229849   5.337   3.424   0.680 -0.8149 -0.5975 -1.8830
 2812TIP3   OH229850   4.620   5.838   4.644 -0.1286 -0.0939  0.0227
 2812TIP3    H129851   4.554   5.854   4.577  1.3576  0.9570 -1.2553
 2812TIP3    H229852   4.640   5.925   4.678 -2.0075 -0.7018  3.0996
 2813TIP3   OH229853   1.244   1.482   3.910 -0.5384  0.3133  0.1823
 2813TIP3    H129854   1.218   1.423   3.981 -0.4368 -0.6138 -0.5337
 2813TIP3    H229855   1.175   1.549   3.908 -0.6818  0.2026  0.9733
 2814TIP3   OH229856   3.348   0.915   1.243  0.1955  0.2154 -0.6205
 2814TIP3    H129857   3.300   0.832   1.245  0.4985  0.0501  0.2947
 2814TIP3    H229858   3.320   0.956   1.162 -1.0359 -0.1489 -0.4103
 2815TIP3   OH229859   0.691   5.659  11.450 -0.0823 -0.3421 -0.8494
 2815TIP3    H129860   0.757   5.688  11.387  1.1570 -0.7274  0.2102
 2815TIP3    H229861   0.706   5.565  11.459  1.1579 -0.0153  1.4651
 2816TIP3   OH229862   4.254   0.293   2.911 -0.0046  0.1589 -0.6194
 2816TIP3    H129863   4.210   0.215   2.879  0.1072 -1.5420  2.8601
 2816TIP3    H229864   4.347   0.272   2.905  0.1790  1.2361 -2.2108
 2817TIP3   OH229865   6.414   3.079  13.246  0.0350 -0.3280  0.1842
 2817TIP3    H129866   6.386   3.164  13.214  1.4258 -0.0752 -0.4480
 2817TIP3    H229867   6.424   3.091  13.341 -1.5509 -0.3371  0.3789
 2818TIP3   OH229868   6.106   5.168  13.534  0.1581  0.3302  0.1403
 2818TIP3    H129869   6.026   5.221  13.534  0.9270  1.5341  0.5301
 2818TIP3    H229870   6.176   5.230  13.553  0.9756 -1.0312  1.9240
 2819TIP3   OH229871   0.937   0.875  13.022 -0.2526  0.4715  0.3653
 2819TIP3    H129872   0.975   0.847  13.106  0.2240  0.5266  0.1711
 2819TIP3    H229873   0.955   0.802  12.963  2.5637  1.8030 -0.6190
 2820TIP3   OH229874   5.061   3.352  13.773 -0.2297  0.0305  0.1722
 2820TIP3    H129875   5.110   3.363  13.854 -0.5835 -1.4385  0.6147
 2820TIP3    H229876   5.024   3.438  13.755  0.0609  0.4276  1.4262
 2821TIP3   OH229877   1.126   6.254   4.869 -0.0943  0.3588  0.0163
 2821TIP3    H129878   1.212   6.235   4.907 -0.7804 -0.4585  1.2542
 2821TIP3    H229879   1.128   6.348   4.850  0.8666  0.4675  0.5915
 2822TIP3   OH229880   2.354   4.411  12.568 -0.1474 -0.0550 -0.3177
 2822TIP3    H129881   2.407   4.435  12.644 -0.9193  0.5505  0.0388
 2822TIP3    H229882   2.298   4.339  12.599 -1.3745  1.0341  0.0929
 2823TIP3   OH229883   3.779   3.447  11.912 -0.3857  0.1864 -0.3890
 2823TIP3    H129884   3.781   3.471  11.819  3.7415 -1.8714 -1.0503
 2823TIP3    H229885   3.729   3.366  11.915  1.0228 -0.7614 -1.2328
 2824TIP3   OH229886   2.497   3.471  12.429 -0.0349 -0.0171 -0.6175
 2824TIP3    H129887   2.537   3.546  12.384  0.5959 -0.0574 -0.1249
 2824TIP3    H229888   2.405   3.497  12.439 -0.0844  0.2008 -1.4826
 2825TIP3   OH229889   1.197   5.111  15.607  0.4035  0.4033 -0.5099
 2825TIP3    H129890   1.113   5.157  15.605 -0.1444 -0.5009  0.7271
 2825TIP3    H229891   1.237   5.132  15.523 -1.8058 -0.5482 -1.8865
 2826TIP3   OH229892   0.319   1.602  10.748 -0.6843 -0.2163  0.0911
 2826TIP3    H129893   0.244   1.636  10.700  0.4453  1.9646 -0.2383
 2826TIP3    H229894   0.387   1.591  10.681 -1.0296 -3.5941  0.1050
 2827TIP3   OH229895   2.664   1.601   6.429 -0.4443  0.3978  0.1692
 2827TIP3    H129896   2.591   1.577   6.487 -1.9214  2.6659 -0.6025
 2827TIP3    H229897   2.691   1.519   6.389  0.1360 -1.1596  3.4155
 2828TIP3   OH229898   2.127   1.421   5.426 -0.1901 -0.0675 -0.3300
 2828TIP3    H129899   2.219   1.404   5.408  0.0101 -0.0903  0.6693
 2828TIP3    H229900   2.122   1.431   5.521 -0.4933  4.1157 -0.5889
 2829TIP3   OH229901   3.653   2.161  13.841  0.4069  0.2522  0.5490
 2829TIP3    H129902   3.674   2.215  13.764  0.8295 -0.9222 -0.1904
 2829TIP3    H229903   3.731   2.169  13.897 -0.2937  1.9005  1.3645
 2830TIP3   OH229904   4.399   6.395  11.119  0.0815 -0.6185  0.4961
 2830TIP3    H129905   4.370   6.434  11.037  0.1896  0.8841  1.1514
 2830TIP3    H229906   4.412   6.302  11.098 -0.2277 -0.3261 -1.0850
 2831TIP3   OH229907   5.192   0.522  14.731  0.2591 -0.4508 -0.2958
 2831TIP3    H129908   5.178   0.474  14.650  1.8413 -0.8454 -0.3640
 2831TIP3    H229909   5.203   0.613  14.704 -0.5534 -0.3700 -0.3790
 2832TIP3   OH229910   5.476   2.944  15.902 -0.5768 -0.3885 -0.6289
 2832TIP3    H129911   5.390   2.944  15.944 -0.4016  0.8082 -0.2393
 2832TIP3    H229912   5.474   3.020  15.844 -0.5219 -1.5521 -2.2141
 2833TIP3   OH229913   4.556   0.740   4.232  0.7436  0.1230  0.5637
 2833TIP3    H129914   4.636   0.705   4.194  1.7558  2.3410  0.4969
 2833TIP3    H229915   4.582   0.771   4.318  0.5154  2.7339 -0.2361
 2834TIP3   OH229916   3.328   4.073  15.157 -0.5906  0.2088 -0.7834
 2834TIP3    H129917   3.325   4.137  15.228 -2.9264 -1.5290  0.8363
 2834TIP3    H229918   3.416   4.036  15.161 -0.5673  0.3957  0.9757
 2835TIP3   OH229919   2.991   6.560  12.373 -0.0469 -0.1719  0.5131
 2835TIP3    H129920   3.059   6.598  12.318 -0.5286 -1.4355 -0.9915
 2835TIP3    H229921   3.029   6.559  12.461  2.4545 -2.1075 -0.4866
 2836TIP3   OH229922   3.750   2.753  14.269  0.2016 -0.0791 -0.3989
 2836TIP3    H129923   3.711   2.840  14.284 -0.2955  0.0974 -2.3757
 2836TIP3    H229924   3.825   2.750  14.328  0.0434  1.5702 -0.0431
 2837TIP3   OH229925   4.744   2.206   2.331  0.1056 -0.9705 -0.1752
 2837TIP3    H129926   4.773   2.292   2.303  0.7384 -0.5342  1.6801
 2837TIP3    H229927   4.746   2.153   2.251 -0.0134  0.6379 -1.2892
 2838TIP3   OH229928   0.823   0.984   5.409 -0.2855  0.5290  0.0414
 2838TIP3    H129929   0.901   0.944   5.448 -0.1695  1.8031  1.2306
 2838TIP3    H229930   0.788   0.918   5.350  1.2363 -0.3750  0.1144
 2839TIP3   OH229931   3.846   6.647  16.968  0.0464 -0.0974  0.1952
 2839TIP3    H129932   3.803   6.665  17.051 -1.3547  2.4102 -0.9773
 2839TIP3    H229933   3.775   6.620  16.910  0.9449 -1.3745 -0.3708
 2840TIP3   OH229934   3.753   0.201   4.307 -0.2668  0.0023 -0.2527
 2840TIP3    H129935   3.747   0.119   4.258 -2.9071  0.6343 -1.1211
 2840TIP3    H229936   3.839   0.197   4.349  0.6198 -2.1888 -2.0555
 2841TIP3   OH229937   3.665   3.611  15.126  0.2402  0.6485 -0.6309
 2841TIP3    H129938   3.624   3.629  15.211  0.0850  2.1401 -0.9987
 2841TIP3    H229939   3.758   3.599  15.147 -0.1502 -1.8304  0.0797
 2842TIP3   OH229940   6.487   5.010  12.475  0.3621 -0.1898  0.1612
 2842TIP3    H129941   6.439   4.966  12.405  1.7264  1.5995 -2.0609
 2842TIP3    H229942   6.538   4.940  12.517 -0.8578 -1.3894 -0.2932
 2843TIP3   OH229943   5.949   0.348   0.047  0.2654  0.0320  0.3539
 2843TIP3    H129944   5.882   0.399   0.002  1.9752 -0.5884 -3.2434
 2843TIP3    H229945   6.019   0.411   0.065 -0.9006  0.5760  3.6670
 2844TIP3   OH229946   3.484   0.502  11.228  0.5679  0.1369  0.2002
 2844TIP3    H129947   3.503   0.589  11.193  0.2759  1.3459  2.7838
 2844TIP3    H229948   3.390   0.492  11.219  0.4997  0.4271  0.5421
 2845TIP3   OH229949   5.349   4.761  11.151 -0.3547  0.3822 -0.4889
 2845TIP3    H129950   5.347   4.792  11.241 -1.1972 -2.0031  0.3896
 2845TIP3    H229951   5.275   4.805  11.109 -1.2895 -0.0916  0.6053
 2846TIP3   OH229952   0.938   2.279  14.838 -0.3997 -0.2888 -0.2761
 2846TIP3    H129953   0.931   2.372  14.817 -0.1497 -0.5582 -1.6993
 2846TIP3    H229954   0.951   2.237  14.753  0.4516 -1.5249  0.4337
 2847TIP3   OH229955   6.361   1.136   4.669  0.2841  0.4250 -0.0100
 2847TIP3    H129956   6.270   1.121   4.695  0.3255 -0.0983 -0.1436
 2847TIP3    H229957   6.406   1.054   4.692  0.7032  0.6507 -0.0159
 2848TIP3   OH229958   6.577   2.107   2.822  0.3186  0.2571  0.7959
 2848TIP3    H129959   6.668   2.127   2.846 -0.1165  3.9771  0.0385
 2848TIP3    H229960   6.527   2.182   2.855 -2.5446 -1.6975  1.2473
 2849TIP3   OH229961   1.343   1.663  12.433  0.7228 -0.4978 -0.8572
 2849TIP3    H129962   1.277   1.596  12.414  0.2960  0.5034 -3.2739
 2849TIP3    H229963   1.426   1.616  12.427  0.3968 -0.9735 -1.8589
 2850TIP3   OH229964   2.502   0.089  12.751  0.0153  0.0160 -0.0296
 2850TIP3    H129965   2.552   0.032  12.692 -0.2657 -0.1319 -0.1229
 2850TIP3    H229966   2.568   0.149  12.787  0.4901 -0.9745  0.8038
 2851TIP3   OH229967   1.098   0.731  14.074 -0.0175 -0.1934 -0.0098
 2851TIP3    H129968   1.157   0.660  14.048 -0.2346 -0.1863 -0.5436
 2851TIP3    H229969   1.018   0.686  14.102  0.4750 -0.2378  1.3918
 2852TIP3   OH229970   3.920   3.008  14.504 -0.2671  0.5992  0.0808
 2852TIP3    H129971   3.963   2.944  14.447  0.7687  0.0444  1.4431
 2852TIP3    H229972   3.839   3.030  14.458  0.8249  0.6911 -1.9485
 2853TIP3   OH229973   1.080   1.543  15.164  0.4083 -0.1299  0.5454
 2853TIP3    H129974   1.016   1.556  15.095 -0.2494  2.1126  1.4765
 2853TIP3    H229975   1.164   1.563  15.122  0.2873 -0.9452 -0.1209
 2854TIP3   OH229976   5.075   1.503   2.616 -0.1067 -0.5363  0.1621
 2854TIP3    H129977   5.122   1.429   2.654 -1.0307 -1.4836 -0.4689
 2854TIP3    H229978   5.068   1.481   2.523  1.0928  1.1778 -0.3757
 2855TIP3   OH229979   2.456   2.437  15.426 -0.8326  0.3457  0.2934
 2855TIP3    H129980   2.423   2.487  15.501 -1.5455  0.0211  0.1956
 2855TIP3    H229981   2.432   2.347  15.444 -0.7533  0.2227 -0.1935
 2856TIP3   OH229982   0.351   5.373   4.545 -0.5971 -0.0983  0.1441
 2856TIP3    H129983   0.348   5.453   4.492  2.5949 -1.0511 -1.6676
 2856TIP3    H229984   0.361   5.405   4.635  0.7140  1.5857 -0.5426
 2857TIP3   OH229985   3.388   0.517   2.267 -0.5960  0.0429 -0.2410
 2857TIP3    H129986   3.453   0.448   2.250 -1.7024 -0.9892 -0.4848
 2857TIP3    H229987   3.354   0.497   2.354  1.2044  2.1302  1.0574
 2858TIP3   OH229988   3.748   1.752  11.725 -0.2927  0.4483  0.5728
 2858TIP3    H129989   3.741   1.750  11.820 -0.8869 -0.0365  0.5252
 2858TIP3    H229990   3.838   1.779  11.707 -0.7494  2.6206  1.2790
 2859TIP3   OH229991   5.767   2.603   3.575  0.1301 -0.2377 -0.0505
 2859TIP3    H129992   5.698   2.541   3.552 -0.0717  1.3819 -5.0127
 2859TIP3    H229993   5.723   2.687   3.581  1.3824  0.7315 -2.7298
 2860TIP3   OH229994   3.337   3.860   1.860 -1.0322 -0.5457  0.4719
 2860TIP3    H129995   3.243   3.873   1.862 -0.8189  1.7078 -0.8319
 2860TIP3    H229996   3.367   3.912   1.785  1.5134  0.9613  2.3695
 2861TIP3   OH229997   5.588   0.956   1.241  0.0125  0.1988 -0.1936
 2861TIP3    H129998   5.559   0.964   1.150  1.3902  1.2072 -0.5640
 2861TIP3    H229999   5.526   1.009   1.291  0.1814  0.9205 -0.7468
 2862TIP3   OH230000   2.957   5.787  13.936  0.5071 -0.4752  0.2189
 2862TIP3    H130001   2.970   5.875  13.972  1.1251 -0.4145 -0.1424
 2862TIP3    H230002   2.947   5.731  14.014  0.7269 -0.1790  0.4627
 2863TIP3   OH230003   0.655   5.832   5.424  0.5406  0.4617 -0.1839
 2863TIP3    H130004   0.630   5.924   5.429 -2.5642 -0.1644 -1.6345
 2863TIP3    H230005   0.619   5.801   5.340  1.6798 -2.0334  0.1350
 2864TIP3   OH230006   1.252   2.754  14.009 -0.7131  0.1368  0.1923
 2864TIP3    H130007   1.316   2.821  13.985 -0.4736 -0.1286  0.0871
 2864TIP3    H230008   1.169   2.802  14.017 -0.5404  0.4481  0.1402
 2865TIP3   OH230009   4.110   3.987   5.281  0.0647 -0.5243 -0.1436
 2865TIP3    H130010   4.022   4.004   5.248  0.0575 -1.9247 -0.9111
 2865TIP3    H230011   4.099   3.914   5.342  0.5887 -0.1915  0.3575
 2866TIP3   OH230012   2.930   0.003   4.301 -0.2457 -0.0329 -0.0400
 2866TIP3    H130013   2.898  -0.020   4.213 -1.1686  0.9296  0.0195
 2866TIP3    H230014   2.863   0.061   4.336  0.3215 -0.0744  1.1542
 2867TIP3   OH230015   3.505   4.268   5.011  0.0065  0.0950  0.3281
 2867TIP3    H130016   3.479   4.187   5.054  0.1734 -0.9896 -1.4977
 2867TIP3    H230017   3.433   4.287   4.951 -0.6196  2.0312  1.5797
 2868TIP3   OH230018   0.959   3.657   0.990 -0.2705  0.1086  0.8524
 2868TIP3    H130019   0.989   3.642   1.079  1.3769 -1.4763  0.0992
 2868TIP3    H230020   1.000   3.588   0.939 -1.0390  1.0637 -1.1731
 2869TIP3   OH230021   0.973   0.156  13.906  0.3014  0.1880 -0.4405
 2869TIP3    H130022   1.049   0.121  13.859  1.4493  0.2603  1.2850
 2869TIP3    H230023   0.981   0.120  13.994 -1.1004  1.0624  0.0717
 2870TIP3   OH230024   0.445   2.411  15.779 -0.0481 -0.1474  0.2820
 2870TIP3    H130025   0.428   2.430  15.686  0.4499  1.3602  0.4715
 2870TIP3    H230026   0.414   2.489  15.825 -0.5735 -1.0102  1.4338
 2871TIP3   OH230027   1.050   0.536   0.641  0.5805 -0.1498 -0.3387
 2871TIP3    H130028   1.127   0.505   0.689  1.9689  1.3074 -1.5039
 2871TIP3    H230029   0.999   0.457   0.623 -0.1672 -0.7424  3.6419
 2872TIP3   OH230030   5.069   2.985  12.468 -0.7810 -0.2702 -0.2103
 2872TIP3    H130031   5.159   2.962  12.446 -0.6777  0.5016 -0.6159
 2872TIP3    H230032   5.062   3.078  12.450 -1.8583 -0.4500 -0.8453
 2873TIP3   OH230033   6.344   0.534   1.708 -0.5461 -0.4146 -0.5449
 2873TIP3    H130034   6.408   0.596   1.675 -0.2463  0.3750  1.3813
 2873TIP3    H230035   6.380   0.448   1.687  1.7263 -0.0158  1.3623
 2874TIP3   OH230036   4.509   2.162   4.120  0.6855  0.0251 -0.0647
 2874TIP3    H130037   4.588   2.215   4.117  2.3658 -2.3822 -0.8753
 2874TIP3    H230038   4.444   2.213   4.071  1.6036  2.1599  0.8263
 2875TIP3   OH230039   5.396   6.204   2.531  0.1099  0.1086  0.0870
 2875TIP3    H130040   5.420   6.244   2.615  0.6489 -0.1095  0.0401
 2875TIP3    H230041   5.302   6.221   2.523  0.1453  0.5484  0.5078
 2876TIP3   OH230042   0.234   1.501  12.153  0.6549  0.4651  0.3435
 2876TIP3    H130043   0.271   1.580  12.193  1.0342  0.1307  0.6578
 2876TIP3    H230044   0.230   1.437  12.225  0.7020  0.0800  0.0072
 2877TIP3   OH230045   1.996   4.943  11.651 -0.1247 -0.3527  0.1679
 2877TIP3    H130046   2.061   4.883  11.615 -1.6943 -2.5052  0.6876
 2877TIP3    H230047   2.011   4.941  11.746 -0.3998 -0.2144  0.2158
 2878TIP3   OH230048   1.016   3.960  11.992  0.7011  0.0350  0.1927
 2878TIP3    H130049   1.069   4.035  11.967 -0.8993  0.5983 -1.7504
 2878TIP3    H230050   0.989   3.920  11.910  0.0423 -1.6282  1.1524
 2879TIP3   OH230051   0.400   0.945  10.577  0.3711 -0.8660 -0.1683
 2879TIP3    H130052   0.445   1.005  10.636  0.1578  0.0470 -0.9027
 2879TIP3    H230053   0.470   0.892  10.539  0.8283  0.2498 -0.9743
 2880TIP3   OH230054   4.928   0.806   0.053 -0.4686 -0.6295 -0.0419
 2880TIP3    H130055   5.000   0.782  -0.005  0.6940  0.0834  1.0313
 2880TIP3    H230056   4.905   0.725   0.098 -0.7075 -0.9715 -0.7723
 2881TIP3   OH230057   4.634   6.739  11.772 -0.1390 -0.2670 -0.1708
 2881TIP3    H130058   4.668   6.695  11.850 -0.0245  0.7270  0.3550
 2881TIP3    H230059   4.543   6.760  11.793 -0.3634 -0.7304 -0.6355
 2882TIP3   OH230060   4.472   0.543   2.955 -0.0891  0.0318 -0.1657
 2882TIP3    H130061   4.526   0.610   2.913 -0.0412 -0.3732 -0.7666
 2882TIP3    H230062   4.482   0.466   2.899  1.6206 -1.1764  1.6650
 2883TIP3   OH230063   0.205   1.083   2.090  0.2324  0.4453  0.3266
 2883TIP3    H130064   0.182   1.089   1.997 -0.2102  0.1952  0.4187
 2883TIP3    H230065   0.293   1.121   2.095 -0.1989  1.5524 -0.0138
 2884TIP3   OH230066   2.691   2.563  14.089 -0.6776 -0.2458  0.1303
 2884TIP3    H130067   2.756   2.632  14.078 -1.7751  1.0510  1.4036
 2884TIP3    H230068   2.610   2.609  14.110 -2.6472 -1.6431 -3.4692
 2885TIP3   OH230069   2.637   0.028   1.123  0.1110 -0.5138 -0.0637
 2885TIP3    H130070   2.574   0.027   1.196 -0.0766 -0.2042 -0.2176
 2885TIP3    H230071   2.719  -0.003   1.162  0.0245 -0.3093  0.2931
 2886TIP3   OH230072   5.922   1.377  10.892 -0.0137 -0.2149 -0.2213
 2886TIP3    H130073   5.913   1.447  10.957  1.5659 -0.9907  0.8870
 2886TIP3    H230074   6.015   1.357  10.891 -0.1292 -0.8293 -2.1227
 2887TIP3   OH230075   4.319   1.890  13.413  0.2663  0.0415 -0.3527
 2887TIP3    H130076   4.400   1.872  13.365  0.7152  1.3094 -0.1065
 2887TIP3    H230077   4.286   1.972  13.375  1.4921  2.0078  2.4872
 2888TIP3   OH230078   2.747   2.579  16.240 -1.1172 -0.6242  0.4572
 2888TIP3    H130079   2.763   2.671  16.219 -3.1504 -0.1137  0.9352
 2888TIP3    H230080   2.803   2.561  16.315 -0.0811 -0.0288 -0.1528
 2889TIP3   OH230081   3.198   2.122  13.470 -0.3970 -0.2446 -0.5231
 2889TIP3    H130082   3.173   2.031  13.485  0.0826 -0.4845 -1.1547
 2889TIP3    H230083   3.158   2.144  13.386 -0.6226  0.1747 -0.3093
 2890TIP3   OH230084   3.253   3.916  11.935 -0.6025 -0.4286 -0.2523
 2890TIP3    H130085   3.279   3.828  11.962 -0.8565 -0.8061 -1.2002
 2890TIP3    H230086   3.232   3.961  12.016  0.9156 -0.7784  0.3769
 2891TIP3   OH230087   0.829   5.381  14.101  0.0831  0.6950  0.6202
 2891TIP3    H130088   0.775   5.374  14.179  0.8268  0.3423  1.1026
 2891TIP3    H230089   0.775   5.432  14.039  0.6193  3.6338  2.3695
 2892TIP3   OH230090   4.734   2.444  14.941  0.1901 -0.4496  0.2424
 2892TIP3    H130091   4.688   2.369  14.978 -0.1833  0.4488  1.6711
 2892TIP3    H230092   4.805   2.461  15.003  0.8384 -0.1877 -0.5536
 2893TIP3   OH230093   2.478   4.085   6.673 -0.0825 -0.2981 -0.1549
 2893TIP3    H130094   2.446   4.003   6.636  0.6410 -1.3111  1.4040
 2893TIP3    H230095   2.572   4.082   6.659  0.1300 -0.4326  1.2169
 2894TIP3   OH230096   3.629   1.870   1.985  0.4711 -0.1006  0.9458
 2894TIP3    H130097   3.661   1.893   1.898 -0.7225  1.2271  0.8275
 2894TIP3    H230098   3.537   1.846   1.971  0.3127 -0.0420  1.8204
 2895TIP3   OH230099   6.176   6.189  15.586 -0.5319 -0.1234  0.2519
 2895TIP3    H130100   6.177   6.244  15.507  2.0919 -0.7513 -0.2598
 2895TIP3    H230101   6.156   6.249  15.657  0.2226  1.1308 -0.5463
 2896TIP3   OH230102   0.919   3.213   3.072  0.0824  0.0094  0.0544
 2896TIP3    H130103   0.885   3.160   3.144  0.9828 -1.8333 -0.8015
 2896TIP3    H230104   0.863   3.192   2.998  1.6865 -1.4387 -0.8254
 2897TIP3   OH230105   0.704   1.555   5.139 -0.5286 -0.5221  0.2240
 2897TIP3    H130106   0.728   1.471   5.099  0.0125 -0.2455 -0.0331
 2897TIP3    H230107   0.655   1.530   5.218 -0.3014 -1.0829  0.1938
 2898TIP3   OH230108   6.618   4.667   2.037 -0.4945 -0.5361 -0.8014
 2898TIP3    H130109   6.702   4.643   2.077  0.6697 -0.5448 -3.0675
 2898TIP3    H230110   6.613   4.762   2.049  1.0229 -0.1603 -2.5577
 2899TIP3   OH230111   5.830   0.753  16.729 -0.0499  0.6054 -0.2213
 2899TIP3    H130112   5.879   0.725  16.807 -0.4720 -1.5069 -0.6356
 2899TIP3    H230113   5.892   0.741  16.657 -0.1063  1.1889 -0.3660
 2900TIP3   OH230114   1.504   3.258   1.393  0.2933 -0.1515 -1.5548
 2900TIP3    H130115   1.514   3.348   1.362  1.3251  0.7104  0.9977
 2900TIP3    H230116   1.589   3.217   1.376  0.6502  0.1340 -0.5353
 2901TIP3   OH230117   3.509   4.220  11.582 -0.4983 -0.2782  0.2134
 2901TIP3    H130118   3.459   4.205  11.502 -0.1075 -0.6061  0.0255
 2901TIP3    H230119   3.599   4.197  11.559 -0.0388  1.4208  0.2082
 2902TIP3   OH230120   2.023   1.978  12.044 -0.1596  0.4962  0.5711
 2902TIP3    H130121   2.089   2.038  12.078 -0.2706  0.6499  0.5162
 2902TIP3    H230122   2.012   1.913  12.113  1.5976 -0.7677 -0.2536
 2903TIP3   OH230123   6.733   1.384   0.003 -0.3573 -0.1131  0.2737
 2903TIP3    H130124   6.805   1.446  -0.008 -0.5961  0.1744  0.3001
 2903TIP3    H230125   6.735   1.361   0.095 -1.5560  1.4887  0.7609
 2904TIP3   OH230126   2.274   1.542   4.031  0.0674  0.0988  0.2000
 2904TIP3    H130127   2.298   1.470   3.973  0.9912 -1.1715  2.0390
 2904TIP3    H230128   2.191   1.514   4.070 -0.7947  1.1611 -0.8341
 2905TIP3   OH230129   0.532   5.693   5.889  0.4581  0.1453 -0.3444
 2905TIP3    H130130   0.459   5.663   5.835  0.5385  0.8053 -0.8258
 2905TIP3    H230131   0.609   5.654   5.848  0.3303 -1.1774  0.6043
 2906TIP3   OH230132   4.057   5.451   5.772 -0.2035 -0.1433  0.2873
 2906TIP3    H130133   4.115   5.521   5.801 -0.0443  0.1199 -0.6189
 2906TIP3    H230134   3.977   5.463   5.823 -0.8346  1.7866 -1.0562
 2907TIP3   OH230135   4.673   3.556   2.310 -0.1291 -0.3191  0.2860
 2907TIP3    H130136   4.666   3.612   2.233  0.2793  0.4801  0.8241
 2907TIP3    H230137   4.595   3.500   2.306 -0.3242 -0.0039 -0.4787
 2908TIP3   OH230138   2.129   2.218  12.128  0.3663  0.5052 -0.6594
 2908TIP3    H130139   2.119   2.268  12.047  0.6166 -0.0948 -1.0704
 2908TIP3    H230140   2.056   2.246  12.183  0.1855  0.9030 -1.0964
 2909TIP3   OH230141   2.175   5.807   0.276  0.0634  0.0494  0.5360
 2909TIP3    H130142   2.089   5.838   0.305 -0.3755  0.4283 -1.0647
 2909TIP3    H230143   2.233   5.825   0.350 -0.5672  2.8692  0.4474
 2910TIP3   OH230144   4.042   4.417  16.581  0.3905 -0.0432 -0.2282
 2910TIP3    H130145   4.025   4.414  16.486  0.4894  1.4165 -0.3102
 2910TIP3    H230146   4.127   4.375  16.591  0.0506 -0.8846 -0.6812
 2911TIP3   OH230147   6.286   5.703  14.574 -0.3240 -0.0062  0.2909
 2911TIP3    H130148   6.330   5.745  14.648  1.0033 -0.3976 -0.2579
 2911TIP3    H230149   6.280   5.772  14.508  0.7371 -0.3000 -0.1424
 2912TIP3   OH230150   3.043   3.528   2.360 -0.0938 -0.2729  0.1768
 2912TIP3    H130151   3.056   3.457   2.297 -0.6690  0.8042 -1.2067
 2912TIP3    H230152   3.069   3.490   2.444  0.6035 -1.7858 -0.6755
 2913TIP3   OH230153   0.352   0.123  15.205  0.0096  0.3646  0.6018
 2913TIP3    H130154   0.441   0.102  15.175  0.3617  1.1530  1.0571
 2913TIP3    H230155   0.360   0.132  15.300 -0.4177  1.0977  0.5737
 2914TIP3   OH230156   1.532   4.359   1.766 -0.1599 -0.1786 -0.1031
 2914TIP3    H130157   1.515   4.445   1.804 -1.0906  0.9425 -2.8051
 2914TIP3    H230158   1.446   4.316   1.765  0.4682 -1.7212  2.2655
 2915TIP3   OH230159   6.443   6.290   6.208  0.2878 -0.2340  0.2542
 2915TIP3    H130160   6.427   6.257   6.296  1.1624 -0.7462  0.2362
 2915TIP3    H230161   6.526   6.250   6.183  1.0554  1.4582 -0.0318
 2916TIP3   OH230162   0.427   6.433   3.339 -0.6018  0.1568  0.3451
 2916TIP3    H130163   0.461   6.512   3.381  2.5691 -0.6222 -0.4342
 2916TIP3    H230164   0.440   6.364   3.405  1.7270 -0.5610 -0.7481
 2917TIP3   OH230165   5.384   2.112   2.326 -0.6159 -0.0288 -0.5709
 2917TIP3    H130166   5.435   2.034   2.304  0.9814  0.2198  1.8261
 2917TIP3    H230167   5.294   2.082   2.329 -0.1419 -1.5429 -0.7158
 2918TIP3   OH230168   6.415   6.398   6.998  0.1128  0.3955 -0.5017
 2918TIP3    H130169   6.470   6.414   7.074 -1.3230 -1.3022  0.9773
 2918TIP3    H230170   6.473   6.358   6.933  0.8657 -0.2363  0.5482
 2919TIP3   OH230171   1.654   0.624   1.023 -0.1114 -0.1310 -0.0480
 2919TIP3    H130172   1.726   0.663   1.073  0.8846 -0.0361 -1.4727
 2919TIP3    H230173   1.690   0.613   0.935 -2.1003  0.6285 -1.0198
 2920TIP3   OH230174   6.491   5.965   6.464  0.5132 -0.4718  0.0854
 2920TIP3    H130175   6.574   5.918   6.472  0.7088 -0.4492 -1.4705
 2920TIP3    H230176   6.439   5.910   6.404 -0.4828 -0.3341  0.8038
 2921TIP3   OH230177   0.037   2.175   4.668 -0.2281 -0.1999  0.3334
 2921TIP3    H130178   0.130   2.168   4.648  0.1934  0.0268  2.0494
 2921TIP3    H230179   0.001   2.089   4.647  0.4462 -0.4098  0.0332
 2922TIP3   OH230180   4.548   2.609   5.795  0.4911  1.2482 -0.4832
 2922TIP3    H130181   4.619   2.572   5.848 -0.1499  0.0718 -0.4175
 2922TIP3    H230182   4.576   2.593   5.704 -0.8062 -1.6157 -0.4964
 2923TIP3   OH230183   5.888   5.951   2.534 -0.3393  0.3601 -0.0425
 2923TIP3    H130184   5.877   5.928   2.442 -0.3926  0.7911 -0.1479
 2923TIP3    H230185   5.801   5.983   2.561 -1.1057 -2.3099  0.9183
 2924TIP3   OH230186   4.034   4.256  15.723 -0.0785  0.9536 -0.1904
 2924TIP3    H130187   3.972   4.315  15.764 -0.8773 -0.0228  0.0561
 2924TIP3    H230188   4.097   4.234  15.792 -1.3466 -0.5891  0.5305
 2925TIP3   OH230189   6.764   1.325  16.407 -0.3271 -0.2457 -0.1385
 2925TIP3    H130190   6.805   1.373  16.478 -3.1976  0.9838  0.8506
 2925TIP3    H230191   6.746   1.392  16.341  1.6949 -1.2564 -1.8386
 2926TIP3   OH230192   3.914   2.713   0.913 -0.2068 -0.1842 -0.0295
 2926TIP3    H130193   3.924   2.801   0.875 -0.2325 -0.3837 -0.5069
 2926TIP3    H230194   3.819   2.704   0.925 -0.2807 -0.4661 -0.7669
 2927TIP3   OH230195   4.491   3.392  11.378  0.2095 -0.2233  0.1584
 2927TIP3    H130196   4.547   3.358  11.308  0.3159  0.8812 -0.2986
 2927TIP3    H230197   4.551   3.434  11.439 -0.1135  1.1462 -0.4346
 2928TIP3   OH230198   2.461   0.436  14.666 -0.0395 -0.0780 -0.4503
 2928TIP3    H130199   2.536   0.474  14.712  0.9973 -1.2950 -1.0507
 2928TIP3    H230200   2.467   0.342  14.685 -0.0814 -0.4910 -2.3133
 2929TIP3   OH230201   5.414   5.306  16.551 -0.2638 -0.3158  0.1326
 2929TIP3    H130202   5.416   5.396  16.517  0.7794  0.7214  2.6516
 2929TIP3    H230203   5.321   5.284  16.554 -0.4983  0.3257 -1.2696
 2930TIP3   OH230204   2.900   6.359  16.934 -0.4967 -0.0494 -0.4468
 2930TIP3    H130205   2.826   6.300  16.922 -0.2764 -0.2849 -0.6751
 2930TIP3    H230206   2.955   6.345  16.857  0.8594 -1.4539  0.6937
 2931TIP3   OH230207   0.966   4.428  16.720 -0.0037 -0.1251  0.3895
 2931TIP3    H130208   0.895   4.366  16.736  0.6759 -0.8338  0.7553
 2931TIP3    H230209   1.043   4.372  16.705  0.1082  0.5488 -2.0187
 2932TIP3   OH230210   4.833   3.313  13.430  0.2410  0.1514  0.6153
 2932TIP3    H130211   4.870   3.401  13.434 -0.8063  0.6412  0.0862
 2932TIP3    H230212   4.838   3.290  13.337  0.7092 -0.4394  0.7848
 2933TIP3   OH230213   2.180   3.284  12.145  0.5537  0.1296 -0.3879
 2933TIP3    H130214   2.152   3.275  12.054 -0.4043 -1.3176  0.0166
 2933TIP3    H230215   2.099   3.284  12.195  1.0659  0.9953  0.4746
 2934TIP3   OH230216   2.633   1.892   4.760  0.8298 -0.2965 -0.4124
 2934TIP3    H130217   2.538   1.905   4.758  0.7535 -0.8535 -1.6292
 2934TIP3    H230218   2.669   1.970   4.717  1.0645  0.7473  1.5806
 2935TIP3   OH230219   6.299   2.498  11.673  0.0538 -0.1240 -0.8392
 2935TIP3    H130220   6.382   2.543  11.662 -0.2338  0.3593 -1.0969
 2935TIP3    H230221   6.263   2.534  11.755  1.0856 -1.9408  0.4676
 2936TIP3   OH230222   0.361   6.459   2.842 -0.0165 -0.3426  0.5143
 2936TIP3    H130223   0.306   6.387   2.874 -0.5978 -0.3475 -0.4786
 2936TIP3    H230224   0.374   6.514   2.919 -1.2406 -0.4556  0.8255
 2937TIP3   OH230225   5.155   1.881   2.229 -0.1667 -0.5197 -0.8619
 2937TIP3    H130226   5.175   1.818   2.299  0.2845  0.5152 -0.0250
 2937TIP3    H230227   5.118   1.957   2.275  1.3758  0.7212 -1.5628
 2938TIP3   OH230228   0.667   5.422   5.763  0.0770  0.1062  0.5890
 2938TIP3    H130229   0.594   5.400   5.821 -0.9664  0.4499 -0.5576
 2938TIP3    H230230   0.716   5.340   5.755 -2.3063 -1.2735 -1.5812
 2939TIP3   OH230231   1.758   5.846   4.032  0.5364 -0.0464  0.2477
 2939TIP3    H130232   1.781   5.780   4.098 -0.3044 -0.3026  0.2950
 2939TIP3    H230233   1.746   5.796   3.952 -0.0660  0.0487  0.2753
 2940TIP3   OH230234   3.165   0.361  12.720  0.2365  0.1858 -0.3994
 2940TIP3    H130235   3.234   0.344  12.784 -0.5911 -0.1608  0.4210
 2940TIP3    H230236   3.163   0.282  12.666  1.2548  0.6662 -1.1927
 2941TIP3   OH230237   3.595   5.638  15.285  0.2852  0.1357  0.4442
 2941TIP3    H130238   3.570   5.728  15.305  0.9031  0.7738 -1.4279
 2941TIP3    H230239   3.537   5.612  15.214 -0.8847 -1.5211  1.9313
 2942TIP3   OH230240   4.667   0.250   4.077 -0.4491 -0.2517  0.5561
 2942TIP3    H130241   4.624   0.261   3.992  0.4968 -0.9766 -0.0402
 2942TIP3    H230242   4.596   0.256   4.141 -0.8678  2.8029 -0.0691
 2943TIP3   OH230243   4.006   6.611  10.856  0.3700 -0.3717 -0.2396
 2943TIP3    H130244   4.037   6.602  10.946  1.4965  1.5119 -0.3895
 2943TIP3    H230245   4.085   6.618  10.804 -0.2848 -0.1271 -1.2207
 2944TIP3   OH230246   5.545   2.131   0.727  0.1903  0.1775 -0.8961
 2944TIP3    H130247   5.625   2.180   0.746  0.3958 -0.5757  0.2360
 2944TIP3    H230248   5.557   2.046   0.771 -1.2566  0.0777 -0.6445
 2945TIP3   OH230249   4.518   6.424   5.477 -0.7666  0.1563  0.1195
 2945TIP3    H130250   4.481   6.374   5.404 -1.1822 -1.1652  1.1996
 2945TIP3    H230251   4.474   6.509   5.472 -1.6594 -0.3230 -0.4746
 2946TIP3   OH230252   6.021   0.499  11.218  0.1246  0.1923 -0.9677
 2946TIP3    H130253   6.098   0.461  11.176  0.0906 -1.3920  0.3197
 2946TIP3    H230254   5.956   0.505  11.147  1.1963  1.0188 -1.9335
 2947TIP3   OH230255   5.453   1.966  13.939  0.7153 -0.1906  0.6027
 2947TIP3    H130256   5.457   2.002  14.028  0.9673 -1.1662  1.0067
 2947TIP3    H230257   5.376   1.908  13.940  1.3053 -0.9907  0.5007
 2948TIP3   OH230258   1.853   6.188   5.584  0.5209  0.1111  0.6360
 2948TIP3    H130259   1.842   6.105   5.631 -3.6324  1.0477  1.7287
 2948TIP3    H230260   1.907   6.242   5.641  2.1184 -1.3041  0.5403
 2949TIP3   OH230261   4.620   4.132  16.086 -0.3918  0.6452  0.2259
 2949TIP3    H130262   4.582   4.159  16.170  1.5603  0.1750  1.3164
 2949TIP3    H230263   4.683   4.064  16.109 -1.0398 -0.7626 -1.8452
 2950TIP3   OH230264   4.789   6.314  15.213 -0.6560  0.1359  0.1351
 2950TIP3    H130265   4.855   6.381  15.230  0.8557 -1.2803  0.1705
 2950TIP3    H230266   4.715   6.338  15.268  0.3830  1.0212  1.2002
 2951TIP3   OH230267   6.604   3.238   3.506 -0.1011  0.6136  0.8193
 2951TIP3    H130268   6.580   3.274   3.420  0.4543  1.7299  1.1143
 2951TIP3    H230269   6.692   3.271   3.522  0.0110 -0.0284  1.5946
 2952TIP3   OH230270   0.361   5.338   5.727 -0.9061 -0.3688  0.1926
 2952TIP3    H130271   0.276   5.320   5.686 -1.6553  0.5452  1.2563
 2952TIP3    H230272   0.381   5.428   5.700 -0.7060 -0.2796  0.6291
 2953TIP3   OH230273   2.178   4.089  15.044 -0.5845  0.4564  0.1015
 2953TIP3    H130274   2.156   4.120  15.132 -1.1545  0.4414 -0.0308
 2953TIP3    H230275   2.146   3.999  15.041  2.0691 -0.6161  0.8640
 2954TIP3   OH230276   4.028   3.274  14.159 -0.2233  0.8684 -0.0957
 2954TIP3    H130277   4.076   3.350  14.127  1.6171 -0.7384 -1.3373
 2954TIP3    H230278   4.076   3.247  14.238 -0.8723  0.9725  0.3428
 2955TIP3   OH230279   1.853   0.868   0.825  0.4283 -0.3274 -0.1974
 2955TIP3    H130280   1.776   0.908   0.866  1.0174  1.7698 -0.9934
 2955TIP3    H230281   1.893   0.817   0.895  1.2466  2.8755  1.9278
 2956TIP3   OH230282   2.151   1.370   4.953  0.0253  0.1866  0.2205
 2956TIP3    H130283   2.207   1.341   4.881 -0.5929 -0.1435 -0.1335
 2956TIP3    H230284   2.133   1.291   5.004  1.3663  0.6009  1.3942
 2957TIP3   OH230285   3.511   5.721   0.964  0.3637 -0.1426 -0.6130
 2957TIP3    H130286   3.421   5.700   0.990  0.0849  0.5174 -1.0208
 2957TIP3    H230287   3.549   5.636   0.940 -0.6677 -0.2562 -2.0278
 2958TIP3   OH230288   5.318   1.954   4.570 -0.0202  0.5429 -0.0161
 2958TIP3    H130289   5.263   1.996   4.504  1.2025  0.2047 -1.3156
 2958TIP3    H230290   5.257   1.905   4.625 -0.9766 -0.4963 -1.8955
 2959TIP3   OH230291   1.203   6.720   4.961 -0.1908  0.3216  1.0277
 2959TIP3    H130292   1.289   6.757   4.942 -0.3038  0.5125  0.8855
 2959TIP3    H230293   1.147   6.795   4.979 -0.3984  0.2181  0.8303
 2960TIP3   OH230294   3.418   1.515   6.055 -0.0693 -0.1445  0.5973
 2960TIP3    H130295   3.428   1.609   6.041  1.6459  0.1260  3.0146
 2960TIP3    H230296   3.451   1.475   5.975  1.9542  1.2940  0.6396
 2961TIP3   OH230297   3.196   6.066  13.491  0.0537 -0.2037 -0.1134
 2961TIP3    H130298   3.125   6.096  13.435  0.2090  0.5220  0.0717
 2961TIP3    H230299   3.153   6.040  13.573  0.1807  2.4007  0.8755
 2962TIP3   OH230300   3.895   2.599  11.642 -0.1491 -0.4342 -0.4104
 2962TIP3    H130301   3.908   2.596  11.547 -1.3296 -0.9342 -0.5750
 2962TIP3    H230302   3.908   2.692  11.664  1.9581 -0.6043 -0.7444
 2963TIP3   OH230303   5.593   1.402  10.499 -0.3094 -0.4774 -0.5781
 2963TIP3    H130304   5.558   1.412  10.587  1.5080 -1.3414  0.2846
 2963TIP3    H230305   5.523   1.359  10.450 -2.1828  1.8805 -0.2091
 2964TIP3   OH230306   4.787   1.690   2.005 -0.5137 -0.0562 -0.7965
 2964TIP3    H130307   4.753   1.768   1.961 -0.2866  1.2718  1.2011
 2964TIP3    H230308   4.881   1.691   1.987  0.1413  2.2048  1.9085
 2965TIP3   OH230309   0.807   5.361  15.800  0.4326 -0.0601  0.0269
 2965TIP3    H130310   0.783   5.443  15.759 -2.4300 -1.8366 -2.2610
 2965TIP3    H230311   0.868   5.320  15.739 -1.0543 -1.1573 -0.7940
 2966TIP3   OH230312   3.811   2.867   6.268 -0.2778 -0.1734  0.1000
 2966TIP3    H130313   3.747   2.884   6.337 -0.2678  0.6595 -0.0823
 2966TIP3    H230314   3.759   2.838   6.193 -0.3664 -0.2422  0.1878
 2967TIP3   OH230315   2.434   2.789  16.058  0.8160  0.4638  0.0544
 2967TIP3    H130316   2.362   2.733  16.084  1.3446 -0.0261  0.4950
 2967TIP3    H230317   2.495   2.731  16.012  0.4686  1.0768 -1.2105
 2968TIP3   OH230318   2.352   4.984   5.654  0.4478  0.3956 -0.5907
 2968TIP3    H130319   2.374   4.930   5.730 -1.3159  2.5203  1.6026
 2968TIP3    H230320   2.402   5.064   5.666  1.2256  0.2390 -2.5019
 2969TIP3   OH230321   3.325   3.070  15.492 -0.1624 -0.0715 -0.3123
 2969TIP3    H130322   3.310   3.020  15.412 -0.6309 -1.8574  0.8239
 2969TIP3    H230323   3.418   3.094  15.489  0.2608 -1.6162 -0.6099
 2970TIP3   OH230324   1.661   5.237  14.824  0.2122  0.2893  0.4808
 2970TIP3    H130325   1.663   5.322  14.779  0.4439  0.8545  1.5208
 2970TIP3    H230326   1.744   5.196  14.801 -0.3018 -0.0829 -0.7914
 2971TIP3   OH230327   6.604   2.141  11.141 -0.2476  0.4751  0.5392
 2971TIP3    H130328   6.642   2.118  11.226  0.7536 -1.3254 -0.3431
 2971TIP3    H230329   6.509   2.133  11.155 -0.0641 -3.0599  0.7352
 2972TIP3   OH230330   0.808   5.457   2.624 -1.0462  0.8852  0.1981
 2972TIP3    H130331   0.718   5.455   2.591 -1.0978 -0.2364  0.3643
 2972TIP3    H230332   0.858   5.408   2.559 -0.4062  2.0932 -0.2572
 2973TIP3   OH230333   6.631   0.617  10.544 -0.0991  0.5056  0.1856
 2973TIP3    H130334   6.554   0.561  10.554  0.4551  0.0822  2.6971
 2973TIP3    H230335   6.704   0.557  10.538  0.5398  0.8123  3.2602
 2974TIP3   OH230336   1.693   4.006   4.090  0.0798  0.1473 -0.2006
 2974TIP3    H130337   1.685   4.035   3.999  0.2196  0.8341  0.0012
 2974TIP3    H230338   1.613   3.956   4.106 -0.0311  0.1746 -0.6415
 2975TIP3   OH230339   2.727   3.501  14.089  0.2178 -0.6838  0.8228
 2975TIP3    H130340   2.682   3.468  14.167  0.0151  0.6292  1.2728
 2975TIP3    H230341   2.719   3.596  14.095 -1.7662 -0.5646 -1.9240
 2976TIP3   OH230342   3.994   1.844  16.024  0.3784  0.6752  0.6735
 2976TIP3    H130343   3.919   1.839  15.965  0.1866  0.4882  0.9377
 2976TIP3    H230344   3.983   1.928  16.069  0.7303  0.9996  0.1686
 2977TIP3   OH230345   2.079   0.217   4.271 -0.5328 -0.1713  0.0133
 2977TIP3    H130346   2.124   0.176   4.197 -0.0190  0.3003  0.0547
 2977TIP3    H230347   2.030   0.146   4.312  1.4716 -1.0951  0.9588
 2978TIP3   OH230348   0.686   3.047   3.560  0.3085  0.5626  0.2108
 2978TIP3    H130349   0.621   3.024   3.627 -0.7973  0.9565 -0.6905
 2978TIP3    H230350   0.725   3.128   3.591  0.0722  0.5428  0.5665
 2979TIP3   OH230351   6.587   2.228   5.483 -0.0480  0.0150 -0.8767
 2979TIP3    H130352   6.662   2.267   5.438  1.2752  0.0566  1.2145
 2979TIP3    H230353   6.616   2.140   5.506 -1.2846 -0.5766 -1.4662
 2980TIP3   OH230354   1.314   2.806   2.503  0.4873 -0.0757  0.0530
 2980TIP3    H130355   1.233   2.771   2.539 -0.8997  0.0397 -2.6825
 2980TIP3    H230356   1.307   2.901   2.518  0.3731 -0.1158  0.2678
 2981TIP3   OH230357   5.317   4.098   1.263  0.2184  0.3054  0.1569
 2981TIP3    H130358   5.276   4.017   1.293  1.4497  0.4724  2.5135
 2981TIP3    H230359   5.272   4.167   1.312 -0.1854  0.9991 -1.1361
 2982TIP3   OH230360   1.384   6.304   1.859 -0.0266 -0.1256  0.5669
 2982TIP3    H130361   1.355   6.393   1.838  0.3053 -0.0858  0.2598
 2982TIP3    H230362   1.433   6.276   1.782 -0.5344 -0.7591  0.4713
 2983TIP3   OH230363   5.090   0.557  15.343 -0.0563 -0.0606 -0.5859
 2983TIP3    H130364   5.139   0.616  15.400  2.4210 -0.9546 -1.6288
 2983TIP3    H230365   5.080   0.606  15.261  0.8843 -0.5510 -1.0209
 2984TIP3   OH230366   4.564   4.970   4.563  0.3912  0.2272 -0.1188
 2984TIP3    H130367   4.531   5.003   4.647  1.5810  0.2129  0.3764
 2984TIP3    H230368   4.648   4.929   4.585  0.4542 -0.2628 -1.2371
 2985TIP3   OH230369   4.416   5.008  16.816 -0.5864 -0.2886  0.2163
 2985TIP3    H130370   4.335   4.968  16.785 -1.3662  1.2737  0.1408
 2985TIP3    H230371   4.466   5.023  16.736 -0.1094 -1.4071  0.2769
 2986TIP3   OH230372   3.373   6.010  10.289 -0.1597 -0.0009 -0.3955
 2986TIP3    H130373   3.458   6.055  10.294  0.5055 -1.0212 -1.6849
 2986TIP3    H230374   3.344   6.004  10.379  1.7202 -0.6305  0.2314
 2987TIP3   OH230375   6.187   0.325   4.513  0.0738 -0.2522  0.1479
 2987TIP3    H130376   6.253   0.331   4.443 -1.2601  0.7218 -1.0867
 2987TIP3    H230377   6.120   0.266   4.477 -0.0001 -0.8175  1.1696
 2988TIP3   OH230378   4.388   1.758   1.116 -0.4112 -0.2601  0.4016
 2988TIP3    H130379   4.447   1.748   1.041 -0.1215  0.4145  0.5324
 2988TIP3    H230380   4.316   1.811   1.083 -1.2746 -1.5942  0.0732
 2989TIP3   OH230381   1.173   3.363   5.378  0.0823 -0.0547  0.2500
 2989TIP3    H130382   1.088   3.363   5.422  0.6020 -2.1944  1.3916
 2989TIP3    H230383   1.213   3.280   5.404  1.8242  0.1310 -1.6406
 2990TIP3   OH230384   0.503   2.647  16.864  0.0252 -0.0848 -0.2500
 2990TIP3    H130385   0.574   2.676  16.921  2.2135 -0.3536 -2.6526
 2990TIP3    H230386   0.454   2.727  16.844  0.0703  0.2313  0.8509
 2991TIP3   OH230387   2.897   1.426  12.115  0.1953  0.0004  0.6711
 2991TIP3    H130388   2.923   1.338  12.141 -1.7665 -0.8922 -0.1716
 2991TIP3    H230389   2.970   1.459  12.063  0.9644 -1.1173  1.0166
 2992TIP3   OH230390   5.593   1.717   2.070  0.1786  0.1403  0.3011
 2992TIP3    H130391   5.625   1.635   2.034 -0.7591 -1.1894  2.2867
 2992TIP3    H230392   5.545   1.758   1.998  1.4002 -0.5984 -0.9855
 2993TIP3   OH230393   0.286   3.686   3.107  0.0296  0.5171 -0.6478
 2993TIP3    H130394   0.277   3.591   3.108  1.2029  0.3779  1.4026
 2993TIP3    H230395   0.368   3.704   3.152 -1.1029  2.5639  0.8099
 2994TIP3   OH230396   5.734   0.104   5.530  0.2802 -0.2565  0.0439
 2994TIP3    H130397   5.779   0.098   5.446  1.5726  0.6106  0.6341
 2994TIP3    H230398   5.733   0.014   5.563  1.2609 -0.3667 -0.1776
 2995TIP3   OH230399   2.676   5.057  12.445  0.1673  0.2976 -1.1397
 2995TIP3    H130400   2.607   5.115  12.477  0.0594 -0.3163 -0.2504
 2995TIP3    H230401   2.631   4.979  12.413  0.4831 -0.5087  0.3078
 2996TIP3   OH230402   0.573   5.188  14.269  0.3417  0.8652  0.4542
 2996TIP3    H130403   0.546   5.097  14.259  0.0754  0.7780  1.7399
 2996TIP3    H230404   0.532   5.234  14.196  1.7350 -0.2743 -1.1376
 2997TIP3   OH230405   1.003   0.147  15.367 -0.4651 -0.0616  0.5184
 2997TIP3    H130406   1.092   0.141  15.333 -0.8483  2.9984 -1.3925
 2997TIP3    H230407   1.014   0.165  15.461  0.7458 -2.6535  0.9822
 2998TIP3   OH230408   1.199   2.077  13.029  0.1871 -0.3474  0.5389
 2998TIP3    H130409   1.217   2.033  12.945 -1.1486 -1.1084  0.6342
 2998TIP3    H230410   1.252   2.157  13.025  0.3530 -0.4958 -0.9236
 2999TIP3   OH230411   5.709   3.404  14.519  0.0083 -0.0387 -0.0481
 2999TIP3    H130412   5.725   3.326  14.467 -1.0890  0.1828 -0.7534
 2999TIP3    H230413   5.698   3.371  14.609  2.7311 -0.3376  0.2582
 3000TIP3   OH230414   0.712   4.520   5.361 -0.8490  0.4657  0.6074
 3000TIP3    H130415   0.630   4.472   5.370 -0.6681  0.0728  0.2018
 3000TIP3    H230416   0.770   4.460   5.314 -1.3845  1.9610 -2.1997
 3001TIP3   OH230417   2.233   2.722   2.685 -0.0371  0.8184  0.5969
 3001TIP3    H130418   2.313   2.693   2.729 -0.0618 -1.6546 -0.8028
 3001TIP3    H230419   2.166   2.718   2.754  0.0031 -2.5841  0.6084
 3002TIP3   OH230420   3.805   5.664   5.067 -0.5015  0.5019 -0.1316
 3002TIP3    H130421   3.827   5.752   5.096  1.3205  0.4736 -1.2789
 3002TIP3    H230422   3.868   5.645   4.997 -2.5108 -0.7069 -1.7357
 3003TIP3   OH230423   1.081   5.745  15.437  0.6074  0.3902 -0.2262
 3003TIP3    H130424   1.149   5.697  15.486  0.4410 -0.4811 -0.8398
 3003TIP3    H230425   1.022   5.678  15.405 -0.7675  1.1706  0.5928
 3004TIP3   OH230426   2.931   5.628  12.820  0.6286 -0.1925  0.1573
 3004TIP3    H130427   3.005   5.569  12.832  0.0283 -1.1045 -0.5145
 3004TIP3    H230428   2.893   5.603  12.736 -0.2582  0.4609  0.3469
 3005TIP3   OH230429   1.710   6.742  14.617  0.2207  0.8730 -0.3111
 3005TIP3    H130430   1.745   6.653  14.607  0.8374  0.7090  2.5622
 3005TIP3    H230431   1.657   6.738  14.697 -0.3595  2.9178 -0.5337
 3006TIP3   OH230432   1.388   0.578   1.104 -0.0423  0.2328  0.7244
 3006TIP3    H130433   1.407   0.484   1.097  2.2392  0.6622  0.3181
 3006TIP3    H230434   1.466   0.620   1.067 -0.6257  2.3032  1.7409
 3007TIP3   OH230435   5.208   1.055  14.313 -0.3885 -0.3236 -0.2326
 3007TIP3    H130436   5.252   1.106  14.245 -1.6728  0.8228 -0.2350
 3007TIP3    H230437   5.151   0.995  14.265  0.3438 -1.0639 -0.2007
 3008TIP3   OH230438   4.739   2.302  10.742 -0.6214  0.6428 -0.1361
 3008TIP3    H130439   4.823   2.312  10.699 -1.5789  0.3457 -2.1884
 3008TIP3    H230440   4.679   2.358  10.691 -2.1666 -1.0477 -0.2788
 3009TIP3   OH230441   0.156   0.224  15.015 -0.0187  0.0484  0.0167
 3009TIP3    H130442   0.217   0.247  14.945  0.5219 -0.8281  0.1835
 3009TIP3    H230443   0.204   0.162  15.070  0.0071  1.5900  1.8456
 3010TIP3   OH230444   6.064   1.842  11.995 -0.0529  0.5515 -0.6009
 3010TIP3    H130445   6.063   1.932  12.027 -1.0907  0.7723 -1.2073
 3010TIP3    H230446   6.036   1.849  11.904 -0.8702 -0.4591 -0.4343
 3011TIP3   OH230447   2.290   5.513   2.460 -0.4263  0.0706 -0.3135
 3011TIP3    H130448   2.265   5.439   2.515  1.3219 -0.2777  0.0743
 3011TIP3    H230449   2.279   5.481   2.370 -0.2535 -0.4437 -0.1523
 3012TIP3   OH230450   2.535   3.399  13.468 -0.1846 -0.0333 -0.2455
 3012TIP3    H130451   2.630   3.396  13.476 -0.1366 -1.4873 -1.0836
 3012TIP3    H230452   2.517   3.472  13.410  0.3731  0.6091  0.3754
 3013TIP3   OH230453   2.432   2.653   3.334  0.1713  0.6068  0.0403
 3013TIP3    H130454   2.475   2.604   3.404 -2.1291 -0.3343  0.9067
 3013TIP3    H230455   2.339   2.649   3.357 -0.3364  3.1990 -1.2776
 3014TIP3   OH230456   6.244   2.017   3.327 -0.2140  0.4540  0.9384
 3014TIP3    H130457   6.184   1.942   3.316  0.3631  0.2059 -0.8916
 3014TIP3    H230458   6.231   2.044   3.417 -0.3307 -1.9665  1.7336
 3015TIP3   OH230459   1.699   2.524  11.839  0.1812  0.1526 -0.5800
 3015TIP3    H130460   1.739   2.437  11.835  0.7438  0.4384 -1.4976
 3015TIP3    H230461   1.643   2.521  11.916  1.5895 -0.4320  0.4633
 3016TIP3   OH230462   4.312   1.103  12.182  0.0182 -0.4257  0.0462
 3016TIP3    H130463   4.252   1.039  12.143  1.5788 -0.6514 -2.1598
 3016TIP3    H230464   4.281   1.187  12.150 -0.8488 -0.2297  1.3368
 3017TIP3   OH230465   1.912   3.056  15.325  0.8911 -0.4066 -0.9138
 3017TIP3    H130466   1.975   3.077  15.256  4.3224 -0.3087  1.9699
 3017TIP3    H230467   1.941   2.971  15.359 -1.9670 -1.4642 -0.8034
 3018TIP3   OH230468   1.027   3.074  13.455  0.1063  0.2559  0.1156
 3018TIP3    H130469   1.091   3.028  13.509  1.1682  1.1197 -0.3458
 3018TIP3    H230470   0.943   3.035  13.477  0.6386 -0.0657  1.6594
 3019TIP3   OH230471   3.114   2.071  15.774 -0.1632  0.1121  0.3229
 3019TIP3    H130472   3.206   2.087  15.753  0.1422 -0.9490  0.7774
 3019TIP3    H230473   3.113   1.981  15.808 -1.3996  0.0422  0.1295
 3020TIP3   OH230474   0.986   0.775  11.884 -0.1520  0.7892  0.1391
 3020TIP3    H130475   0.925   0.702  11.873 -1.9280  2.2585 -0.3619
 3020TIP3    H230476   0.944   0.831  11.950  1.6495  0.9005  1.2607
 3021TIP3   OH230477   2.877   5.774  14.857 -0.3514  0.5398 -0.5794
 3021TIP3    H130478   2.881   5.819  14.773  1.4403 -0.7856 -1.2696
 3021TIP3    H230479   2.888   5.844  14.922  0.0398  1.3753 -1.5182
 3022TIP3   OH230480   1.879   2.796   5.137 -0.5644 -0.1397 -0.0696
 3022TIP3    H130481   1.873   2.771   5.044  0.8594  1.1088 -0.5308
 3022TIP3    H230482   1.934   2.729   5.176  0.4353  0.3688 -0.5673
 3023TIP3   OH230483   1.220   2.983  14.867  0.2360 -0.0926  0.6870
 3023TIP3    H130484   1.129   3.012  14.870  0.3693  0.2995  1.3046
 3023TIP3    H230485   1.266   3.051  14.818  0.0371 -0.7794 -0.4820
 3024TIP3   OH230486   5.933   1.584  16.430  0.1986  0.0224  0.1360
 3024TIP3    H130487   6.000   1.652  16.420 -0.6600  0.7135 -1.2251
 3024TIP3    H230488   5.884   1.610  16.508  0.5235  0.3886  0.2212
 3025TIP3   OH230489   4.313   6.694   0.032  0.2843  0.2130  0.6376
 3025TIP3    H130490   4.289   6.612  -0.012  0.0487  0.2885  0.6225
 3025TIP3    H230491   4.229   6.738   0.047  0.4722  0.8212 -0.0628
 3026TIP3   OH230492   5.258   4.215   6.044  0.6999 -0.3101  0.0936
 3026TIP3    H130493   5.223   4.228   5.956 -0.7065 -0.1510  0.6435
 3026TIP3    H230494   5.231   4.293   6.092  0.2503 -1.0160  1.0223
 3027TIP3   OH230495   2.661   5.916  14.041 -0.0438  0.7791 -0.6392
 3027TIP3    H130496   2.588   5.948  14.094 -0.6088  0.5005 -1.2489
 3027TIP3    H230497   2.650   5.821  14.038 -0.5072  0.8609 -1.9603
 3028TIP3   OH230498   5.652   4.208   1.386  0.2265 -0.1786  0.3425
 3028TIP3    H130499   5.649   4.174   1.297 -0.3795  0.4275  0.1236
 3028TIP3    H230500   5.715   4.152   1.431 -0.6175 -1.4808 -0.0454
 3029TIP3   OH230501   5.422   3.688  15.264  0.6301  0.3584  0.0543
 3029TIP3    H130502   5.415   3.759  15.200  1.4044 -0.4760 -1.0022
 3029TIP3    H230503   5.516   3.669  15.269  0.5075 -0.0924  0.8841
 3030TIP3   OH230504   2.070   3.512  12.710 -0.0403 -0.4883 -0.0117
 3030TIP3    H130505   2.037   3.594  12.747 -0.3094 -0.1680 -0.9324
 3030TIP3    H230506   2.011   3.494  12.637 -0.1209 -1.6297  0.3227
 3031TIP3   OH230507   0.323   0.835  16.491 -0.1293 -0.0684  0.0677
 3031TIP3    H130508   0.388   0.900  16.467  0.6188 -0.1098  1.8133
 3031TIP3    H230509   0.257   0.884  16.540 -0.3014 -0.3938  0.1684
 3032TIP3   OH230510   1.559   6.386   0.956 -0.1815  0.3109 -0.6552
 3032TIP3    H130511   1.502   6.324   1.003  0.5546  0.1955  0.0957
 3032TIP3    H230512   1.543   6.470   0.998 -0.2136  0.3863 -0.8168
 3033TIP3   OH230513   5.832   2.475  13.791 -0.3260  0.7119  0.0447
 3033TIP3    H130514   5.736   2.472  13.784 -0.4220 -0.1356  1.4592
 3033TIP3    H230515   5.862   2.460  13.701 -1.5077  0.0741 -0.2709
 3034TIP3   OH230516   0.495   5.153   2.730  0.0158  0.2148  0.1960
 3034TIP3    H130517   0.520   5.138   2.821 -1.2488  2.0276  0.9082
 3034TIP3    H230518   0.401   5.134   2.728  0.5489 -2.8918 -1.5313
 3035TIP3   OH230519   5.368   0.176  13.028  0.0297 -0.2906  0.1654
 3035TIP3    H130520   5.454   0.171  12.986  0.1051 -1.5133  0.4537
 3035TIP3    H230521   5.372   0.255  13.082  0.7462  0.0030 -0.3118
 3036TIP3   OH230522   0.508   1.415  13.365 -1.0038  0.2408  0.1800
 3036TIP3    H130523   0.489   1.332  13.409 -0.3190  0.6246  1.2012
 3036TIP3    H230524   0.601   1.430  13.379 -1.1764  1.3278  0.2463
 3037TIP3   OH230525   4.462   1.143   4.924  0.6498 -0.0434 -0.0097
 3037TIP3    H130526   4.523   1.209   4.891 -0.4665  1.5030  0.8956
 3037TIP3    H230527   4.377   1.171   4.892  0.2585 -1.6704 -0.4991
 3038TIP3   OH230528   3.923   3.547   5.578  0.4983  0.4839  0.9055
 3038TIP3    H130529   3.946   3.575   5.666 -0.6095 -0.5526  1.5571
 3038TIP3    H230530   3.842   3.496   5.589 -0.6310  1.7339 -0.9074
 3039TIP3   OH230531   2.370   2.074  14.667  0.2686  0.1780  0.1569
 3039TIP3    H130532   2.332   2.154  14.630 -0.0232 -0.3923 -0.8234
 3039TIP3    H230533   2.451   2.102  14.709  0.7960  0.8217 -1.2345
 3040TIP3   OH230534   2.255   0.043   2.246  0.3997 -0.0955  0.0859
 3040TIP3    H130535   2.184   0.089   2.201  0.6373 -0.0920 -0.2906
 3040TIP3    H230536   2.335   0.084   2.214  0.5351  1.1959  1.9337
 3041TIP3   OH230537   6.400   1.013   1.323  0.1054  0.2050 -0.6068
 3041TIP3    H130538   6.484   0.971   1.341  0.4408  1.3139  0.5158
 3041TIP3    H230539   6.356   1.017   1.408 -1.7536 -1.6663 -1.3849
 3042TIP3   OH230540   5.947   2.068  14.126  0.2716  0.3539  0.2812
 3042TIP3    H130541   5.994   2.117  14.194  1.2292  0.4437 -0.4221
 3042TIP3    H230542   6.015   2.038  14.067 -0.5068 -0.0961 -0.4081
 3043TIP3   OH230543   4.381   4.878  13.905  0.2241 -0.3407 -0.2299
 3043TIP3    H130544   4.400   4.827  13.983 -0.7746 -0.7140 -0.2133
 3043TIP3    H230545   4.291   4.907  13.917 -0.4192 -1.5263 -1.8284
 3044TIP3   OH230546   5.520   2.500  12.763  0.0070 -0.0255 -0.0205
 3044TIP3    H130547   5.555   2.491  12.851  2.0311 -2.8627 -0.9965
 3044TIP3    H230548   5.595   2.522  12.709 -1.4835  3.5680 -0.9453
 3045TIP3   OH230549   6.231   6.353  12.777  0.1417 -0.9644 -0.4833
 3045TIP3    H130550   6.302   6.328  12.836  0.1373 -0.2848 -0.1820
 3045TIP3    H230551   6.254   6.440  12.746 -2.0868  0.7572  2.1587
 3046TIP3   OH230552   1.443   4.431  14.404  0.7014  0.5418  0.2167
 3046TIP3    H130553   1.375   4.490  14.372  0.9774  1.2750  0.9406
 3046TIP3    H230554   1.460   4.371  14.331 -0.2653  0.7439 -0.1913
 3047TIP3   OH230555   1.247   0.281   6.474 -0.7524  0.0747  0.5750
 3047TIP3    H130556   1.181   0.239   6.419 -0.2777 -1.2739  1.0121
 3047TIP3    H230557   1.247   0.231   6.555 -0.3923  1.1303  1.2473
 3048TIP3   OH230558   5.223   1.474  10.862  0.0726 -0.0589 -0.2289
 3048TIP3    H130559   5.267   1.549  10.822  1.1582 -1.0867 -1.0225
 3048TIP3    H230560   5.150   1.455  10.803  1.1266 -0.9936 -1.2909
 3049TIP3   OH230561   3.850   1.796   2.378  0.5059  0.0621 -0.3729
 3049TIP3    H130562   3.800   1.847   2.314 -1.9176 -0.3699  1.0123
 3049TIP3    H230563   3.841   1.846   2.460  0.5356 -1.1154  0.3701
 3050TIP3   OH230564   1.497   5.423  11.829 -0.2744 -0.1498  0.3256
 3050TIP3    H130565   1.521   5.491  11.766 -0.9429  0.5259  0.7954
 3050TIP3    H230566   1.415   5.453  11.867 -0.7442 -1.3719  0.3184
 3051TIP3   OH230567   3.219   0.187   5.104  0.3056 -0.1212  0.2699
 3051TIP3    H130568   3.183   0.129   5.036  0.2994  0.8773 -0.6146
 3051TIP3    H230569   3.306   0.211   5.071  1.2256 -1.3648  1.6940
 3052TIP3   OH230570   2.500   1.372   3.010  0.6125 -0.3038  0.1061
 3052TIP3    H130571   2.434   1.304   3.025 -0.0727  0.5197  0.9011
 3052TIP3    H230572   2.497   1.387   2.915  0.7568 -1.3551 -0.0771
 3053TIP3   OH230573   1.479   0.254  13.998 -0.7994 -0.1259 -0.1174
 3053TIP3    H130574   1.442   0.296  14.075  1.5492 -0.2805  1.1989
 3053TIP3    H230575   1.487   0.325  13.934  1.1313  1.0871  1.3244
 3054TIP3   OH230576   3.315   5.431   4.704  0.2153  0.6603  0.0767
 3054TIP3    H130577   3.378   5.387   4.648  0.7900  2.8762 -1.1139
 3054TIP3    H230578   3.358   5.512   4.731 -0.7164  0.4793  2.3499
 3055TIP3   OH230579   5.225   6.672  13.942  0.3671  0.1062  0.1973
 3055TIP3    H130580   5.185   6.754  13.972 -0.4034 -0.3455  0.4528
 3055TIP3    H230581   5.161   6.605  13.965 -0.1794 -0.3072 -2.2809
 3056TIP3   OH230582   4.363   3.674  11.564  0.4116  0.0770  0.2437
 3056TIP3    H130583   4.317   3.618  11.501  0.2943 -1.5017  1.6861
 3056TIP3    H230584   4.308   3.752  11.571 -0.3157 -0.3543 -0.5227
 3057TIP3   OH230585   0.503   6.073  12.874 -0.0279 -0.2095 -0.2251
 3057TIP3    H130586   0.570   6.138  12.852  0.2002 -0.6236 -0.7817
 3057TIP3    H230587   0.529   5.994  12.826 -0.4926 -0.6088  0.1640
 3058TIP3   OH230588   5.839   1.971   5.922  0.4081  0.9717 -0.1374
 3058TIP3    H130589   5.904   2.007   5.984 -1.0302  0.6294  1.6448
 3058TIP3    H230590   5.779   2.044   5.906  0.3888  0.8541 -0.6061
 3059TIP3   OH230591   4.561   0.951  13.638 -0.2076  0.3576 -0.0303
 3059TIP3    H130592   4.568   0.865  13.597 -0.9943 -0.0918  0.7480
 3059TIP3    H230593   4.548   0.932  13.731 -0.8999  1.3069  0.0830
 3060TIP3   OH230594   1.854   1.325  16.950 -0.5587  0.2297  0.4203
 3060TIP3    H130595   1.883   1.366  17.032  0.8818  0.3227 -0.0959
 3060TIP3    H230596   1.854   1.396  16.886 -0.2089 -0.1197  0.0182
 3061TIP3   OH230597   0.368   5.183   3.915 -0.1283  0.5266 -0.1026
 3061TIP3    H130598   0.413   5.251   3.965 -0.6668 -1.1050  2.8432
 3061TIP3    H230599   0.432   5.156   3.849  1.4264  1.4765  0.9390
 3062TIP3   OH230600   2.792   1.826   6.311 -0.2418  0.3763  0.4526
 3062TIP3    H130601   2.813   1.881   6.386  0.8410  0.7749 -0.1180
 3062TIP3    H230602   2.752   1.748   6.349 -0.3585  0.8698  1.3840
 3063TIP3   OH230603   2.823   2.505   0.621  0.1923 -0.7120  0.9449
 3063TIP3    H130604   2.865   2.439   0.566 -1.7466 -0.4773 -0.9194
 3063TIP3    H230605   2.876   2.505   0.702  3.1955 -1.0368 -0.8573
 3064TIP3   OH230606   4.045   6.136   1.747  0.6607  0.0310  0.3674
 3064TIP3    H130607   3.982   6.099   1.809 -0.1833 -0.7678 -0.9415
 3064TIP3    H230608   3.996   6.148   1.666  2.1655 -0.5519 -0.6805
 3065TIP3   OH230609   2.475   2.153   3.527  0.2289 -0.4279  0.4974
 3065TIP3    H130610   2.451   2.210   3.600 -0.5259  0.5045 -0.4283
 3065TIP3    H230611   2.391   2.129   3.487  0.5169 -2.4191  0.9931
 3066TIP3   OH230612   1.021   0.331  15.117 -0.0302 -0.3132  0.3181
 3066TIP3    H130613   1.099   0.296  15.161 -1.0565 -1.9169  0.9335
 3066TIP3    H230614   1.022   0.291  15.030 -0.1657 -0.3246  0.3215
 3067TIP3   OH230615   4.292   0.789  14.339  0.3969  0.1401  0.2111
 3067TIP3    H130616   4.261   0.879  14.329 -0.7131 -0.3488 -1.0413
 3067TIP3    H230617   4.279   0.770  14.432 -1.2626  0.6298  0.1132
 3068TIP3   OH230618   0.023   6.075   3.718 -0.1831 -0.3277  0.9508
 3068TIP3    H130619   0.004   6.077   3.812 -1.0890 -0.3492  0.7793
 3068TIP3    H230620  -0.038   6.010   3.683  1.3682 -1.6753  0.6005
 3069TIP3   OH230621   1.842   3.942  11.956 -0.0274  0.5257 -0.4737
 3069TIP3    H130622   1.749   3.921  11.954 -0.5426  2.4600  0.5919
 3069TIP3    H230623   1.869   3.921  12.045  0.5603  0.0867 -0.7447
 3070TIP3   OH230624   3.577   3.985   4.014 -0.0960 -0.5760  0.1862
 3070TIP3    H130625   3.499   3.968   4.067 -1.3638  2.0277 -0.6844
 3070TIP3    H230626   3.571   4.078   3.991  2.5506 -0.6315 -1.1042
 3071TIP3   OH230627   2.347   1.690  16.035 -0.4118 -0.4317  0.6178
 3071TIP3    H130628   2.420   1.750  16.022 -0.1086 -0.7699  0.7611
 3071TIP3    H230629   2.270   1.746  16.038 -0.1970 -0.1045  0.0931
 3072TIP3   OH230630   4.901   4.310   2.285  0.2213  0.2806  0.4369
 3072TIP3    H130631   4.988   4.316   2.246 -0.0575  1.3114 -0.0720
 3072TIP3    H230632   4.917   4.297   2.378  0.9144  0.3073  0.3262
 3073TIP3   OH230633   3.754   4.715  13.850 -0.0656 -0.2954 -0.0670
 3073TIP3    H130634   3.774   4.634  13.803 -0.4757  0.1259 -1.0070
 3073TIP3    H230635   3.830   4.770  13.835 -1.2241  0.8112 -2.5181
 3074TIP3   OH230636   6.386   0.976  11.215 -0.1186 -0.1324  0.1434
 3074TIP3    H130637   6.358   1.063  11.187  1.2849  0.1668 -0.4088
 3074TIP3    H230638   6.381   0.979  11.311 -1.7198 -0.0461  0.0899
 3075TIP3   OH230639   4.026   2.734  17.105  0.2512 -0.4288 -0.6912
 3075TIP3    H130640   4.067   2.756  17.189 -0.3403 -2.1584  0.1135
 3075TIP3    H230641   4.074   2.658  17.075  0.0699 -0.1771 -1.6336
 3076TIP3   OH230642   1.993   0.120  11.144 -0.1123  0.6140  0.0448
 3076TIP3    H130643   1.980   0.201  11.193  0.7429  2.4067 -2.5007
 3076TIP3    H230644   1.963   0.140  11.056 -0.1528 -1.9690 -0.6020
 3077TIP3   OH230645   2.937   3.668  12.968 -0.0904 -0.0710 -0.1553
 3077TIP3    H130646   2.973   3.755  12.988  0.7952 -1.0235  2.8926
 3077TIP3    H230647   3.011   3.618  12.934 -0.6908  0.3836 -2.3027
 3078TIP3   OH230648   0.860   5.582  15.369  0.0238 -0.8964  0.0135
 3078TIP3    H130649   0.850   5.509  15.308  0.4481 -1.5446  0.6966
 3078TIP3    H230650   0.803   5.561  15.442  0.5308 -0.8002  0.4461
 3079TIP3   OH230651   1.464   1.440  14.243  0.2570 -0.2716 -0.0331
 3079TIP3    H130652   1.393   1.378  14.255 -1.2257  1.1252 -1.1476
 3079TIP3    H230653   1.440   1.489  14.164  1.2080  1.8811  0.9271
 3080TIP3   OH230654   6.010   3.895  11.318 -0.3540  0.1340  0.7230
 3080TIP3    H130655   6.094   3.881  11.273  0.0657 -0.7957  1.7523
 3080TIP3    H230656   5.959   3.817  11.297 -1.5922  1.3462 -1.1399
 3081TIP3   OH230657   2.199   2.760   3.136 -0.4460  0.2122 -0.1880
 3081TIP3    H130658   2.231   2.815   3.207 -0.9020  1.8254 -1.1615
 3081TIP3    H230659   2.186   2.674   3.175 -1.0961  1.1556  1.7822
 3082TIP3   OH230660   2.463   5.418   4.568  0.0841  0.2525  0.0872
 3082TIP3    H130661   2.491   5.509   4.580 -1.5756  0.9735 -1.1541
 3082TIP3    H230662   2.428   5.393   4.654 -1.0668  1.4110 -0.0182
 3083TIP3   OH230663   1.600   5.397   2.903 -0.2643  0.2266 -0.0149
 3083TIP3    H130664   1.680   5.372   2.856  0.5875 -0.9558  1.9204
 3083TIP3    H230665   1.620   5.484   2.938 -0.0406  0.1806 -0.0233
 3084TIP3   OH230666   3.296   2.852  15.299  0.4039  0.0006  0.3207
 3084TIP3    H130667   3.386   2.861  15.268  0.2531  0.0265 -0.1172
 3084TIP3    H230668   3.259   2.782  15.245 -0.0040  0.3754  0.1076
 3085TIP3   OH230669   2.185   2.468  16.787  0.0372 -0.7772 -0.1394
 3085TIP3    H130670   2.140   2.532  16.731 -0.7076 -0.9795  0.2036
 3085TIP3    H230671   2.275   2.499  16.791 -0.2554  0.1225 -0.1657
 3086TIP3   OH230672   5.634   0.280   2.206 -0.1530 -0.6895  0.1140
 3086TIP3    H130673   5.661   0.207   2.261  0.1508  0.3929  1.4591
 3086TIP3    H230674   5.714   0.306   2.160  0.5164  0.7529  2.0041
 3087TIP3   OH230675   4.307   0.746  17.136  0.8974  0.5918 -0.2424
 3087TIP3    H130676   4.359   0.754  17.056  0.9274  0.3057 -0.2522
 3087TIP3    H230677   4.225   0.790  17.115  0.9801  0.6888 -0.3655
 3088TIP3   OH230678   0.208   0.940   0.332  0.4838  0.2227 -0.1921
 3088TIP3    H130679   0.112   0.932   0.331  0.5256 -0.2504 -0.3824
 3088TIP3    H230680   0.239   0.851   0.349  0.7993  0.8959  3.6340
 3089TIP3   OH230681   2.130   3.984   4.204 -0.8168  0.2115 -0.9661
 3089TIP3    H130682   2.047   4.024   4.228 -0.7087  1.0559 -1.9132
 3089TIP3    H230683   2.178   3.977   4.287 -1.9352 -0.5721 -0.3695
 3090TIP3   OH230684   3.391   2.131  15.691 -0.0881  0.5872  0.6891
 3090TIP3    H130685   3.403   2.197  15.622  1.3970 -0.8152 -0.4835
 3090TIP3    H230686   3.457   2.064  15.671 -0.1367 -0.2387  3.0560
 3091TIP3   OH230687   1.795   1.242  15.554  0.3547 -0.0498  0.1451
 3091TIP3    H130688   1.885   1.273  15.558  0.4115 -0.0286 -1.0004
 3091TIP3    H230689   1.795   1.160  15.604  0.8324  0.3357  0.7798
 3092TIP3   OH230690   2.707   6.602   0.556 -0.2963 -0.1317  0.4208
 3092TIP3    H130691   2.633   6.662   0.565  0.2884  1.2686 -2.8526
 3092TIP3    H230692   2.778   6.643   0.605 -0.7273  0.2620  0.7249
 3093TIP3   OH230693   0.662   1.577   3.332 -0.2078  0.3283  0.6146
 3093TIP3    H130694   0.743   1.604   3.375 -0.1737  0.6813  0.3396
 3093TIP3    H230695   0.619   1.660   3.309 -1.0317  0.1553  1.4589
 3094TIP3   OH230696   4.217   4.175  13.867  0.2011 -0.8320  0.1558
 3094TIP3    H130697   4.151   4.125  13.917  0.1262 -0.0649  0.8552
 3094TIP3    H230698   4.283   4.110  13.843 -1.5641 -1.9760 -1.9722
 3095TIP3   OH230699   0.357   0.297   5.259 -0.6374  0.1420 -0.1042
 3095TIP3    H130700   0.388   0.255   5.179  0.4573 -0.5116  0.6286
 3095TIP3    H230701   0.420   0.368   5.274 -0.8908  0.3212  0.1247
 3096TIP3   OH230702   6.443   0.607   5.175 -0.3132 -0.5291 -0.4833
 3096TIP3    H130703   6.437   0.593   5.269 -0.4340 -2.4553 -0.7474
 3096TIP3    H230704   6.495   0.533   5.143 -1.4470 -0.6715 -2.0998
 3097TIP3   OH230705   5.533   3.290  12.849  0.6716 -0.0746 -0.8999
 3097TIP3    H130706   5.555   3.323  12.762 -0.3233  1.0885 -0.7366
 3097TIP3    H230707   5.438   3.300  12.855  0.9815  2.7552  1.4356
 3098TIP3   OH230708   6.782   6.619   3.198 -0.8001 -0.2572  0.0297
 3098TIP3    H130709   6.753   6.594   3.286 -1.0994 -0.0975 -0.0228
 3098TIP3    H230710   6.711   6.673   3.164 -0.4500  0.1323 -0.1033
 3099TIP3   OH230711   6.295   3.550   6.014 -0.1035 -0.4036  0.3348
 3099TIP3    H130712   6.284   3.643   5.999 -0.0924 -0.2339  1.2870
 3099TIP3    H230713   6.380   3.543   6.058  1.3876 -1.1877 -2.4403
 3100TIP3   OH230714   3.685   6.442   1.781  0.1724  0.0188 -0.4853
 3100TIP3    H130715   3.649   6.388   1.852 -1.6526  1.3514 -0.3091
 3100TIP3    H230716   3.743   6.383   1.732  0.6290 -1.2264  1.4557
 3101TIP3   OH230717   3.268   5.389   2.345 -0.5174 -0.9729 -0.1494
 3101TIP3    H130718   3.235   5.434   2.422  0.9786  1.5079 -0.8114
 3101TIP3    H230719   3.195   5.392   2.283 -0.4937  0.6425 -0.1587
 3102TIP3   OH230720   1.055   2.190   6.011 -0.4910 -0.3129 -0.3153
 3102TIP3    H130721   1.036   2.241   5.932 -1.7392 -1.2843 -0.6822
 3102TIP3    H230722   1.137   2.145   5.991 -1.6995 -1.9943 -1.8787
 3103TIP3   OH230723   6.004   4.461  12.180 -0.1669  0.6284  0.0332
 3103TIP3    H130724   6.001   4.551  12.147  0.1454 -0.2864 -2.7557
 3103TIP3    H230725   5.939   4.415  12.126  0.5689 -1.0562  0.5544
 3104TIP3   OH230726   5.109   1.527   0.617  0.3417 -0.1552 -0.4076
 3104TIP3    H130727   5.107   1.623   0.611 -0.1101 -0.2280 -1.8781
 3104TIP3    H230728   5.183   1.508   0.674  2.2072  1.0122 -2.3028
 3105TIP3   OH230729   6.480   5.472  12.316 -0.2698  0.3781  0.5981
 3105TIP3    H130730   6.493   5.565  12.298  0.2152  0.3272  0.6617
 3105TIP3    H230731   6.567   5.433  12.305 -0.3352  0.0416  1.2149
 3106TIP3   OH230732   2.191   5.446   1.592  0.0820  0.0381 -0.3811
 3106TIP3    H130733   2.210   5.359   1.556  0.5442 -0.0833  0.1328
 3106TIP3    H230734   2.275   5.475   1.628  0.1243  1.0217 -1.2090
 3107TIP3   OH230735   3.790   5.815  14.459  0.0635 -0.0066 -0.0216
 3107TIP3    H130736   3.754   5.812  14.370  0.7667 -0.9182 -0.2938
 3107TIP3    H230737   3.879   5.783  14.449  0.1101 -0.2268  1.0337
 3108TIP3   OH230738   1.227   0.763  11.651  0.2019  0.5974 -0.0910
 3108TIP3    H130739   1.303   0.766  11.710  0.8973  1.3623 -0.9917
 3108TIP3    H230740   1.256   0.710  11.577 -0.1035  0.9792 -0.4899
 3109TIP3   OH230741   2.848   1.038  16.646 -0.4370  0.2071 -0.7375
 3109TIP3    H130742   2.928   1.031  16.698  1.0966  1.8408 -2.6843
 3109TIP3    H230743   2.777   1.012  16.706  1.4183 -0.2009  1.3981
 3110TIP3   OH230744   4.452   1.893  14.488 -0.5882  0.0903  0.3256
 3110TIP3    H130745   4.514   1.827  14.456  0.0463 -0.2117  2.0863
 3110TIP3    H230746   4.398   1.914  14.412 -1.0212 -2.6826 -0.2208
 3111TIP3   OH230747   5.871   5.881   0.288  0.3347 -0.3420 -0.1170
 3111TIP3    H130748   5.802   5.838   0.237 -0.3399 -0.4300  0.8529
 3111TIP3    H230749   5.903   5.951   0.231 -0.4420 -0.3955 -0.6321
 3112TIP3   OH230750   5.058   2.137   5.914  0.6848 -0.0469  0.4301
 3112TIP3    H130751   5.039   2.169   6.002 -1.3006 -0.3780  0.1645
 3112TIP3    H230752   5.077   2.044   5.926 -1.2434 -0.4926  0.3803
 3113TIP3   OH230753   0.085   2.218   1.470 -0.1054  0.1415 -0.1772
 3113TIP3    H130754   0.024   2.173   1.528 -0.3464  1.2786  0.4800
 3113TIP3    H230755   0.054   2.196   1.382 -0.5457 -0.5091  0.1295
 3114TIP3   OH230756   5.777   4.799   5.009 -0.3648 -0.0611 -0.1753
 3114TIP3    H130757   5.730   4.744   4.946 -0.7784 -0.0640  0.1328
 3114TIP3    H230758   5.768   4.753   5.093  2.9656 -1.8218 -0.5944
 3115TIP3   OH230759   2.252   4.949  16.919  0.4357 -0.0293 -0.5541
 3115TIP3    H130760   2.284   4.927  16.832 -0.0295  0.5167 -0.8777
 3115TIP3    H230761   2.159   4.927  16.916 -0.1430  2.1956 -1.0241
 3116TIP3   OH230762   3.240   4.989  12.306  0.1628  0.0216  0.7860
 3116TIP3    H130763   3.270   5.043  12.379 -2.5534 -0.3373  2.3137
 3116TIP3    H230764   3.158   5.029  12.279  0.9678 -0.0182 -1.9949
 3117TIP3   OH230765   5.957   6.193   1.211 -0.3778  0.1356 -0.7226
 3117TIP3    H130766   5.985   6.102   1.212 -0.0041  0.2235  0.9836
 3117TIP3    H230767   6.038   6.243   1.221 -0.5889  0.6619 -1.5414
 3118TIP3   OH230768   3.534   0.736  12.874 -0.1983  0.7091 -0.0877
 3118TIP3    H130769   3.481   0.670  12.918  0.4822 -2.0235 -2.9751
 3118TIP3    H230770   3.474   0.780  12.813 -0.1518  1.1795  0.1952
 3119TIP3   OH230771   0.305   2.420   2.081  0.4888 -0.1688 -0.0649
 3119TIP3    H130772   0.245   2.403   2.153 -0.0549  2.2479  0.1550
 3119TIP3    H230773   0.278   2.360   2.012  0.5340 -1.9920  1.4293
 3120TIP3   OH230774   1.198   2.832  13.566  0.2787  0.0027  0.0335
 3120TIP3    H130775   1.267   2.765  13.569  0.9104  0.6112 -0.6482
 3120TIP3    H230776   1.144   2.807  13.491  1.2628  0.9496 -1.0297
 3121TIP3   OH230777   3.664   5.236   2.292  0.0958  0.0317 -0.0273
 3121TIP3    H130778   3.691   5.168   2.354 -0.5701  0.2093  0.4807
 3121TIP3    H230779   3.708   5.214   2.210  0.1978 -0.7867  0.2389
 3122TIP3   OH230780   4.517   4.546   0.062 -0.3024 -0.0948 -0.2032
 3122TIP3    H130781   4.612   4.547   0.061 -0.2680  0.0426  1.1671
 3122TIP3    H230782   4.493   4.453   0.063 -0.1688 -0.1287 -0.3207
 3123TIP3   OH230783   2.084   0.640   4.818 -0.5738 -0.2726  0.6153
 3123TIP3    H130784   2.176   0.667   4.820 -0.4125 -0.6709 -0.6068
 3123TIP3    H230785   2.038   0.707   4.868  0.1304  0.9858 -0.3740
 3124TIP3   OH230786   6.034   6.497  13.289  0.1277  0.7922 -0.0442
 3124TIP3    H130787   5.965   6.443  13.328  0.2484 -0.4351 -1.4533
 3124TIP3    H230788   5.990   6.578  13.264 -0.6992  0.2460 -0.4272
 3125TIP3   OH230789   1.886   4.115   4.259 -0.1617 -0.3643  0.2837
 3125TIP3    H130790   1.850   4.197   4.291  0.8255  0.7221 -1.2696
 3125TIP3    H230791   1.819   4.080   4.201 -0.8265 -0.9965  1.3848
 3126TIP3   OH230792   2.442   0.294  16.548  0.5901  0.0279  0.3858
 3126TIP3    H130793   2.451   0.365  16.486 -0.6931  0.5045  0.7290
 3126TIP3    H230794   2.419   0.336  16.631  0.2928 -0.7389  0.7084
 3127TIP3   OH230795   3.254   1.153   3.651 -0.0655  0.3116  0.0852
 3127TIP3    H130796   3.272   1.073   3.601  0.4154 -0.5356  1.5452
 3127TIP3    H230797   3.168   1.138   3.691 -0.1869  0.7255 -0.0143
 3128TIP3   OH230798   1.628   3.030   1.605  0.2802  0.0686  0.0119
 3128TIP3    H130799   1.610   2.964   1.538 -0.4250  0.4106 -0.1503
 3128TIP3    H230800   1.699   2.993   1.657 -1.7038 -1.9296  1.4555
 3129TIP3   OH230801   3.569   0.947  15.219 -0.4705  0.0523 -0.6547
 3129TIP3    H130802   3.498   1.012  15.219  0.1932  0.7841 -0.2373
 3129TIP3    H230803   3.541   0.883  15.153 -1.3295  0.5390 -0.7899
 3130TIP3   OH230804   0.905   5.890   5.154  0.3807  0.3179  0.3044
 3130TIP3    H130805   0.871   5.809   5.192 -0.9113  1.4519  1.6753
 3130TIP3    H230806   0.999   5.886   5.170  0.0896 -0.0705  2.0503
 3131TIP3   OH230807   1.651   5.952   5.940 -0.5346 -0.2764  0.2701
 3131TIP3    H130808   1.681   5.991   6.022  2.0394 -3.0016  0.8043
 3131TIP3    H230809   1.661   5.858   5.953 -1.0910 -0.8667 -2.8147
 3132TIP3   OH230810   0.975   6.089   0.815 -0.2818 -0.5732 -0.3952
 3132TIP3    H130811   0.888   6.113   0.847  0.2906  1.0008  0.0688
 3132TIP3    H230812   0.966   6.087   0.720 -0.7452 -0.1091 -0.3632
 3133TIP3   OH230813   5.423   1.106   2.396  0.2923 -0.3482 -0.2012
 3133TIP3    H130814   5.405   1.017   2.424 -0.9864 -0.1718 -0.4388
 3133TIP3    H230815   5.355   1.127   2.332  0.4473  0.8604 -0.0110
 3134TIP3   OH230816   0.362   6.626   4.127  0.1658 -0.5176  0.5232
 3134TIP3    H130817   0.346   6.561   4.196  2.0707  0.2238  1.7624
 3134TIP3    H230818   0.275   6.657   4.102 -0.5916 -0.6727  2.7589
 3135TIP3   OH230819   0.267   6.070   1.944 -0.0791  0.1606  0.6144
 3135TIP3    H130820   0.240   6.155   1.910 -0.0702  0.6279  1.7322
 3135TIP3    H230821   0.318   6.030   1.873  1.5495  1.8853  0.7563
 3136TIP3   OH230822   4.795   0.301  15.576  0.6411 -0.2469  0.4982
 3136TIP3    H130823   4.735   0.375  15.566 -0.4888 -1.0748  0.8943
 3136TIP3    H230824   4.854   0.327  15.647  1.2674  0.8940 -0.4060
 3137TIP3   OH230825   5.623   2.964   4.896 -0.0312 -0.0396  0.5178
 3137TIP3    H130826   5.658   3.053   4.890 -0.2255 -0.0617 -2.4194
 3137TIP3    H230827   5.699   2.910   4.916  1.0240  0.3625 -2.0014
 3138TIP3   OH230828   0.987   1.246   2.369 -0.4386  0.5266  0.0194
 3138TIP3    H130829   1.041   1.252   2.290 -0.8152 -0.2695 -0.3179
 3138TIP3    H230830   1.032   1.181   2.424 -1.0088 -0.1166 -0.2501
 3139TIP3   OH230831   5.423   3.403   5.655 -0.0618 -0.1036  0.4151
 3139TIP3    H130832   5.353   3.378   5.715  0.5917  0.6526  1.5475
 3139TIP3    H230833   5.504   3.389   5.705  0.5804 -0.5337 -0.6981
 3140TIP3   OH230834   4.349   2.973   5.050  0.1620  0.2476 -1.0640
 3140TIP3    H130835   4.265   2.929   5.059 -0.3324  1.1759 -0.9842
 3140TIP3    H230836   4.383   2.979   5.139  1.1699 -1.6945 -1.2652
 3141TIP3   OH230837   3.351   3.981   6.793 -0.0297 -0.3227 -0.3032
 3141TIP3    H130838   3.330   3.888   6.784 -1.1825 -0.3943  2.2567
 3141TIP3    H230839   3.266   4.025   6.799  0.4558  0.5082  1.2857
 3142TIP3   OH230840   5.379   1.074   1.476 -0.4850  0.6818 -0.0818
 3142TIP3    H130841   5.325   0.996   1.468 -0.0744  0.3334  0.4074
 3142TIP3    H230842   5.318   1.147   1.467 -0.8726  0.3068 -0.5521
 3143TIP3   OH230843   3.641   2.666   5.842  0.0534 -0.4094 -0.5940
 3143TIP3    H130844   3.599   2.710   5.768  2.4059  0.0011 -1.7844
 3143TIP3    H230845   3.643   2.574   5.818 -0.6555 -0.5192 -0.2594
 3144TIP3   OH230846   2.194   4.016  16.857 -0.1352 -0.6054  0.1667
 3144TIP3    H130847   2.183   4.105  16.890 -1.4075 -0.3829 -0.7746
 3144TIP3    H230848   2.286   4.012  16.830  0.1184  0.1939  0.8566
 3145TIP3   OH230849   4.967   1.652  10.924  0.4567  0.3646  0.2282
 3145TIP3    H130850   4.947   1.579  10.983 -1.7757  1.3899  0.8402
 3145TIP3    H230851   4.984   1.611  10.839 -2.8652 -0.8460  0.0102
 3146TIP3   OH230852   3.633   2.412   2.359  0.4199  0.4921 -0.1712
 3146TIP3    H130853   3.639   2.461   2.442  0.8046 -0.2095  0.2232
 3146TIP3    H230854   3.589   2.330   2.383  0.6302  0.2392 -0.6380
 3147TIP3   OH230855   6.148   2.168  11.891  0.1939  0.3892  0.9108
 3147TIP3    H130856   6.057   2.194  11.906  0.2597  1.4650 -0.3671
 3147TIP3    H230857   6.145   2.118  11.809  0.7356  0.3349  0.9219
 3148TIP3   OH230858   5.639   0.284  12.515 -0.5406  0.3250 -0.0081
 3148TIP3    H130859   5.545   0.284  12.533 -0.4763  0.6703  0.3652
 3148TIP3    H230860   5.658   0.372  12.482  0.0133  1.0541  2.0622
 3149TIP3   OH230861   1.614   1.793  11.078 -0.1043  0.1274 -0.2525
 3149TIP3    H130862   1.574   1.879  11.068 -3.8435 -1.3715  0.1613
 3149TIP3    H230863   1.608   1.774  11.172  0.4761 -0.6588 -0.3623
 3150TIP3   OH230864   5.091   3.884  16.236  0.0777 -0.0786 -1.1717
 3150TIP3    H130865   5.171   3.840  16.262 -0.1919  0.2133  0.2208
 3150TIP3    H230866   5.028   3.863  16.305 -0.7533  0.5153 -1.7275
 3151TIP3   OH230867   3.287   0.781  13.318 -0.3672  0.4447 -0.0925
 3151TIP3    H130868   3.248   0.852  13.369  0.0436 -0.9212  2.2741
 3151TIP3    H230869   3.374   0.768  13.357  0.7768  0.5457 -2.4177
 3152TIP3   OH230870   0.955   3.072   2.406 -0.2601  0.6687 -0.4325
 3152TIP3    H130871   0.884   3.008   2.401  0.8742 -0.7725  0.9931
 3152TIP3    H230872   1.000   3.063   2.322  0.6909 -1.4637  0.2346
 3153TIP3   OH230873   1.029   5.721  13.058  0.1009 -0.8841 -0.2295
 3153TIP3    H130874   1.031   5.664  12.981 -0.8220 -0.6943 -0.4057
 3153TIP3    H230875   1.115   5.763  13.059  0.7153 -2.1175 -0.2078
 3154TIP3   OH230876   0.620   0.010  12.611 -0.1521  0.3002  0.0278
 3154TIP3    H130877   0.582  -0.018  12.528 -0.6985 -0.7390  0.6052
 3154TIP3    H230878   0.613  -0.067  12.668 -1.4927  1.5238  1.6221
 3155TIP3   OH230879   6.432   1.801  14.377  0.3435  0.0616 -0.0475
 3155TIP3    H130880   6.377   1.756  14.313  0.5574 -1.7493  0.9644
 3155TIP3    H230881   6.412   1.894  14.366 -1.3093 -0.3906 -1.1614
 3156TIP3   OH230882   0.933   3.518  16.145  0.0422 -0.4172 -0.6641
 3156TIP3    H130883   1.015   3.483  16.181  0.7915 -0.2681 -2.1378
 3156TIP3    H230884   0.873   3.443  16.145  0.6120 -0.8824 -0.8059
 3157TIP3   OH230885   1.621   2.777  11.439  0.2244  0.3004 -0.3075
 3157TIP3    H130886   1.622   2.870  11.418  0.1135  0.2455 -0.5565
 3157TIP3    H230887   1.533   2.761  11.472  0.0983  0.1906 -0.6911
 3158TIP3   OH230888   2.698   2.355   2.860 -0.3422  0.2066  0.3411
 3158TIP3    H130889   2.747   2.432   2.890 -0.2838 -0.2258  1.3956
 3158TIP3    H230890   2.765   2.299   2.819 -0.3748  0.6750 -0.3697
 3159TIP3   OH230891   3.918   4.604  10.815 -0.1575  0.3854 -0.3243
 3159TIP3    H130892   3.961   4.600  10.729  1.0816 -2.2601  0.3035
 3159TIP3    H230893   3.934   4.517  10.853 -0.1235  1.6589  2.8408
 3160TIP3   OH230894   0.018   0.552   1.468 -0.5229 -0.5222  0.1929
 3160TIP3    H130895  -0.048   0.619   1.486  1.4164  1.7285 -0.6241
 3160TIP3    H230896   0.029   0.506   1.551 -1.0217  1.0040  1.1413
 3161TIP3   OH230897   3.962   1.720  16.339  0.2162  0.2520  0.0198
 3161TIP3    H130898   3.911   1.799  16.355 -0.3661 -0.4010  1.5796
 3161TIP3    H230899   3.980   1.685  16.426  1.4830 -0.7048 -0.5890
 3162TIP3   OH230900   3.126   5.414   2.082 -0.9263 -0.2941  0.7930
 3162TIP3    H130901   3.201   5.395   2.026 -1.9994  1.3142 -1.2965
 3162TIP3    H230902   3.081   5.330   2.092  0.0587 -0.8782  0.4513
 3163TIP3   OH230903   3.361   5.301  17.154 -0.0921  0.2898  0.1569
 3163TIP3    H130904   3.423   5.374  17.162 -0.6228  0.6492  1.1619
 3163TIP3    H230905   3.410   5.233  17.107  0.8051  0.8506  0.2542
 3164TIP3   OH230906   4.542   6.136  14.534 -0.2058  0.0002 -0.4613
 3164TIP3    H130907   4.551   6.187  14.614 -0.7684 -0.0236 -0.3786
 3164TIP3    H230908   4.528   6.201  14.466 -0.9928 -0.0341 -0.3453
 3165TIP3   OH230909   6.175   3.688   4.735 -0.1366  0.5303  0.1938
 3165TIP3    H130910   6.250   3.631   4.754 -0.4368 -0.2107 -0.7395
 3165TIP3    H230911   6.111   3.668   4.802 -0.5525 -0.8497 -0.5827
 3166TIP3   OH230912   3.618   4.579   2.477  0.8308 -0.1880  0.1969
 3166TIP3    H130913   3.639   4.630   2.398  1.2133 -0.4956  0.0986
 3166TIP3    H230914   3.550   4.630   2.520  1.7109  0.7951  0.4694
 3167TIP3   OH230915   1.853   1.120  12.383  0.5101 -0.3403  0.5706
 3167TIP3    H130916   1.845   1.214  12.398 -1.6079 -0.5984  1.4388
 3167TIP3    H230917   1.766   1.093  12.352  1.5784 -1.7467 -1.4155
 3168TIP3   OH230918   0.243   1.862   4.865 -0.3517 -0.6035 -0.3348
 3168TIP3    H130919   0.299   1.877   4.941 -0.3972  1.0802 -0.6101
 3168TIP3    H230920   0.158   1.896   4.890  0.0114  1.4259 -1.6314
 3169TIP3   OH230921   0.275   2.106   2.074 -0.2120  0.3361 -0.1008
 3169TIP3    H130922   0.262   2.167   2.002  0.5349  0.1475 -0.4086
 3169TIP3    H230923   0.197   2.050   2.073 -0.1254  0.2264 -0.8742
 3170TIP3   OH230924   5.128   1.705   5.669 -0.2026  0.2161 -0.4328
 3170TIP3    H130925   5.180   1.726   5.746 -0.7593 -0.9095  0.2625
 3170TIP3    H230926   5.089   1.789   5.643  1.7347  1.0333 -0.8322
 3171TIP3   OH230927   4.740   4.736  15.805  0.8750 -0.8435 -0.3424
 3171TIP3    H130928   4.684   4.689  15.743  0.6026 -2.2565  0.8963
 3171TIP3    H230929   4.736   4.827  15.778 -2.8864 -0.6761  0.2757
 3172TIP3   OH230930   4.668   3.955   1.918  0.2246 -0.0874 -0.0405
 3172TIP3    H130931   4.604   3.989   1.981  0.0172 -0.4657 -0.0440
 3172TIP3    H230932   4.750   4.001   1.940 -0.4461  1.7905 -1.2287
 3173TIP3   OH230933   3.615   1.136   0.458  0.5933  0.0755 -0.3306
 3173TIP3    H130934   3.660   1.056   0.484  0.9804  0.6681  0.9492
 3173TIP3    H230935   3.530   1.132   0.501 -0.1208 -0.4573 -1.7276
 3174TIP3   OH230936   1.993   5.996   3.224 -0.5172 -0.1146  0.0679
 3174TIP3    H130937   2.042   5.926   3.268  0.4262  0.0040 -0.7496
 3174TIP3    H230938   1.987   6.065   3.289  2.7500  0.9440 -0.5269
 3175TIP3   OH230939   3.412   3.712   6.020  0.4162 -0.3276  0.2918
 3175TIP3    H130940   3.327   3.701   5.977  0.0067 -1.7987  1.3957
 3175TIP3    H230941   3.396   3.687   6.111  1.8856  0.0598  0.6822
 3176TIP3   OH230942   1.100   6.742  14.112 -0.1977 -0.1760 -0.5977
 3176TIP3    H130943   1.189   6.768  14.090  0.1230 -0.9558 -0.2321
 3176TIP3    H230944   1.059   6.723  14.027  0.5590 -1.6349 -0.6560
 3177TIP3   OH230945   0.391   5.838  13.287  0.2768 -0.2329 -0.5527
 3177TIP3    H130946   0.478   5.806  13.310 -0.1939 -0.4339  1.1161
 3177TIP3    H230947   0.337   5.760  13.279 -0.3654 -0.0248  1.2908
 3178TIP3   OH230948   5.970   4.975  12.930 -0.0773 -0.8415  0.2906
 3178TIP3    H130949   6.023   4.906  12.891 -1.6160 -2.0149  0.2124
 3178TIP3    H230950   5.959   5.040  12.860  2.2965  0.1097  0.6852
 3179TIP3   OH230951   3.542   5.905   2.151 -0.1556 -0.7245 -0.1487
 3179TIP3    H130952   3.447   5.916   2.153 -0.0859 -0.0379  2.0368
 3179TIP3    H230953   3.569   5.946   2.068 -1.7052 -0.5366 -0.5974
 3180TIP3   OH230954   2.555   6.370  17.083  0.1325  0.0311 -0.3945
 3180TIP3    H130955   2.632   6.371  17.140  0.3996  1.7493 -0.7211
 3180TIP3    H230956   2.557   6.455  17.039 -1.0023 -0.5776 -1.7065
 3181TIP3   OH230957   1.143   3.216   6.488 -0.3150 -0.4433 -0.2856
 3181TIP3    H130958   1.125   3.306   6.462 -0.9403 -0.5089 -0.1070
 3181TIP3    H230959   1.222   3.221   6.542 -0.6649  0.0802  0.1943
 3182TIP3   OH230960   4.375   0.161   1.067 -0.5461  0.5055  0.6530
 3182TIP3    H130961   4.310   0.145   1.136  0.7107 -1.0158  1.5580
 3182TIP3    H230962   4.328   0.212   1.001 -2.0939  1.0825  2.1428
 3183TIP3   OH230963   0.397   1.842   4.103  0.4185 -0.0870  0.3348
 3183TIP3    H130964   0.355   1.911   4.154  0.0265 -0.2353  0.2111
 3183TIP3    H230965   0.325   1.793   4.064  0.6506  1.5092 -2.4080
 3184TIP3   OH230966   2.891   4.649   0.070  0.1618  0.1056 -0.0036
 3184TIP3    H130967   2.832   4.725   0.068 -0.5290 -0.4249 -0.3964
 3184TIP3    H230968   2.909   4.635   0.163 -0.3137  0.2907  0.1193
 3185TIP3   OH230969   5.954   4.430   2.769 -0.2636  0.1984  0.8830
 3185TIP3    H130970   5.998   4.499   2.718 -1.6153 -0.1294 -0.8262
 3185TIP3    H230971   5.862   4.437   2.743 -0.4063 -2.3943  0.4596
 3186TIP3   OH230972   1.065   5.464   1.688  0.3305 -0.2146 -0.1336
 3186TIP3    H130973   1.123   5.531   1.652  0.3383  0.2814  0.7800
 3186TIP3    H230974   0.986   5.510   1.714 -0.0392 -0.7127 -0.3473
 3187TIP3   OH230975   4.267   0.204   1.399 -0.2421 -0.2389 -0.2891
 3187TIP3    H130976   4.258   0.230   1.491  0.6134 -1.2914  0.1099
 3187TIP3    H230977   4.347   0.151   1.396 -1.1331 -1.6030 -1.3280
 3188TIP3   OH230978   2.161   2.897  14.250  0.1240 -0.1196  0.9087
 3188TIP3    H130979   2.184   2.805  14.246  0.2715 -0.1027  1.3607
 3188TIP3    H230980   2.066   2.898  14.242  0.2668 -0.1641 -1.3482
 3189TIP3   OH230981   0.216   6.119  11.336 -0.0841 -0.2876 -0.1797
 3189TIP3    H130982   0.152   6.066  11.383  2.8380 -2.4396  1.7190
 3189TIP3    H230983   0.239   6.067  11.259  0.1341  0.0250 -0.3300
 3190TIP3   OH230984   6.594   2.135   4.311 -0.1919 -0.0578  0.3268
 3190TIP3    H130985   6.683   2.144   4.279  0.2328  4.6708  2.0763
 3190TIP3    H230986   6.603   2.092   4.396  0.6553  1.3588  0.9873
 3191TIP3   OH230987   0.466   5.331   1.054  0.0409 -0.1262  0.2373
 3191TIP3    H130988   0.507   5.370   1.131 -1.0827  0.0374  0.7660
 3191TIP3    H230989   0.459   5.238   1.076  1.3552 -0.4063 -0.4177
 3192TIP3   OH230990   5.112   6.705   2.784 -0.0492 -0.3909 -0.2133
 3192TIP3    H130991   5.145   6.724   2.696  2.4937 -0.8922  0.5557
 3192TIP3    H230992   5.095   6.611   2.783 -0.2984 -0.3466 -0.2417
 3193TIP3   OH230993   3.962   6.230   0.881  0.3430 -0.5820  0.5669
 3193TIP3    H130994   3.964   6.306   0.940  0.4812  0.1461 -0.3528
 3193TIP3    H230995   4.049   6.190   0.890  0.4750 -0.2858  0.6172
 3194TIP3   OH230996   1.103   5.893  13.954  0.0735 -0.4557 -0.3308
 3194TIP3    H130997   1.193   5.864  13.968  0.3063 -0.3371 -1.4806
 3194TIP3    H230998   1.105   5.937  13.869 -0.5422  1.7766  0.7357
 3195TIP3   OH230999   3.854   5.304   3.622  0.2730  0.5706 -0.2258
 3195TIP3    H131000   3.844   5.350   3.538 -2.5718  1.7196  0.6194
 3195TIP3    H231001   3.794   5.230   3.615 -2.5446  2.4739  1.8480
 3196TIP3   OH231002   1.520   1.363   6.040  0.5096  0.2849  0.1256
 3196TIP3    H131003   1.430   1.341   6.019  0.1087  2.4764 -0.7049
 3196TIP3    H231004   1.566   1.278   6.042 -1.5838 -0.9115  0.9284
 3197TIP3   OH231005   0.002   6.709  12.135  0.4745  0.8533  0.1250
 3197TIP3    H131006  -0.050   6.779  12.095  2.2005  1.5067 -1.0726
 3197TIP3    H231007   0.092   6.726  12.106  1.1756 -0.9847  1.0726
 3198TIP3   OH231008   4.375   3.034  14.510  0.3965  0.2600 -0.4444
 3198TIP3    H131009   4.404   2.946  14.533  0.0583 -0.1042 -1.3319
 3198TIP3    H231010   4.456   3.083  14.492  0.6299  0.4108  0.9521
 3199TIP3   OH231011   3.923   1.939  15.110  0.1658 -0.2124  0.2138
 3199TIP3    H131012   4.016   1.932  15.087  0.1309  0.2563 -0.0792
 3199TIP3    H231013   3.921   2.006  15.178 -0.1319  0.9580 -0.9056
 3200TIP3   OH231014   6.186   1.355  13.710 -0.4339  0.4226  0.1491
 3200TIP3    H131015   6.259   1.332  13.767 -0.5722  1.4533  0.7576
 3200TIP3    H231016   6.227   1.386  13.629 -0.2299 -2.3942 -0.9573
 3201TIP3   OH231017   0.013   5.066  16.079  0.0461  0.1108 -0.1011
 3201TIP3    H131018   0.041   4.981  16.044  1.1164  1.1688 -1.9897
 3201TIP3    H231019   0.052   5.070  16.167 -0.0341 -1.3327  0.0247
 3202TIP3   OH231020   0.046   5.134  12.756 -0.4829 -0.8277 -0.7254
 3202TIP3    H131021   0.133   5.105  12.781 -0.0043 -0.4765 -1.9405
 3202TIP3    H231022  -0.009   5.114  12.832  0.9247  0.3387  0.6693
 3203TIP3   OH231023   2.090   5.608  12.284 -0.0760 -0.1382 -0.4599
 3203TIP3    H131024   2.048   5.532  12.246 -0.6916 -0.4697  0.8194
 3203TIP3    H231025   2.028   5.680  12.271 -1.3904 -0.7339  1.8896
 3204TIP3   OH231026   3.597   1.460  16.602  0.4028  0.4310  0.1210
 3204TIP3    H131027   3.612   1.450  16.696 -2.6653 -2.7923  0.5055
 3204TIP3    H231028   3.668   1.411  16.560  0.8741  0.4878  0.8467
 3205TIP3   OH231029   5.815   6.664  11.718  0.2253  0.3844 -0.6504
 3205TIP3    H131030   5.744   6.723  11.742 -3.0793 -2.5169 -2.4095
 3205TIP3    H231031   5.811   6.594  11.784  2.4781  0.7845  0.0081
 3206TIP3   OH231032   5.968   2.785   0.123  0.0139  0.4930  0.8105
 3206TIP3    H131033   5.893   2.825   0.079  0.4564  0.0890 -0.3614
 3206TIP3    H231034   6.018   2.859   0.157 -0.1263  0.8592  0.2438
 3207TIP3   OH231035   0.699   6.087  12.514  0.1545 -0.4409 -0.0223
 3207TIP3    H131036   0.746   6.137  12.581 -1.7610  1.4769 -0.0186
 3207TIP3    H231037   0.640   6.030  12.564 -0.0215 -0.2870 -0.0536
 3208TIP3   OH231038   2.602   3.252   0.317  0.3650  0.1485 -0.3769
 3208TIP3    H131039   2.644   3.178   0.361  0.6139  0.0908 -0.7062
 3208TIP3    H231040   2.620   3.237   0.224 -1.1650 -0.3686 -0.6151
 3209TIP3   OH231041   4.513   1.497  16.125  0.2841 -0.3543  0.1560
 3209TIP3    H131042   4.456   1.501  16.049  0.4967  1.6401  0.0457
 3209TIP3    H231043   4.534   1.404  16.135 -0.6403 -0.7804 -1.5330
 3210TIP3   OH231044   4.282   6.439  11.628  0.5688 -0.2101 -0.2369
 3210TIP3    H131045   4.309   6.351  11.602  0.4531 -0.6071  0.9302
 3210TIP3    H231046   4.192   6.446  11.597  0.5707 -0.5121 -0.3171
 3211TIP3   OH231047   1.422   5.783  16.182  0.5524 -0.2864 -0.6420
 3211TIP3    H131048   1.445   5.796  16.090 -0.6886  1.1476 -0.7946
 3211TIP3    H231049   1.392   5.869  16.212  1.5118 -0.5565  1.3033
 3212TIP3   OH231050   1.190   5.185  12.335 -0.1898 -0.4705  0.5037
 3212TIP3    H131051   1.282   5.159  12.342  0.6718  2.2956  0.6882
 3212TIP3    H231052   1.167   5.214  12.424 -0.7946  0.1188  0.1684
 3213TIP3   OH231053   6.344   0.239   1.689  0.5310  0.5556  0.9779
 3213TIP3    H131054   6.341   0.252   1.594 -0.2659 -0.1544  0.8964
 3213TIP3    H231055   6.335   0.145   1.701  0.2697  0.6773  1.7754
 3214TIP3   OH231056   5.011   0.701  15.116 -0.6907 -0.8381 -0.3159
 3214TIP3    H131057   4.971   0.767  15.060  0.7466 -0.1502 -0.5801
 3214TIP3    H231058   5.025   0.626  15.059 -3.6687 -2.0023  0.3211
 3215TIP3   OH231059   6.192   6.295  16.628  0.1573 -0.4706  0.4437
 3215TIP3    H131060   6.106   6.259  16.608 -0.1507  0.2612  0.4180
 3215TIP3    H231061   6.240   6.223  16.668 -0.0449 -1.2475 -0.6887
 3216TIP3   OH231062   2.352   1.207  13.992 -0.0402  0.0459 -0.2831
 3216TIP3    H131063   2.328   1.235  14.080 -0.7536  3.4025 -1.3996
 3216TIP3    H231064   2.439   1.246  13.977 -1.5494  2.9842 -2.3098
 3217TIP3   OH231065   4.827   4.246   1.882 -0.4645 -0.2478 -0.4766
 3217TIP3    H131066   4.839   4.213   1.793 -0.2562 -3.9810  0.7748
 3217TIP3    H231067   4.894   4.313   1.892 -0.0629 -0.2042 -2.9044
 3218TIP3   OH231068   1.034   2.680   2.519  0.3518 -0.6021  0.6005
 3218TIP3    H131069   1.010   2.755   2.465  1.0562  0.8260  2.1724
 3218TIP3    H231070   1.013   2.604   2.466  0.3422  0.7155 -1.3671
 3219TIP3   OH231071   6.065   5.521   3.404  0.6294 -0.3034  0.2360
 3219TIP3    H131072   6.016   5.602   3.390 -0.8883 -0.7507  2.4110
 3219TIP3    H231073   6.042   5.466   3.329 -1.4631 -0.1193  0.6800
 3220TIP3   OH231074   4.133   4.694   1.002  1.0269 -0.2273 -0.1356
 3220TIP3    H131075   4.091   4.780   1.005  0.1856 -0.6388  0.1731
 3220TIP3    H231076   4.154   4.682   0.909  1.3547  0.4001 -0.1516
 3221TIP3   OH231077   1.896   5.362  15.123 -0.1951 -0.0070  0.2654
 3221TIP3    H131078   1.980   5.397  15.150  0.5301 -1.1946 -0.3605
 3221TIP3    H231079   1.862   5.426  15.059  0.7720 -0.0886 -0.3466
 3222TIP3   OH231080   6.488   4.070  13.729 -0.4324 -0.5028 -0.3094
 3222TIP3    H131081   6.488   4.080  13.633  2.4580 -0.9339 -0.4652
 3222TIP3    H231082   6.580   4.081  13.753 -0.9601 -1.3241  2.3351
 3223TIP3   OH231083   3.668   3.015  14.400 -0.2670  0.0273 -0.3741
 3223TIP3    H131084   3.669   3.109  14.419  1.4147 -0.1000  0.4349
 3223TIP3    H231085   3.583   2.984  14.432 -0.3735  1.0887  0.4133
 3224TIP3   OH231086   2.658   1.557   3.348  0.0653  0.2430  0.2625
 3224TIP3    H131087   2.682   1.538   3.257 -0.4109  0.1561  0.1548
 3224TIP3    H231088   2.564   1.572   3.346 -0.0503 -0.3319  0.8353
 3225TIP3   OH231089   4.691   0.018  11.470  0.6202  0.4279  0.3148
 3225TIP3    H131090   4.647   0.103  11.480  1.1251  1.0362 -1.8901
 3225TIP3    H231091   4.621  -0.047  11.480  0.1558  1.1142  1.6679
 3226TIP3   OH231092   0.122   3.881   4.715  0.1959  0.1863 -0.3504
 3226TIP3    H131093   0.096   3.808   4.660  0.9738 -0.4067  0.0499
 3226TIP3    H231094   0.039   3.921   4.742 -0.2536 -0.7112 -0.3515
 3227TIP3   OH231095   1.985   1.037  14.471 -0.1062 -0.3656  0.6397
 3227TIP3    H131096   2.062   1.044  14.414  0.3418 -0.7547  1.1852
 3227TIP3    H231097   1.951   0.949  14.455 -0.3077 -0.2742  0.5639
 3228TIP3   OH231098   3.100   6.698   1.385  0.2046  0.1351 -0.4491
 3228TIP3    H131099   3.136   6.614   1.413 -0.4949  0.5737  1.9964
 3228TIP3    H231100   3.173   6.744   1.344  1.3434 -0.5816  0.7202
 3229TIP3   OH231101   5.162   2.723  15.748 -0.2220  0.2090 -0.8292
 3229TIP3    H131102   5.213   2.788  15.798  0.4183 -0.6346 -0.3484
 3229TIP3    H231103   5.202   2.723  15.661  0.9411 -0.7471 -0.3403
 3230TIP3   OH231104   1.126   4.765  12.371  0.7120  0.8669 -0.1073
 3230TIP3    H131105   1.041   4.723  12.383  0.7376  1.0559  0.7901
 3230TIP3    H231106   1.183   4.695  12.341  0.9915 -0.0046  2.2757
 3231TIP3   OH231107   3.876   0.422  10.419  0.3082 -0.6587  0.1900
 3231TIP3    H131108   3.947   0.358  10.412  0.3136 -0.8369  1.5888
 3231TIP3    H231109   3.892   0.484  10.347  0.0373 -2.4507 -1.4834
 3232TIP3   OH231110   6.400   6.549   5.687 -0.0914  0.2939 -0.5872
 3232TIP3    H131111   6.464   6.598   5.738 -0.8816 -1.2985  2.1477
 3232TIP3    H231112   6.423   6.457   5.703 -2.5822 -0.3000 -0.0822
 3233TIP3   OH231113   3.852   5.480   0.175  0.1418  0.5424 -0.0865
 3233TIP3    H131114   3.810   5.509   0.256  0.1683 -0.0126  0.1295
 3233TIP3    H231115   3.834   5.550   0.113 -2.4691 -0.3496 -0.4537
 3234TIP3   OH231116   4.437   0.196   5.155 -0.0204 -0.0569  0.1531
 3234TIP3    H131117   4.357   0.196   5.207  0.8027  0.7220  1.4790
 3234TIP3    H231118   4.411   0.237   5.072 -1.3181 -1.1951 -0.0402
 3235TIP3   OH231119   1.776   3.392  15.614  0.3909  0.1544  0.2553
 3235TIP3    H131120   1.698   3.438  15.646  0.7490 -0.0373  1.4678
 3235TIP3    H231121   1.744   3.333  15.546 -0.2182  1.5119 -0.6753
 3236TIP3   OH231122   0.831   6.174  13.366  0.2790  0.7004  0.1130
 3236TIP3    H131123   0.822   6.111  13.294  0.3287  3.9596 -3.0723
 3236TIP3    H231124   0.743   6.184  13.401 -0.4368  1.2783 -1.7187
 3237TIP3   OH231125   3.082   0.614  12.653  0.2171 -0.8981 -0.3504
 3237TIP3    H131126   3.119   0.533  12.687  1.1516 -1.1399 -1.8179
 3237TIP3    H231127   2.988   0.598  12.648  0.3475 -1.7384 -0.2186
 3238TIP3   OH231128   2.141   0.892  11.441  0.2010 -0.6300 -0.1886
 3238TIP3    H131129   2.169   0.982  11.453  0.6172 -0.9039  1.0448
 3238TIP3    H231130   2.123   0.884  11.347  0.4061  0.6504 -0.3479
 3239TIP3   OH231131   6.257   4.660   0.323  0.2420 -0.0066  0.3387
 3239TIP3    H131132   6.204   4.587   0.354 -0.8951 -0.7005 -2.8108
 3239TIP3    H231133   6.208   4.738   0.349 -1.5923 -0.6033 -1.0911
 3240TIP3   OH231134   0.232   4.163  16.892  0.3953  0.0849 -0.1144
 3240TIP3    H131135   0.168   4.092  16.887 -0.7077  1.1229 -1.9886
 3240TIP3    H231136   0.212   4.208  16.974 -0.4318 -0.3785 -0.0498
 3241TIP3   OH231137   2.006   5.076   5.055 -0.3063  0.0060 -0.0205
 3241TIP3    H131138   2.050   5.137   4.996  0.2933  0.0591  0.4657
 3241TIP3    H231139   1.944   5.029   5.000  0.3196 -0.0197 -0.7142
 3242TIP3   OH231140   4.967   2.007  16.082  0.3290 -0.2493 -0.2116
 3242TIP3    H131141   4.878   2.041  16.092 -0.0144 -0.7812 -1.2592
 3242TIP3    H231142   4.956   1.927  16.030  1.4571 -0.1287 -0.6569
 3243TIP3   OH231143   0.584   4.437   1.276 -0.4930 -0.1656 -0.2280
 3243TIP3    H131144   0.603   4.360   1.331  0.0531 -0.5932 -1.0046
 3243TIP3    H231145   0.507   4.411   1.225  0.8741 -0.9902 -1.9537
 3244TIP3   OH231146   3.280   5.376  12.334  0.5758 -0.3054  0.1934
 3244TIP3    H131147   3.321   5.364  12.420 -0.2999 -0.0328  0.6709
 3244TIP3    H231148   3.189   5.398  12.355  0.0688 -1.3274 -0.8352
 3245TIP3   OH231149   0.777   4.027  12.506 -0.0344  0.2075 -0.1757
 3245TIP3    H131150   0.862   3.983  12.502  0.1999  0.5505  0.7661
 3245TIP3    H231151   0.714   3.956  12.519  0.3153  0.0975  1.0656
 3246TIP3   OH231152   3.248   0.654  15.757  0.3845 -0.4290 -0.6025
 3246TIP3    H131153   3.161   0.628  15.727  0.4496  0.1484 -1.3274
 3246TIP3    H231154   3.270   0.730  15.704  0.2518  1.0736  1.4001
 3247TIP3   OH231155   2.366   2.968  15.303 -0.1742  0.0342  0.5455
 3247TIP3    H131156   2.287   2.934  15.345  0.3988 -0.7581  1.0250
 3247TIP3    H231157   2.424   2.892  15.295  0.2411  0.4302 -0.5236
 3248TIP3   OH231158   4.371   5.132   1.985  0.6269 -0.0326 -0.1441
 3248TIP3    H131159   4.341   5.146   2.075 -0.8367  1.7487 -0.8274
 3248TIP3    H231160   4.466   5.134   1.991  0.5513  0.1550  1.3686
 3249TIP3   OH231161   0.459   2.173  12.418  0.8395 -0.4577  0.4401
 3249TIP3    H131162   0.468   2.180  12.323  1.2963 -0.9366  0.4410
 3249TIP3    H231163   0.513   2.244  12.453  1.1468 -0.6424  0.3486
 3250TIP3   OH231164   6.736   3.299   6.734 -0.3646  0.1381 -0.2788
 3250TIP3    H131165   6.775   3.381   6.765 -1.8641  0.8475 -0.1828
 3250TIP3    H231166   6.771   3.287   6.646 -1.0452  1.5446 -0.7724
 3251TIP3   OH231167   4.961   4.077  16.764 -0.0025  0.4382 -0.3234
 3251TIP3    H131168   5.035   4.063  16.704 -1.5294  0.3150 -2.2621
 3251TIP3    H231169   4.987   4.031  16.844  1.4488 -0.7872 -1.4265
 3252TIP3   OH231170   2.516   1.635  12.925  0.2049  0.3217 -0.6554
 3252TIP3    H131171   2.505   1.651  12.832 -1.7625  0.0564 -0.5180
 3252TIP3    H231172   2.466   1.555  12.942  0.8281  0.1603  0.5574
 3253TIP3   OH231173   1.689   5.405  13.438  0.2881 -0.7502 -0.0707
 3253TIP3    H131174   1.672   5.338  13.371  0.1202 -0.3769 -0.4035
 3253TIP3    H231175   1.713   5.355  13.516  0.0998 -1.2010 -0.2991
 3254TIP3   OH231176   5.042   6.061   2.816 -0.3652  0.8105  0.0019
 3254TIP3    H131177   5.076   5.979   2.852 -1.5060  0.8849  1.3655
 3254TIP3    H231178   4.978   6.034   2.750 -0.4914  0.6023  0.2077
 3255TIP3   OH231179   2.415   6.479  15.125 -0.4197  0.1230 -0.1421
 3255TIP3    H131180   2.482   6.416  15.152 -1.5681 -1.1290 -0.1285
 3255TIP3    H231181   2.358   6.487  15.202  1.5912  3.9588  1.2474
 3256TIP3   OH231182   0.420   0.221  14.774  0.3107  0.9327 -0.1678
 3256TIP3    H131183   0.500   0.173  14.798  0.6469  1.4682 -0.2213
 3256TIP3    H231184   0.451   0.304  14.740 -0.1531  0.2306 -2.4497
 3257TIP3   OH231185   4.738   0.037  12.366  0.1974 -0.1113 -0.3494
 3257TIP3    H131186   4.709   0.084  12.287 -0.1280 -2.4467 -1.6996
 3257TIP3    H231187   4.831   0.018  12.349  0.7192  1.2074  0.8296
 3258TIP3   OH231188   0.351   6.690   2.204  0.3608  0.3706  1.2361
 3258TIP3    H131189   0.257   6.700   2.220  0.2113 -0.0101  0.6456
 3258TIP3    H231190   0.362   6.717   2.113  0.9097  0.8715  1.4433
 3259TIP3   OH231191   6.640   6.048  13.139  0.3572  0.2942 -0.1291
 3259TIP3    H131192   6.576   6.033  13.069  1.0501 -0.2770 -0.6461
 3259TIP3    H231193   6.723   6.018  13.103  0.8340  0.5608  0.7232
 3260TIP3   OH231194   3.329   2.964   4.358 -0.9951 -0.5151  0.4298
 3260TIP3    H131195   3.399   3.028   4.375 -1.8477  0.6521 -0.2887
 3260TIP3    H231196   3.347   2.892   4.419  0.6541 -0.1185  0.4664
 3261TIP3   OH231197   2.618   2.557  15.237 -0.0270 -0.1272 -0.1961
 3261TIP3    H131198   2.689   2.610  15.273 -0.2529  0.5980 -0.7971
 3261TIP3    H231199   2.568   2.528  15.314  1.1838 -1.0621  0.2737
 3262TIP3   OH231200   6.463   2.235   1.620 -0.2220 -0.7497  0.1241
 3262TIP3    H131201   6.404   2.306   1.645  2.1543  0.3282  3.3022
 3262TIP3    H231202   6.426   2.157   1.662 -0.5410 -0.5352  0.2475
 3263TIP3   OH231203   0.948   4.426   3.572  0.0135  0.4950  0.3892
 3263TIP3    H131204   0.986   4.340   3.554  0.9173  0.8888  0.3626
 3263TIP3    H231205   0.882   4.409   3.639 -0.1968 -0.2974 -0.0013
 3264TIP3   OH231206   4.972   0.786  14.577 -0.4794 -0.0459 -0.1793
 3264TIP3    H131207   5.031   0.861  14.571  0.1341 -0.5253 -0.2490
 3264TIP3    H231208   4.990   0.735  14.498 -0.7125 -0.3924 -0.0127
 3265TIP3   OH231209   4.390   0.863   1.559 -0.4314 -0.0144 -0.1807
 3265TIP3    H131210   4.362   0.888   1.647 -0.8247 -0.0828 -0.2809
 3265TIP3    H231211   4.322   0.900   1.502 -0.5053 -0.4929 -0.4065
 3266TIP3   OH231212   5.549   6.074   4.538  0.3994  0.4384 -0.3846
 3266TIP3    H131213   5.521   6.133   4.608  1.3714 -0.9443  1.2313
 3266TIP3    H231214   5.477   6.012   4.528 -0.9532  2.2115 -2.5998
 3267TIP3   OH231215   3.403   0.807   1.608 -0.2505  0.4696 -0.7272
 3267TIP3    H131216   3.380   0.718   1.635 -3.2257  0.5284 -2.6490
 3267TIP3    H231217   3.473   0.795   1.544  1.1991 -0.2062  0.8830
 3268TIP3   OH231218   5.859   1.051  12.570 -0.0778 -0.0562  0.6605
 3268TIP3    H131219   5.785   1.011  12.616 -0.0795 -1.2187 -0.2868
 3268TIP3    H231220   5.904   0.976  12.529  1.2787  0.6883  0.7315
 3269TIP3   OH231221   1.245   1.128   0.526 -0.2146  0.2934 -0.0137
 3269TIP3    H131222   1.261   1.037   0.502 -0.8499  0.0001  0.6394
 3269TIP3    H231223   1.156   1.146   0.494 -0.4001  0.4282  0.5554
 3270TIP3   OH231224   3.172   3.293   5.595  0.4880  0.2955  0.0090
 3270TIP3    H131225   3.171   3.301   5.691  1.0637 -1.0569  0.1614
 3270TIP3    H231226   3.205   3.205   5.580 -1.2097 -0.1550 -1.4114
 3271TIP3   OH231227   2.266   5.253   4.472  0.2135  0.1133  0.1468
 3271TIP3    H131228   2.254   5.258   4.377  0.7666  0.8848  0.1037
 3271TIP3    H231229   2.347   5.302   4.488  0.1369 -0.0345  1.0125
 3272TIP3   OH231230   3.550   2.129  14.396  0.3049  0.3661  0.0089
 3272TIP3    H131231   3.552   2.225  14.399  0.0540  0.3678  0.1527
 3272TIP3    H231232   3.569   2.107  14.305 -0.3267  0.5715 -0.1703
 3273TIP3   OH231233   3.481   0.527  16.363  0.2847  0.4062  0.1436
 3273TIP3    H131234   3.417   0.595  16.342 -0.0238 -0.4452 -1.8931
 3273TIP3    H231235   3.553   0.574  16.404 -1.0428  1.5660  1.2862
 3274TIP3   OH231236   4.972   2.022   1.630  0.2299  0.1532  0.3409
 3274TIP3    H131237   4.945   2.110   1.602 -0.7347 -0.0764  0.5178
 3274TIP3    H231238   4.930   1.963   1.567 -2.0812 -0.3845  2.2267
 3275TIP3   OH231239   5.463   6.672  14.685 -0.7764  0.1259 -0.0097
 3275TIP3    H131240   5.449   6.766  14.696 -0.7370  0.1434 -0.1025
 3275TIP3    H231241   5.377   6.633  14.700 -0.7140  0.1437  0.3881
 3276TIP3   OH231242   4.809   4.772   2.924 -0.4902  1.2137 -0.2026
 3276TIP3    H131243   4.763   4.850   2.891 -2.1532  0.6676  0.7316
 3276TIP3    H231244   4.803   4.780   3.019 -0.5333  0.0401 -0.0954
 3277TIP3   OH231245   6.780   3.788   1.108  0.1749  0.4677 -0.2360
 3277TIP3    H131246   6.839   3.720   1.140  0.6630 -0.1697 -2.3177
 3277TIP3    H231247   6.777   3.853   1.178  0.6657 -1.0910  1.3046
 3278TIP3   OH231248   2.015   6.614  11.799  0.1319  0.1385  0.2605
 3278TIP3    H131249   2.054   6.662  11.726  0.0253 -0.0239  0.0986
 3278TIP3    H231250   2.082   6.551  11.826  0.0708  0.0195  0.1336
 3279TIP3   OH231251   0.980   6.029   6.207  0.0334  0.6320 -0.5219
 3279TIP3    H131252   1.046   6.097   6.218 -0.6403  1.3857 -1.0931
 3279TIP3    H231253   0.946   6.014   6.295  0.9642  0.2220 -0.2163
 3280TIP3   OH231254   2.406   4.348   6.694 -0.7152  0.6366  0.6211
 3280TIP3    H131255   2.489   4.391   6.673 -0.6740  0.2723  0.0067
 3280TIP3    H231256   2.425   4.254   6.684 -1.3420  0.5772 -0.0682
 3281TIP3   OH231257   5.022   6.597  11.880  0.0337  0.5777 -0.2582
 3281TIP3    H131258   5.025   6.509  11.918 -1.4016  0.7237  0.2409
 3281TIP3    H231259   4.945   6.638  11.920  0.0176  1.6640 -1.3502
 3282TIP3   OH231260   1.011   3.792   4.963  0.1095 -0.7507  0.1249
 3282TIP3    H131261   0.986   3.879   4.993  1.1227 -0.4084  0.0221
 3282TIP3    H231262   1.074   3.761   5.027  0.3506 -1.0803 -0.2626
 3283TIP3   OH231263   6.757   6.110   1.375  0.3838  0.3535 -0.3542
 3283TIP3    H131264   6.677   6.127   1.423  0.0484  0.7850 -1.0536
 3283TIP3    H231265   6.777   6.018   1.394 -0.1291  0.3186  0.0343
 3284TIP3   OH231266   3.581   1.102   0.795 -0.0738  0.0511 -0.2876
 3284TIP3    H131267   3.504   1.151   0.822 -0.2679 -0.0464 -0.6531
 3284TIP3    H231268   3.550   1.046   0.724  0.5706  0.8584 -1.2486
 3285TIP3   OH231269   6.246   0.557   5.686  0.4299  0.2250  1.0798
 3285TIP3    H131270   6.341   0.550   5.698  0.7436  2.6330  0.6251
 3285TIP3    H231271   6.210   0.481   5.731  2.5723 -0.7518  1.2642
 3286TIP3   OH231272   3.565   0.398   4.394  0.1713  0.0858  0.1940
 3286TIP3    H131273   3.499   0.382   4.326  0.7455 -0.9515 -0.1473
 3286TIP3    H231274   3.632   0.332   4.377  0.7038  0.3299  1.2924
 3287TIP3   OH231275   4.160   2.194   1.453  0.5084 -0.2716 -0.8212
 3287TIP3    H131276   4.234   2.146   1.416  1.9342 -0.9000  2.4561
 3287TIP3    H231277   4.092   2.128   1.464  1.7136 -1.2408  1.6930
 3288TIP3   OH231278   3.470   2.994   3.011  0.2160  0.1895 -0.3748
 3288TIP3    H131279   3.526   2.922   3.038  1.9455  2.0349  1.3257
 3288TIP3    H231280   3.437   3.031   3.094 -0.2263  1.6325 -1.1571
 3289TIP3   OH231281   6.282   0.193  16.512 -0.0169 -0.0802  0.1785
 3289TIP3    H131282   6.296   0.127  16.445 -0.0844 -1.7720  1.7443
 3289TIP3    H231283   6.345   0.263  16.491  0.0706 -0.6409 -1.5017
 3290TIP3   OH231284   2.184   4.860  14.042 -0.1139  0.0933  0.3485
 3290TIP3    H131285   2.197   4.891  14.131  1.0760 -0.3569  0.3431
 3290TIP3    H231286   2.158   4.768  14.052  0.9219 -0.2209  0.2076
 3291TIP3   OH231287   3.846   4.018  15.823  0.1179  0.0340 -0.0772
 3291TIP3    H131288   3.817   4.109  15.823  0.4688  0.1548 -0.6730
 3291TIP3    H231289   3.849   3.993  15.915 -2.9886 -0.3477  0.0034
 3292TIP3   OH231290   4.285   6.021  13.653 -0.0184 -0.1339 -0.0363
 3292TIP3    H131291   4.315   6.033  13.743  0.8513  0.6438 -0.4112
 3292TIP3    H231292   4.308   5.930  13.632 -1.7471 -0.8825  1.0464
 3293TIP3   OH231293   4.516   3.320  13.652  0.4186  0.1731 -0.3690
 3293TIP3    H131294   4.608   3.340  13.672  0.2556  1.9715 -1.1849
 3293TIP3    H231295   4.503   3.231  13.684  2.4576 -0.1337 -0.2559
 3294TIP3   OH231296   4.461   3.827   1.620 -0.7126  0.2177  0.1182
 3294TIP3    H131297   4.422   3.829   1.532 -1.4374 -1.0037  0.4025
 3294TIP3    H231298   4.401   3.879   1.674 -1.7575 -1.2821  0.4561
 3295TIP3   OH231299   5.845   4.622   1.856  0.6901 -0.1440  0.1793
 3295TIP3    H131300   5.835   4.690   1.789 -1.0903 -1.0700 -0.5691
 3295TIP3    H231301   5.939   4.620   1.874  0.8883  1.9699 -0.3222
 3296TIP3   OH231302   2.519   1.932  10.863 -0.1638 -0.7872  0.0388
 3296TIP3    H131303   2.593   1.943  10.803 -0.6292 -0.2808 -0.4508
 3296TIP3    H231304   2.540   1.853  10.912  0.8306 -0.4968  0.0925
 3297TIP3   OH231305   2.727   1.669   3.764  0.2718  0.2316 -0.2467
 3297TIP3    H131306   2.680   1.606   3.710 -0.2643  0.1140  0.3409
 3297TIP3    H231307   2.684   1.663   3.850  1.3521  0.1314  0.3036
 3298TIP3   OH231308   0.671   3.137  11.903  0.6515 -0.3206 -0.2729
 3298TIP3    H131309   0.744   3.125  11.964  0.2284  1.8159  0.7188
 3298TIP3    H231310   0.595   3.102  11.949  0.8275 -1.6832 -0.9381
 3299TIP3   OH231311   2.587   5.669  16.441  0.3907  0.7329 -0.4188
 3299TIP3    H131312   2.595   5.738  16.507  0.1343  1.0512 -0.7141
 3299TIP3    H231313   2.606   5.588  16.488 -0.2143  0.9115  0.1453
 3300TIP3   OH231314   2.728   5.723   1.860 -0.5286 -0.2826  0.5014
 3300TIP3    H131315   2.645   5.758   1.892  0.9009 -0.1003  4.5450
 3300TIP3    H231316   2.718   5.628   1.866 -0.1771 -0.2515  2.0299
 3301TIP3   OH231317   0.160   6.658   1.940  0.1014 -0.0557  0.0802
 3301TIP3    H131318   0.083   6.650   1.884  0.2102  0.4442 -0.1510
 3301TIP3    H231319   0.202   6.739   1.911  0.8239 -0.4242  0.0707
 3302TIP3   OH231320   3.162   6.450   1.033  0.5532 -0.7410  0.0153
 3302TIP3    H131321   3.162   6.462   0.938 -1.2920 -0.1054  0.0458
 3302TIP3    H231322   3.187   6.535   1.068 -0.6189 -0.4033  0.0887
 3303TIP3   OH231323   3.677   5.888   0.035  0.1144  0.6693  0.2040
 3303TIP3    H131324   3.658   5.946  -0.039  0.9722  0.4339 -0.2125
 3303TIP3    H231325   3.591   5.864   0.069 -0.4317 -1.0761 -2.1801
 3304TIP3   OH231326   6.722   0.145  14.131  0.4286  0.0964  0.4552
 3304TIP3    H131327   6.723   0.050  14.124  0.8517  0.1604 -0.4564
 3304TIP3    H231328   6.812   0.171  14.110 -0.1863  0.8312 -1.4277
 3305TIP3   OH231329   1.279   6.018  11.564  0.7742 -0.1864 -0.8270
 3305TIP3    H131330   1.188   6.047  11.569  0.5781 -0.6621 -1.5261
 3305TIP3    H231331   1.328   6.097  11.542  0.4759 -0.0148 -0.8874
 3306TIP3   OH231332   2.188   0.388   4.793  0.2448 -0.1709 -0.1881
 3306TIP3    H131333   2.139   0.468   4.773  0.6961  0.5217  1.2684
 3306TIP3    H231334   2.231   0.407   4.877  3.3588 -0.5791 -1.5455
 3307TIP3   OH231335   5.011   2.593  14.917  0.1064 -0.6915  0.3262
 3307TIP3    H131336   5.066   2.534  14.969 -1.6928 -1.7250  1.1307
 3307TIP3    H231337   5.066   2.616  14.842  1.3569 -2.2914  0.6934
 3308TIP3   OH231338   3.244   0.938  10.848 -0.7020  0.3931 -0.0559
 3308TIP3    H131339   3.311   0.972  10.789 -0.6033 -0.9806 -0.7975
 3308TIP3    H231340   3.279   0.854  10.878 -0.5838  1.2235  2.3173
 3309TIP3   OH231341   2.192   2.609   0.752 -0.4933  0.0270 -0.3309
 3309TIP3    H131342   2.162   2.611   0.661 -0.1028 -1.1433 -0.4989
 3309TIP3    H231343   2.114   2.588   0.803 -0.3002 -1.5753 -0.6314
 3310TIP3   OH231344   0.283   0.655  14.622  0.2196  0.1460  0.3497
 3310TIP3    H131345   0.336   0.593  14.673 -0.6593 -0.4228  0.5886
 3310TIP3    H231346   0.201   0.662  14.670  0.0726  1.0356 -0.0096
 3311TIP3   OH231347   6.233   5.211  15.153 -0.2763 -0.3945  0.5538
 3311TIP3    H131348   6.223   5.173  15.240  0.0757 -0.3487  0.6178
 3311TIP3    H231349   6.177   5.158  15.097 -2.0862  0.8121  1.1568
 3312TIP3   OH231350   2.763   4.783  14.144 -0.0045 -0.1071  0.7634
 3312TIP3    H131351   2.743   4.860  14.090  1.4938  0.7076  1.3097
 3312TIP3    H231352   2.858   4.772  14.135  0.2548 -0.0821  3.0647
 3313TIP3   OH231353   2.539   4.331  14.257 -0.5563  0.3334 -0.0786
 3313TIP3    H131354   2.495   4.394  14.314 -0.3278  0.8090 -0.4232
 3313TIP3    H231355   2.601   4.383  14.207  1.0724 -0.4447  1.0310
 3314TIP3   OH231356   5.196   4.115  14.653 -0.5584  0.1687  0.3420
 3314TIP3    H131357   5.195   4.189  14.592 -1.1464 -0.3390 -0.2876
 3314TIP3    H231358   5.111   4.072  14.639  0.1947 -1.2414 -0.0863
 3315TIP3   OH231359   5.401   3.843  15.027  0.1511  0.0010  0.2232
 3315TIP3    H131360   5.493   3.843  15.002  0.4195  3.0870  0.8538
 3315TIP3    H231361   5.356   3.887  14.955 -0.1777  2.0933  1.6229
 3316TIP3   OH231362   3.641   1.000  13.250  0.5827 -0.2984  0.3358
 3316TIP3    H131363   3.701   0.962  13.315 -0.3560 -2.3069  0.0984
 3316TIP3    H231364   3.640   1.094  13.271  3.3356 -0.2561  0.6978
 3317TIP3   OH231365   1.543   6.155  15.030  0.2292 -0.5367 -0.4427
 3317TIP3    H131366   1.586   6.240  15.041 -0.4082 -0.1903 -0.5928
 3317TIP3    H231367   1.583   6.119  14.951  1.8611 -1.2282  0.6315
 3318TIP3   OH231368   1.654   2.834  15.267 -0.2585  0.2816  0.0922
 3318TIP3    H131369   1.717   2.879  15.323  0.5479  0.0120 -0.5657
 3318TIP3    H231370   1.569   2.850  15.308  0.4008 -0.8510  2.0086
 3319TIP3   OH231371   6.212   6.273   1.175  0.6601 -0.0771 -0.0308
 3319TIP3    H131372   6.185   6.363   1.154 -0.8026 -0.2475  0.9612
 3319TIP3    H231373   6.284   6.255   1.115  0.8563  1.6907 -0.3782
 3320TIP3   OH231374   0.814   0.982  16.680 -0.3112 -0.0567  0.5125
 3320TIP3    H131375   0.796   0.990  16.586  0.3939  2.5478  0.5192
 3320TIP3    H231376   0.903   1.015  16.690 -0.7341  0.6780  2.2304
 3321TIP3   OH231377   1.964   1.777   1.575  0.0249 -0.0497  0.1962
 3321TIP3    H131378   1.946   1.843   1.642 -0.3431  1.2228 -1.1109
 3321TIP3    H231379   2.014   1.709   1.621 -2.0479 -0.2987  2.2684
 3322TIP3   OH231380   1.481   5.525  12.598  0.1537 -0.2361  0.0407
 3322TIP3    H131381   1.446   5.440  12.624  0.2525 -1.1562 -2.5224
 3322TIP3    H231382   1.566   5.531  12.641 -0.2055 -1.0704  0.8785
 3323TIP3   OH231383   5.453   2.659   4.883  0.0391 -0.2771  0.1839
 3323TIP3    H131384   5.505   2.724   4.929  0.0296 -2.0041  2.8443
 3323TIP3    H231385   5.363   2.690   4.890  0.2500  0.6460 -0.8357
 3324TIP3   OH231386   3.196   3.549  16.246 -0.0944 -0.0543  0.1245
 3324TIP3    H131387   3.142   3.471  16.230 -0.8942  0.2977  1.0030
 3324TIP3    H231388   3.286   3.518  16.234 -0.2978 -1.4884  1.7586
 3325TIP3   OH231389   3.391   3.143   6.783  0.3082  0.6132  0.1229
 3325TIP3    H131390   3.471   3.108   6.822 -0.9194 -0.4907  1.7700
 3325TIP3    H231391   3.382   3.098   6.699  1.7990  1.3557 -0.4710
 3326TIP3   OH231392   1.990   0.214   1.455 -0.3765 -0.1774 -0.7535
 3326TIP3    H131393   1.945   0.196   1.537 -1.0263  1.6663 -0.6598
 3326TIP3    H231394   2.060   0.149   1.451 -0.0453 -0.0281  1.4826
 3327TIP3   OH231395   2.359   0.711   4.805  0.0153  0.3856 -0.5910
 3327TIP3    H131396   2.405   0.791   4.830  0.3905  0.1125 -0.4061
 3327TIP3    H231397   2.401   0.684   4.723  1.7749 -1.1196  0.7210
 3328TIP3   OH231398   3.187   5.661  14.027  0.2393  0.1461  0.0464
 3328TIP3    H131399   3.204   5.639  13.935  0.6062  1.5351 -0.2465
 3328TIP3    H231400   3.157   5.752  14.024  1.2724  0.5592  1.3861
 3329TIP3   OH231401   1.480   6.417   0.063  0.4076  0.1708 -0.1123
 3329TIP3    H131402   1.518   6.343   0.017 -0.1087 -1.3505  1.7992
 3329TIP3    H231403   1.531   6.425   0.143  1.6283  3.0928 -1.0255
 3330TIP3   OH231404   3.948   1.258   2.708  0.4719  0.0364 -0.3617
 3330TIP3    H131405   3.861   1.267   2.670  0.6427  0.3350 -0.6786
 3330TIP3    H231406   3.934   1.262   2.803 -0.1547 -2.2338 -0.2895
 3331TIP3   OH231407   0.458   0.116   2.847  0.1568  0.0146  0.1783
 3331TIP3    H131408   0.439   0.128   2.940  0.7686  0.9741  0.1876
 3331TIP3    H231409   0.411   0.036   2.824  1.3185 -1.1434  1.6814
 3332TIP3   OH231410   4.068   1.863  14.573 -0.2167  0.1498 -0.4969
 3332TIP3    H131411   4.031   1.916  14.643 -0.6940  0.0899 -0.7009
 3332TIP3    H231412   4.148   1.827  14.610  0.7776  1.9758 -0.7522
 3333TIP3   OH231413   0.703   1.779  11.959 -0.3423  0.4390  0.9993
 3333TIP3    H131414   0.754   1.740  11.888  1.0907  1.6372  1.3119
 3333TIP3    H231415   0.625   1.814  11.916  0.2130  0.6079  0.1021
 3334TIP3   OH231416   0.769   4.423  14.476 -0.3004  0.3882  0.1316
 3334TIP3    H131417   0.800   4.504  14.436  1.4402  0.3580  1.2686
 3334TIP3    H231418   0.849   4.371  14.488 -1.2629 -1.1387  0.2279
 3335TIP3   OH231419   5.061   5.258  13.639  0.4201 -0.3623 -0.1112
 3335TIP3    H131420   4.977   5.214  13.649 -0.0976  0.2297 -1.6372
 3335TIP3    H231421   5.045   5.347  13.672  0.5798 -0.3900  0.0405
 3336TIP3   OH231422   5.148   0.617  15.681 -0.2439 -0.1404 -0.8491
 3336TIP3    H131423   5.236   0.578  15.681  0.3722  1.1744 -0.1652
 3336TIP3    H231424   5.146   0.671  15.602  0.1444  1.0165 -0.0934
 3337TIP3   OH231425   3.806   6.175  15.179  0.3310  0.2066 -0.3059
 3337TIP3    H131426   3.850   6.236  15.120  1.3253  1.0244  1.1902
 3337TIP3    H231427   3.861   6.175  15.258  1.2095 -3.7664 -0.7275
 3338TIP3   OH231428   6.576   6.315  15.042 -0.0235  0.0432 -0.1052
 3338TIP3    H131429   6.648   6.252  15.049  0.6495  0.9778  2.0232
 3338TIP3    H231430   6.566   6.351  15.130 -1.9667  1.2055 -0.7382
 3339TIP3   OH231431   3.836   2.526   4.720 -0.1188 -0.2401  0.4415
 3339TIP3    H131432   3.917   2.491   4.682  0.3576  0.1366  1.0779
 3339TIP3    H231433   3.788   2.562   4.645  1.2349  1.3512  0.2702
 3340TIP3   OH231434   5.053   3.466   4.853 -0.3265 -0.0002  0.5198
 3340TIP3    H131435   4.978   3.465   4.912 -0.6188  2.3246  0.2563
 3340TIP3    H231436   5.021   3.509   4.774  0.8921 -0.3333 -0.1808
 3341TIP3   OH231437   0.741   3.320   3.590 -0.6478 -0.2692 -0.9091
 3341TIP3    H131438   0.778   3.369   3.664  0.0347  0.8840 -1.9874
 3341TIP3    H231439   0.816   3.298   3.535 -0.5677 -4.4443  0.4846
 3342TIP3   OH231440   4.271   3.488   0.500 -0.4098  0.2470  0.0146
 3342TIP3    H131441   4.350   3.444   0.531 -1.0183 -1.9032 -1.3216
 3342TIP3    H231442   4.213   3.487   0.576  0.4325  0.9174  0.6962
 3343TIP3   OH231443   6.772   4.286  13.300  0.1350 -0.3017 -0.0162
 3343TIP3    H131444   6.853   4.294  13.251  0.4938  1.7461  0.8349
 3343TIP3    H231445   6.724   4.216  13.255  0.9547  0.6504 -2.5240
 3344TIP3   OH231446   0.362   0.954  13.419  0.5199 -0.1610  0.5057
 3344TIP3    H131447   0.371   1.047  13.440 -0.7686  0.1246 -0.1060
 3344TIP3    H231448   0.383   0.948  13.325  1.3420 -0.6220  0.7067
 3345TIP3   OH231449   2.063   1.404  13.874 -0.4725  0.6400  0.1650
 3345TIP3    H131450   1.994   1.450  13.922 -1.7883  0.8297 -1.7889
 3345TIP3    H231451   2.052   1.433  13.783  0.5705 -1.2577 -0.6192
 3346TIP3   OH231452   4.013   1.565   3.444 -0.0635 -0.1604  0.0660
 3346TIP3    H131453   3.931   1.613   3.448  0.3079  0.5812 -0.9922
 3346TIP3    H231454   4.072   1.614   3.502  0.1164  0.2996 -0.4914
 3347TIP3   OH231455   2.059   6.717  15.108 -0.0600  0.3657  0.4615
 3347TIP3    H131456   2.143   6.755  15.084  0.2497 -0.5625  0.0242
 3347TIP3    H231457   2.006   6.725  15.029  1.1056 -3.1016 -0.8679
 3348TIP3   OH231458   6.680   6.173   6.197 -0.0949  0.1634 -0.2446
 3348TIP3    H131459   6.693   6.220   6.279  1.8711 -0.1740 -0.3156
 3348TIP3    H231460   6.731   6.092   6.207 -0.8272 -0.4664 -1.3346
 3349TIP3   OH231461   4.276   4.082   0.276  0.1808  0.5437  0.6502
 3349TIP3    H131462   4.313   4.125   0.353 -0.1428  1.1708  0.4628
 3349TIP3    H231463   4.182   4.074   0.295 -0.2465  2.3871 -0.4169
 3350TIP3   OH231464   2.092   1.098  14.947 -0.4243 -0.2368  0.1617
 3350TIP3    H131465   2.119   1.011  14.977  0.0987 -0.1599 -0.0797
 3350TIP3    H231466   2.090   1.151  15.026  1.2416  0.0412  0.0491
 3351TIP3   OH231467   3.505   3.504  12.849  0.0922 -0.8651 -0.0873
 3351TIP3    H131468   3.566   3.488  12.777  3.3428  2.8504  1.5029
 3351TIP3    H231469   3.450   3.576  12.818  0.0227 -0.7363  0.3310
 3352TIP3   OH231470   4.995   0.161   3.202  0.3228  1.3211 -0.5184
 3352TIP3    H131471   5.035   0.238   3.161  1.8512  0.5500 -0.5437
 3352TIP3    H231472   4.937   0.197   3.269 -0.8938  2.5618 -2.1389
 3353TIP3   OH231473   5.016   5.969  14.468 -0.2679 -0.4574  0.0324
 3353TIP3    H131474   5.028   5.889  14.417 -0.7229 -0.1913 -0.4948
 3353TIP3    H231475   4.924   5.967  14.495 -0.2407 -0.1912  0.1499
 3354TIP3   OH231476   2.926   3.397   0.540 -0.0689 -0.2029 -0.2731
 3354TIP3    H131477   2.993   3.463   0.555  0.5224 -0.7520 -0.4488
 3354TIP3    H231478   2.873   3.397   0.620  0.6550 -0.3471  0.2161
 3355TIP3   OH231479   5.120   5.777   5.029  0.0046 -0.1204  0.3996
 3355TIP3    H131480   5.100   5.818   5.113 -1.0867 -0.0346  0.1257
 3355TIP3    H231481   5.199   5.820   4.998 -0.1302  0.5277  0.9451
 3356TIP3   OH231482   3.230   2.306  12.839  0.2224  0.2048  0.6140
 3356TIP3    H131483   3.276   2.336  12.761  0.4869 -1.0993  0.2429
 3356TIP3    H231484   3.290   2.242  12.878 -0.7031 -0.5390  0.8503
 3357TIP3   OH231485   6.496   2.528  10.578  0.3165 -0.0457 -0.0682
 3357TIP3    H131486   6.456   2.556  10.495  0.5116 -0.4945 -0.3164
 3357TIP3    H231487   6.422   2.499  10.631  0.1982  0.1718 -0.1123
 3358TIP3   OH231488   0.333   0.594  15.312  0.7949  0.0562 -0.1443
 3358TIP3    H131489   0.259   0.533  15.322 -0.2454  1.2001 -0.6719
 3358TIP3    H231490   0.365   0.607  15.401  0.1335 -0.1709  0.1345
 3359TIP3   OH231491   0.522   1.737   4.601 -0.5254 -0.0162 -0.5369
 3359TIP3    H131492   0.509   1.794   4.525 -0.0922 -1.2022 -1.5419
 3359TIP3    H231493   0.545   1.796   4.672 -3.0433  1.3701 -0.7504
 3360TIP3   OH231494   1.929   0.062  13.676  0.4439 -0.1966  0.3600
 3360TIP3    H131495   1.891   0.063  13.589 -3.4898 -2.8878  1.7739
 3360TIP3    H231496   2.006   0.006  13.668 -1.0581 -2.1865 -1.0795
 3361TIP3   OH231497   2.429   3.166  12.216  0.0965 -0.8297 -0.0540
 3361TIP3    H131498   2.353   3.222  12.203  0.3396 -0.3093  0.6988
 3361TIP3    H231499   2.432   3.110  12.138 -0.7222 -0.4727 -0.3475
 3362TIP3   OH231500   2.122   0.311  12.105  0.6876 -0.1948  0.0468
 3362TIP3    H131501   2.166   0.385  12.146  1.4937 -0.5989 -0.0785
 3362TIP3    H231502   2.114   0.336  12.013  0.3526  0.0182  0.1325
 3363TIP3   OH231503   4.146   4.206   0.975 -0.0265 -0.5801  0.1765
 3363TIP3    H131504   4.067   4.181   1.023  0.7638 -0.1906  1.7590
 3363TIP3    H231505   4.218   4.172   1.029  0.9636  1.6662  0.3689
 3364TIP3   OH231506   6.065   2.563  13.384 -0.3076  0.6271 -0.2631
 3364TIP3    H131507   6.132   2.496  13.395 -1.2320 -0.6533 -1.9638
 3364TIP3    H231508   5.985   2.523  13.419 -1.4612 -0.3207 -3.6184
 3365TIP3   OH231509   6.231   2.178  14.798 -0.3763 -0.0903  0.2194
 3365TIP3    H131510   6.209   2.271  14.805  0.0588  0.0023  0.3529
 3365TIP3    H231511   6.153   2.139  14.758 -0.9412  0.1692  1.0284
 3366TIP3   OH231512   0.939   0.110   1.744  0.3375 -0.7547 -0.3508
 3366TIP3    H131513   0.846   0.112   1.720 -0.4343 -1.4912  2.1744
 3366TIP3    H231514   0.944   0.170   1.819  2.5543  1.5568 -2.2048
 3367TIP3   OH231515   1.886   0.882   2.914  0.0231 -0.7023  0.6785
 3367TIP3    H131516   1.864   0.971   2.887 -0.4177 -1.5313 -1.9593
 3367TIP3    H231517   1.889   0.886   3.009  0.6407  2.2711  0.6355
 3368TIP3   OH231518   5.279   5.427   0.987 -0.2080  0.0805 -0.3650
 3368TIP3    H131519   5.250   5.507   0.943 -0.6833 -0.7865 -1.6862
 3368TIP3    H231520   5.375   5.432   0.983 -0.2240 -0.2884 -2.1792
 3369TIP3   OH231521   5.379   6.682   3.760  0.1894 -0.2150 -0.1710
 3369TIP3    H131522   5.300   6.635   3.734  0.0610  0.2583 -0.6410
 3369TIP3    H231523   5.438   6.614   3.793 -0.5100 -0.5377  0.4248
 3370TIP3   OH231524   2.072   1.152   1.625  0.3550 -0.1438 -0.3427
 3370TIP3    H131525   2.028   1.093   1.565  0.8152 -0.0944 -0.7290
 3370TIP3    H231526   2.059   1.239   1.587 -0.3227  0.0115  0.2231
 3371TIP3   OH231527   2.278   1.387  10.999  0.3459 -0.0231  0.5004
 3371TIP3    H131528   2.193   1.430  11.010 -2.0389 -4.1760  0.4956
 3371TIP3    H231529   2.342   1.457  11.008 -3.0008  3.2409  1.3599
 3372TIP3   OH231530   4.462   1.389   0.595 -0.4499  0.1268 -0.0396
 3372TIP3    H131531   4.490   1.430   0.513 -0.8483 -1.7381 -1.1567
 3372TIP3    H231532   4.401   1.451   0.633  1.5701  2.1561  0.1163
 3373TIP3   OH231533   3.738   4.900   2.791  0.3556  0.5564 -0.2859
 3373TIP3    H131534   3.689   4.850   2.857  0.7939 -1.8551 -1.6400
 3373TIP3    H231535   3.735   4.990   2.822 -3.0698  0.2049  0.8032
 3374TIP3   OH231536   1.422   4.023  13.684 -0.5981  0.4046  0.3818
 3374TIP3    H131537   1.363   3.991  13.616 -0.9879 -0.7320  1.2307
 3374TIP3    H231538   1.499   3.966  13.677 -1.0539 -0.3774  1.5240
 3375TIP3   OH231539   6.087   1.207  12.332 -0.8751 -0.6591  0.1664
 3375TIP3    H131540   6.091   1.199  12.237 -2.2946  4.7935 -0.6813
 3375TIP3    H231541   6.169   1.252  12.356 -1.6109  0.2617  1.0632
 3376TIP3   OH231542   5.069   0.601   2.204  0.1066  0.0422  0.2271
 3376TIP3    H131543   5.096   0.625   2.293 -1.6657 -0.3524  0.8999
 3376TIP3    H231544   5.102   0.672   2.149 -0.3520  1.2319  1.4462
 3377TIP3   OH231545   6.786   4.651   4.667  0.1193  0.4630  0.2594
 3377TIP3    H131546   6.702   4.662   4.622 -1.6703 -0.5955  3.0792
 3377TIP3    H231547   6.821   4.570   4.631 -0.7091  0.2266 -0.0483
 3378TIP3   OH231548   6.547   2.417  12.963 -0.1330  0.1052 -0.4564
 3378TIP3    H131549   6.534   2.323  12.980 -2.1411  0.4138 -0.0449
 3378TIP3    H231550   6.622   2.420  12.904  0.2770 -1.7256 -0.1146
 3379TIP3   OH231551   1.183   2.984  14.407 -0.2898 -0.0028  0.0702
 3379TIP3    H131552   1.274   2.955  14.407 -0.2882 -0.2079  2.3595
 3379TIP3    H231553   1.146   2.948  14.327  1.3716 -0.8033 -0.3844
 3380TIP3   OH231554   5.373   4.334  13.163 -0.0611  0.6850  0.1636
 3380TIP3    H131555   5.460   4.306  13.134 -0.0319 -0.9049  1.6047
 3380TIP3    H231556   5.339   4.258  13.212 -1.4590  1.9785  1.2927
 3381TIP3   OH231557   2.983   0.034  10.824  0.0989  0.3429  0.2817
 3381TIP3    H131558   2.934  -0.044  10.795  0.4250  1.0784 -2.5849
 3381TIP3    H231559   3.068   0.026  10.781  0.3373  1.9904  0.3966
 3382TIP3   OH231560   2.908   4.581   3.180 -0.6371 -0.2236  0.6362
 3382TIP3    H131561   2.929   4.527   3.256  2.3772 -1.2356 -0.7511
 3382TIP3    H231562   2.943   4.533   3.105 -1.6733  1.6641 -1.1831
 3383TIP3   OH231563   6.363   2.350  16.120  0.6749  0.9453  0.6372
 3383TIP3    H131564   6.406   2.402  16.188  1.4279 -0.6432  1.4394
 3383TIP3    H231565   6.303   2.293  16.167  2.9526 -1.9393  0.3913
 3384TIP3   OH231566   5.485   1.887  13.328 -0.1266  0.0980 -0.2394
 3384TIP3    H131567   5.448   1.800  13.319  0.9979 -0.3252 -1.0918
 3384TIP3    H231568   5.412   1.942  13.355 -1.1505 -0.8674 -0.9428
 3385TIP3   OH231569   4.208   4.670  15.027  0.4197  0.4590 -0.1072
 3385TIP3    H131570   4.271   4.741  15.041 -0.2608  1.0114  0.1998
 3385TIP3    H231571   4.127   4.700  15.069 -0.0536 -0.2413 -0.4862
 3386TIP3   OH231572   0.774   1.133  12.153  0.1034 -0.0524 -0.0050
 3386TIP3    H131573   0.737   1.058  12.106 -3.0695  1.5764 -0.3870
 3386TIP3    H231574   0.759   1.112  12.246  0.3132 -0.3919 -0.0464
 3387TIP3   OH231575   2.651   0.809  14.511 -0.4896 -0.3393  0.0196
 3387TIP3    H131576   2.564   0.846  14.495 -0.6831 -0.3279  1.0210
 3387TIP3    H231577   2.647   0.720  14.476 -1.7290 -1.2162  2.2189
 3388TIP3   OH231578   1.224   3.698  13.363  0.2602 -0.5947  0.2962
 3388TIP3    H131579   1.311   3.658  13.357 -0.4217 -2.1140  0.0637
 3388TIP3    H231580   1.210   3.736  13.276 -0.3842 -2.7677 -0.6210
 3389TIP3   OH231581   5.752   5.357  16.547  0.3676  0.0658  0.1630
 3389TIP3    H131582   5.830   5.390  16.591  1.1733  0.1285 -1.2569
 3389TIP3    H231583   5.764   5.262  16.543 -0.1021 -0.0264  0.8020
 3390TIP3   OH231584   6.536   1.057  15.730  0.2634 -0.3683 -0.0496
 3390TIP3    H131585   6.598   1.024  15.795  2.2483  1.2366 -0.9882
 3390TIP3    H231586   6.512   0.980  15.679  0.5662 -1.2333  1.0679
 3391TIP3   OH231587   2.043   4.432  15.812  0.4028 -0.6367  0.1247
 3391TIP3    H131588   1.967   4.489  15.816  1.0590  0.2760 -0.0979
 3391TIP3    H231589   2.118   4.491  15.816  1.1313 -1.5761  1.8574
 3392TIP3   OH231590   6.291   0.196  16.782  0.3380 -0.0543  0.3106
 3392TIP3    H131591   6.287   0.203  16.686 -0.6681 -1.9272  0.1824
 3392TIP3    H231592   6.357   0.129  16.798  0.0291 -0.2167  0.9122
 3393TIP3   OH231593   4.952   3.265  12.775 -0.7855  0.0177  0.4752
 3393TIP3    H131594   4.957   3.339  12.835  0.3652 -0.0644  0.5044
 3393TIP3    H231595   5.013   3.201  12.810 -0.4286 -0.2157 -0.5362
 3394TIP3   OH231596   3.645   0.269  11.801 -0.6207  0.1850 -0.3122
 3394TIP3    H131597   3.565   0.291  11.849 -0.9163 -0.2412 -0.6047
 3394TIP3    H231598   3.615   0.248  11.712 -0.3033 -0.9072 -0.1795
 3395TIP3   OH231599   3.107   1.629  10.226  0.0987 -0.8160  0.6741
 3395TIP3    H131600   3.026   1.675  10.206  0.5957 -0.3427 -0.3188
 3395TIP3    H231601   3.081   1.538  10.236 -0.2804 -1.0469 -1.7981
 3396TIP3   OH231602   3.121   1.465   5.935  0.2104  0.1626  0.1119
 3396TIP3    H131603   3.052   1.401   5.950 -0.4824  0.9355  0.2885
 3396TIP3    H231604   3.166   1.473   6.019 -0.2326  0.5129  0.3203
 3397TIP3   OH231605   6.266   4.386  15.391 -0.5127 -0.3316 -0.6139
 3397TIP3    H131606   6.203   4.458  15.389 -0.9890 -0.7190 -0.0371
 3397TIP3    H231607   6.310   4.389  15.306 -0.5407  0.6214 -0.6058
 3398TIP3   OH231608   3.532   4.535   6.638  0.3119 -0.0217  0.4220
 3398TIP3    H131609   3.613   4.582   6.620  0.3660 -0.3432 -0.2080
 3398TIP3    H231610   3.463   4.594   6.606  0.3736 -0.3016 -0.2577
 3399TIP3   OH231611   6.190   1.201  14.345 -0.1765  0.4243  1.0205
 3399TIP3    H131612   6.264   1.148  14.375 -1.3632 -1.7466  0.3631
 3399TIP3    H231613   6.227   1.257  14.276  0.9050 -0.4803  0.8355
 3400TIP3   OH231614   4.302   6.597  11.314  0.7353  0.3915  0.1752
 3400TIP3    H131615   4.358   6.597  11.391  0.4400 -0.6607  0.4068
 3400TIP3    H231616   4.329   6.519  11.265 -0.3848 -0.0123  0.1903
 3401TIP3   OH231617   1.404   6.718   3.122  0.4345  0.1949 -0.0192
 3401TIP3    H131618   1.458   6.688   3.195  0.8970  0.1805 -0.3678
 3401TIP3    H231619   1.318   6.735   3.161  1.0452  1.5089  0.7988
 3402TIP3   OH231620   6.743   0.475   2.720  0.0846  0.5212 -0.3652
 3402TIP3    H131621   6.770   0.460   2.629 -2.6567  1.8677 -1.5203
 3402TIP3    H231622   6.758   0.568   2.734 -0.8904  0.6399 -0.0012
 3403TIP3   OH231623   0.094   3.741   2.230 -0.1789  0.4386 -0.2302
 3403TIP3    H131624   0.101   3.822   2.180  0.5436 -0.0887 -1.0181
 3403TIP3    H231625   0.141   3.676   2.177 -2.3264 -0.9533 -0.5981
 3404TIP3   OH231626   3.526   1.093   4.281 -0.1899 -0.0286 -0.0832
 3404TIP3    H131627   3.543   1.051   4.197  1.6201 -1.6184  0.9847
 3404TIP3    H231628   3.445   1.054   4.313  0.1345 -0.8392 -0.2518
 3405TIP3   OH231629   5.018   4.090  10.811  0.1309  0.0891 -0.5646
 3405TIP3    H131630   5.094   4.031  10.811  0.3136  0.3152 -0.0199
 3405TIP3    H231631   5.051   4.170  10.852 -0.6213 -0.1043  0.4604
 3406TIP3   OH231632   0.671   0.893  13.006  0.0305  0.3370 -0.2421
 3406TIP3    H131633   0.683   0.987  13.018 -0.3755  0.3660 -0.0427
 3406TIP3    H231634   0.757   0.855  13.022  0.4900  0.7808 -1.4951
 3407TIP3   OH231635   3.023   2.826  13.232 -0.9580 -0.2358  0.4556
 3407TIP3    H131636   3.020   2.737  13.268  2.5166 -0.2396  1.0987
 3407TIP3    H231637   3.032   2.883  13.308 -0.2424  0.3679 -0.0577
 3408TIP3   OH231638   6.604   4.251  16.061  0.3427  0.6277 -0.0792
 3408TIP3    H131639   6.656   4.331  16.050  1.2962 -0.1009 -0.9534
 3408TIP3    H231640   6.554   4.244  15.980  0.9841 -0.1717 -0.4139
 3409TIP3   OH231641   2.371   1.474  16.903 -0.1595 -0.1134  0.6817
 3409TIP3    H131642   2.377   1.430  16.819  1.2426 -0.3739  0.8898
 3409TIP3    H231643   2.401   1.563  16.886 -0.3716 -0.0192  0.7970
 3410TIP3   OH231644   5.298   3.666  13.289  0.2161 -0.0670  0.0881
 3410TIP3    H131645   5.323   3.744  13.338 -3.2710  0.5969  1.0872
 3410TIP3    H231646   5.336   3.593  13.338  2.4017  0.8478 -0.1266
 3411TIP3   OH231647   5.574   3.337   4.979  0.4232  0.0665  0.2257
 3411TIP3    H131648   5.528   3.286   5.045 -0.1082  0.4059  0.1157
 3411TIP3    H231649   5.633   3.394   5.029 -1.1366  1.4952  0.5178
 3412TIP3   OH231650   6.667   3.858  10.940  0.1508  0.3273 -0.0808
 3412TIP3    H131651   6.747   3.852  10.888 -0.9193 -0.2324 -1.7578
 3412TIP3    H231652   6.646   3.952  10.941  0.9321  0.5060  0.5774
 3413TIP3   OH231653   2.594   6.474  14.470  0.1930 -0.1535  0.2295
 3413TIP3    H131654   2.662   6.434  14.416 -0.4394 -1.0333  0.0630
 3413TIP3    H231655   2.638   6.497  14.551  0.9992  0.5702 -0.3942
 3414TIP3   OH231656   5.039   1.705  11.804  0.2391 -0.3591 -0.4635
 3414TIP3    H131657   5.001   1.773  11.748 -0.8173  0.6523  1.3703
 3414TIP3    H231658   5.124   1.740  11.830 -0.4543  0.4901  0.7696
 3415TIP3   OH231659   4.423   1.533  11.875 -0.0160 -0.1419 -0.1035
 3415TIP3    H131660   4.372   1.485  11.940  1.0239  0.4322  1.1671
 3415TIP3    H231661   4.359   1.593  11.835 -0.7360 -0.7358  0.1193
 3416TIP3   OH231662   4.929   4.065   5.973 -0.6319  0.6220  0.0805
 3416TIP3    H131663   4.970   4.065   6.059 -0.6837  1.4764  0.1098
 3416TIP3    H231664   4.839   4.092   5.989 -1.0896 -0.7669 -0.0465
 3417TIP3   OH231665   3.188   1.163  10.480  0.0339  0.2139  0.5835
 3417TIP3    H131666   3.161   1.143  10.390  2.0035 -0.0573  0.0008
 3417TIP3    H231667   3.239   1.087  10.507 -0.3725  0.3775  1.8888
 3418TIP3   OH231668   6.450   2.693   5.132 -0.0100  0.1754  0.2698
 3418TIP3    H131669   6.416   2.770   5.179  0.9473  0.1423  1.0463
 3418TIP3    H231670   6.538   2.680   5.168  1.1433  0.6966 -2.1664
 3419TIP3   OH231671   6.455   1.655  16.779 -0.3358  0.1465 -0.4950
 3419TIP3    H131672   6.483   1.574  16.820 -1.3726  0.2826  0.5654
 3419TIP3    H231673   6.447   1.634  16.686  0.2492 -0.7139 -0.3625
 3420TIP3   OH231674   4.942   6.267  11.441 -0.1780 -0.2534  0.7310
 3420TIP3    H131675   4.958   6.322  11.364 -0.3607 -2.9019 -1.3459
 3420TIP3    H231676   4.950   6.327  11.515  0.3963  2.3709 -1.2925
 3421TIP3   OH231677   0.021   0.065  16.174  0.2481 -0.0190  0.0115
 3421TIP3    H131678   0.025   0.001  16.103 -0.8286 -1.2073  0.9727
 3421TIP3    H231679   0.061   0.020  16.248 -3.1910 -0.8385  1.5483
 3422TIP3   OH231680   5.826   5.418  15.779  0.0460  0.0319  0.2661
 3422TIP3    H131681   5.817   5.367  15.859 -1.8354 -1.2052 -0.6471
 3422TIP3    H231682   5.772   5.496  15.795 -1.7435 -1.0148 -0.3340
 3423TIP3   OH231683   6.417   5.121  16.973  0.0207  0.0162 -0.1988
 3423TIP3    H131684   6.432   5.028  16.960  0.6239 -0.2470  2.0534
 3423TIP3    H231685   6.395   5.154  16.885 -0.1498 -2.1988 -1.0513
 3424TIP3   OH231686   0.998   3.543   4.465  0.2519 -0.1032 -0.1835
 3424TIP3    H131687   1.057   3.617   4.473  0.0924  0.1319 -1.1061
 3424TIP3    H231688   0.945   3.562   4.388  0.9637 -1.6986 -1.1257
 3425TIP3   OH231689   2.756   5.624   2.926  0.0375 -0.0149  0.1352
 3425TIP3    H131690   2.714   5.661   2.849 -0.1223 -0.1638  0.1501
 3425TIP3    H231691   2.698   5.552   2.953 -0.3535  0.5479  0.8708
 3426TIP3   OH231692   2.328   1.418  12.962 -0.1079 -0.1614 -0.3148
 3426TIP3    H131693   2.279   1.367  12.897 -0.4203 -3.6637  2.3877
 3426TIP3    H231694   2.404   1.363  12.982  0.5046  1.2835  1.5251
 3427TIP3   OH231695   6.772   2.905   4.713  0.0622 -0.0849 -0.3591
 3427TIP3    H131696   6.810   2.857   4.640 -0.1280 -0.0308 -0.4946
 3427TIP3    H231697   6.698   2.852   4.741 -0.0270  0.0284 -0.3784
 3428TIP3   OH231698   2.560   4.182  11.685 -0.0317  0.0075 -0.5636
 3428TIP3    H131699   2.547   4.188  11.590  0.9677 -1.2562 -0.8051
 3428TIP3    H231700   2.650   4.150  11.695  0.2615  1.1621  0.8471
 3429TIP3   OH231701   5.818   0.518  15.940 -0.5232 -0.2398  0.3757
 3429TIP3    H131702   5.766   0.467  15.878  0.4853 -0.8560  0.0190
 3429TIP3    H231703   5.842   0.597  15.892  1.2401 -1.2417 -0.4593
 3430TIP3   OH231704   0.764   5.929  11.226 -0.0194 -0.0741  0.0318
 3430TIP3    H131705   0.846   5.921  11.275 -0.0107 -1.8844 -0.1972
 3430TIP3    H231706   0.781   5.997  11.161  0.5493  1.1188  1.3936
 3431TIP3   OH231707   0.329   2.546   6.033 -1.0749 -0.2948  0.3798
 3431TIP3    H131708   0.261   2.610   6.011  0.4905  0.9751 -0.9989
 3431TIP3    H231709   0.411   2.590   6.013  0.0976 -2.6030 -0.2794
 3432TIP3   OH231710   6.442   1.438  15.949 -0.1099  0.2804  0.0855
 3432TIP3    H131711   6.379   1.375  15.985 -0.8845  0.9391 -0.0995
 3432TIP3    H231712   6.450   1.414  15.857 -0.3255  0.3932  0.0381
 3433TIP3   OH231713   1.838   1.290  14.082 -0.2188 -0.5042 -0.2436
 3433TIP3    H131714   1.810   1.311  13.993 -0.8307 -0.5708 -0.0711
 3433TIP3    H231715   1.920   1.242  14.071  0.6588  1.0005 -0.7031
 3434TIP3   OH231716   3.253   3.550   0.349 -0.1186  0.2391  0.1522
 3434TIP3    H131717   3.226   3.504   0.429 -0.5162 -0.1140 -0.1777
 3434TIP3    H231718   3.330   3.600   0.375 -0.8840  0.9933  1.0281
 3435TIP3   OH231719   1.745   1.391  11.676  0.0265 -0.1567  0.0890
 3435TIP3    H131720   1.836   1.372  11.700 -0.7792 -1.3606  2.6094
 3435TIP3    H231721   1.711   1.308  11.643  0.4977  0.9668 -3.5808
 3436TIP3   OH231722   6.390   0.853  16.025 -0.5941  0.5179 -0.1422
 3436TIP3    H131723   6.460   0.810  15.976  0.2404  2.2937 -0.5698
 3436TIP3    H231724   6.349   0.782  16.075  0.5961 -0.7920 -0.9625
 3437TIP3   OH231725   0.088   0.041  11.898 -0.5195 -0.8547 -0.5767
 3437TIP3    H131726   0.097   0.134  11.879 -2.7916 -0.1358  1.3095
 3437TIP3    H231727   0.177   0.007  11.895  0.9690  2.1894  2.2067
 3438TIP3   OH231728   3.215   0.534   3.539 -0.2937  0.0008  0.2265
 3438TIP3    H131729   3.236   0.540   3.446 -0.8990  3.2180  0.1963
 3438TIP3    H231730   3.119   0.538   3.542 -0.2402  2.1333  0.9994
 3439TIP3   OH231731   6.609   0.449  13.410 -0.3991 -0.4044  0.0632
 3439TIP3    H131732   6.595   0.502  13.331  0.4350 -1.1527 -0.6108
 3439TIP3    H231733   6.611   0.513  13.482 -0.8872  0.3193 -0.5476
 3440TIP3   OH231734   0.411   4.462   4.199 -0.3657  0.1059 -0.5456
 3440TIP3    H131735   0.420   4.367   4.204 -1.8577 -0.0253  0.2674
 3440TIP3    H231736   0.430   4.484   4.108 -1.5635 -1.1658 -1.1304
 3441TIP3   OH231737   0.174   2.135   5.461 -0.1492  0.1328  0.1505
 3441TIP3    H131738   0.101   2.091   5.505 -0.3241  0.7509  0.4945
 3441TIP3    H231739   0.145   2.144   5.370  0.6568 -2.1152 -0.3894
 3442TIP3   OH231740   0.113   2.382  10.549  0.2576  0.1691 -0.1454
 3442TIP3    H131741   0.184   2.421  10.499 -0.5915  0.2783 -1.2907
 3442TIP3    H231742   0.040   2.443  10.539  0.2011  0.4462  1.6425
 3443TIP3   OH231743   5.719   3.764   5.028  0.0678  0.2785 -0.3464
 3443TIP3    H131744   5.628   3.794   5.018  0.4447  1.5692 -0.0967
 3443TIP3    H231745   5.717   3.709   5.107 -0.4376  0.5328 -0.1760
 3444TIP3   OH231746   2.342   0.056   4.286 -0.0374  0.2143 -0.0126
 3444TIP3    H131747   2.387   0.130   4.245 -2.0676  0.9713 -0.9847
 3444TIP3    H231748   2.353  -0.016   4.223  3.6885 -1.0962  1.8079
 3445TIP3   OH231749   4.975   6.499   1.853 -0.0510  0.0696 -0.1606
 3445TIP3    H131750   4.997   6.532   1.766  0.3401 -0.7728 -0.3835
 3445TIP3    H231751   4.943   6.577   1.900 -2.1566  0.2028 -1.6431
 3446TIP3   OH231752   4.921   1.054  12.509 -0.3809  0.1264 -0.3120
 3446TIP3    H131753   5.000   1.006  12.533 -0.9130 -1.1183 -0.9724
 3446TIP3    H231754   4.868   0.991  12.460 -2.2362  0.6232  0.9686
 3447TIP3   OH231755   6.776   1.343   3.515  0.4104 -0.1712 -0.3469
 3447TIP3    H131756   6.721   1.274   3.551  0.3055 -0.3252 -0.7880
 3447TIP3    H231757   6.795   1.314   3.425 -1.0684  1.1814 -1.1374
 3448TIP3   OH231758   6.471   5.928  15.270  0.9667  0.1132 -0.0266
 3448TIP3    H131759   6.567   5.926  15.263  0.8500  0.0741 -2.3934
 3448TIP3    H231760   6.445   5.837  15.254  0.4971  0.4375 -1.2639
 3449TIP3   OH231761   6.442   5.772  13.422 -0.4351  0.3008 -0.2387
 3449TIP3    H131762   6.394   5.773  13.340 -0.2323  0.4787 -0.3561
 3449TIP3    H231763   6.392   5.830  13.480 -0.6850  0.0207 -0.1757
 3450TIP3   OH231764   0.438   0.478  10.762  0.3633 -0.6167 -0.0743
 3450TIP3    H131765   0.383   0.447  10.689 -1.2770  1.1470  0.3543
 3450TIP3    H231766   0.391   0.452  10.841  1.4486 -1.2921  0.3858
 3451TIP3   OH231767   3.578   0.292  14.855 -0.3060 -0.5018  0.1477
 3451TIP3    H131768   3.530   0.265  14.776 -1.1405 -1.3909  0.9298
 3451TIP3    H231769   3.546   0.380  14.872  0.6839  0.1344 -1.0944
 3452TIP3   OH231770   2.933   3.480  15.282  0.0666 -0.9143  0.1518
 3452TIP3    H131771   2.949   3.388  15.302  0.5744 -0.8186  0.1736
 3452TIP3    H231772   3.019   3.517  15.263 -0.1540 -0.4837 -0.0365
 3453TIP3   OH231773   5.458   3.163   1.641 -0.0046 -0.2765 -0.3819
 3453TIP3    H131774   5.435   3.239   1.588 -0.1711 -0.2702 -0.3022
 3453TIP3    H231775   5.420   3.088   1.594  1.2322 -0.4616 -1.1270
 3454TIP3   OH231776   5.035   5.704  10.957 -0.0556 -0.4899  0.4888
 3454TIP3    H131777   4.941   5.716  10.951  0.0748  1.5390  1.7666
 3454TIP3    H231778   5.069   5.740  10.875 -0.2840  0.4070  0.7788
 3455TIP3   OH231779   3.698   6.060   5.313  0.8347 -0.3939 -0.2307
 3455TIP3    H131780   3.707   6.146   5.355  1.3204 -0.1019 -0.9172
 3455TIP3    H231781   3.670   6.002   5.384  0.7367  0.2754  0.2951
 3456TIP3   OH231782   1.440   0.071  12.934  0.4480  0.0793 -0.3337
 3456TIP3    H131783   1.434   0.090  13.028 -0.7090 -2.0773  0.0970
 3456TIP3    H231784   1.428  -0.024  12.928  0.6572  0.1491 -2.6632
 3457TIP3   OH231785   6.386   2.210  15.649  0.2325 -0.0455 -0.5169
 3457TIP3    H131786   6.427   2.150  15.586 -0.2550  0.7964 -1.6751
 3457TIP3    H231787   6.417   2.180  15.734  1.2804 -0.9463 -1.1852
 3458TIP3   OH231788   0.638   3.098   2.376  0.5977 -0.0210 -0.0968
 3458TIP3    H131789   0.559   3.141   2.408  0.7637 -0.8309  1.5177
 3458TIP3    H231790   0.619   3.005   2.383  0.9781 -0.2278 -1.6204
 3459TIP3   OH231791   6.091   4.932   0.433  0.0237  0.4062  0.3253
 3459TIP3    H131792   6.015   4.969   0.479 -0.0323  1.1899 -0.3522
 3459TIP3    H231793   6.053   4.869   0.372 -0.1074  0.8183 -0.0333
 3460TIP3   OH231794   1.561   4.501   2.812 -0.2685 -0.0972 -0.5698
 3460TIP3    H131795   1.579   4.424   2.865  0.1713  0.7178  0.5171
 3460TIP3    H231796   1.550   4.468   2.723  0.4895 -1.3358 -0.2245
 3461TIP3   OH231797   3.213   4.046  16.968 -0.7304  0.2394 -0.1684
 3461TIP3    H131798   3.194   4.137  16.992 -0.8047  0.0776  0.3978
 3461TIP3    H231799   3.292   4.052  16.913 -0.8250  0.6576 -0.2625
 3462TIP3   OH231800   0.802   2.816  14.149  0.0721  0.1370 -0.2878
 3462TIP3    H131801   0.886   2.857  14.133 -0.5005  1.2965 -0.3827
 3462TIP3    H231802   0.824   2.726  14.173  1.5232  1.0848  2.3390
 3463TIP3   OH231803   3.959   3.337   4.804  0.1098 -0.6523  0.1356
 3463TIP3    H131804   3.963   3.308   4.713  1.3539  0.9751 -0.3838
 3463TIP3    H231805   3.881   3.392   4.809  0.0135 -0.7834  0.0511
 3464TIP3   OH231806   0.891   4.841   1.749 -0.4293 -0.1830 -0.2550
 3464TIP3    H131807   0.954   4.777   1.783  2.4288  1.8445 -1.2628
 3464TIP3    H231808   0.848   4.875   1.827  1.0188 -0.4525  0.7159
 3465TIP3   OH231809   6.157   5.726  16.084 -0.3201 -0.4644 -0.1504
 3465TIP3    H131810   6.137   5.633  16.080 -3.1245  0.0360  0.3764
 3465TIP3    H231811   6.228   5.733  16.148 -1.2007 -2.0995  1.0505
 3466TIP3   OH231812   2.348   3.039  12.442 -0.1002 -0.6180 -0.7432
 3466TIP3    H131813   2.387   3.075  12.362  0.5906 -1.5861 -0.8541
 3466TIP3    H231814   2.421   3.035  12.504 -0.2978 -1.2850 -0.5501
 3467TIP3   OH231815   0.596   5.739  13.578 -0.2321  0.3023 -0.5508
 3467TIP3    H131816   0.621   5.752  13.486 -0.0316 -0.0140 -0.5409
 3467TIP3    H231817   0.614   5.824  13.619  0.0167  0.3373 -0.7276
 3468TIP3   OH231818   4.603   5.236  15.699  0.5576 -0.5376 -0.2605
 3468TIP3    H131819   4.554   5.283  15.632  0.3016 -1.3908 -0.6838
 3468TIP3    H231820   4.622   5.302  15.766 -0.7017 -0.0589 -0.3461
 3469TIP3   OH231821   6.716   2.465  16.467  0.1619 -0.0943 -0.3428
 3469TIP3    H131822   6.771   2.524  16.519  1.7996 -0.4035 -1.6285
 3469TIP3    H231823   6.634   2.512  16.454 -0.3620 -0.0328  2.5269
 3470TIP3   OH231824   0.993   3.269   0.195  0.9248  0.0241 -0.1582
 3470TIP3    H131825   1.010   3.347   0.142 -0.2193  0.9789  0.8128
 3470TIP3    H231826   1.066   3.267   0.257  0.2987  1.1226  0.6599
 3471TIP3   OH231827   6.326   0.921  13.689 -0.4811 -0.3460 -0.0683
 3471TIP3    H131828   6.254   0.965  13.642  0.9627  1.1513 -0.9857
 3471TIP3    H231829   6.350   0.848  13.632 -1.4220 -0.9995  0.3598
 3472TIP3   OH231830   0.431   6.603  15.343 -0.1945 -0.6044  0.2722
 3472TIP3    H131831   0.463   6.527  15.392 -0.3493 -0.7569  0.1368
 3472TIP3    H231832   0.489   6.675  15.370  1.2620 -1.1912 -1.1236
 3473TIP3   OH231833   4.567   5.682  15.797  0.7590 -0.2240 -0.3308
 3473TIP3    H131834   4.515   5.762  15.798  0.5103 -0.3131 -2.0880
 3473TIP3    H231835   4.583   5.662  15.889 -2.1899 -0.1103  0.3133
 3474TIP3   OH231836   5.233   0.995   6.798 -0.5862 -0.3766 -0.6856
 3474TIP3    H131837   5.159   0.936   6.812 -1.4860  0.6836 -0.8671
 3474TIP3    H231838   5.303   0.938   6.765  0.2751 -2.2669  3.7003
 3475TIP3   OH231839   1.855   2.567   0.145  0.0469 -0.2275 -0.1581
 3475TIP3    H131840   1.899   2.518   0.215  0.8135 -0.1966 -0.6001
 3475TIP3    H231841   1.855   2.507   0.070  0.4597  0.2193 -0.5271
 3476TIP3   OH231842   4.735   0.442  14.554 -0.1140 -0.0197  0.4986
 3476TIP3    H131843   4.793   0.486  14.616  0.6736 -1.5598  0.8933
 3476TIP3    H231844   4.785   0.439  14.472  0.2390 -0.9941  0.7332
 3477TIP3   OH231845   2.458   0.500  11.807 -0.2194 -0.4399 -0.1816
 3477TIP3    H131846   2.402   0.448  11.749 -0.5052 -0.6448  0.2759
 3477TIP3    H231847   2.401   0.572  11.836  0.0018 -0.1904 -0.3564
 3478TIP3   OH231848   4.201   2.136  10.869 -0.3922  0.3914 -0.4550
 3478TIP3    H131849   4.147   2.111  10.793 -0.9462  0.0280  0.0497
 3478TIP3    H231850   4.278   2.079  10.863 -1.1377 -0.7179  0.0786
 3479TIP3   OH231851   0.363   2.553  14.084 -0.2710 -0.2977  0.2668
 3479TIP3    H131852   0.404   2.587  14.004  1.2407 -0.4856  0.9223
 3479TIP3    H231853   0.269   2.558  14.067 -0.0233  1.3988 -0.8039
 3480TIP3   OH231854   0.315   1.690   3.878 -0.0228  0.2483  0.6425
 3480TIP3    H131855   0.362   1.656   3.801 -1.9894 -0.4323 -0.3383
 3480TIP3    H231856   0.291   1.611   3.927 -0.6682  0.5222  0.7760
 3481TIP3   OH231857   0.486   2.032  17.022  0.6239  0.3869  0.2394
 3481TIP3    H131858   0.548   2.003  16.955  0.0466 -0.0989 -0.0936
 3481TIP3    H231859   0.539   2.084  17.082  1.3388  0.0627 -0.0928
 3482TIP3   OH231860   2.340   0.831  11.028 -0.3403 -0.0395  0.3055
 3482TIP3    H131861   2.288   0.800  10.955  0.0562 -0.5955  0.2519
 3482TIP3    H231862   2.431   0.826  10.997 -0.1670 -0.3219  0.8459
 3483TIP3   OH231863   3.034   5.542  16.647  0.2482 -0.1193 -0.0159
 3483TIP3    H131864   3.034   5.465  16.704 -2.8224 -1.2805 -1.3855
 3483TIP3    H231865   2.966   5.598  16.683  0.2774  0.4856 -0.8882
 3484TIP3   OH231866   2.049   6.494  15.519 -0.0620  0.6940  0.1038
 3484TIP3    H131867   2.000   6.413  15.527  0.7774  0.2447  0.9053
 3484TIP3    H231868   2.120   6.474  15.458  0.8871  0.4408  1.2706
 3485TIP3   OH231869   0.517   4.398   3.107  0.5016 -0.6213  0.3266
 3485TIP3    H131870   0.432   4.427   3.139 -1.4054 -2.3904 -2.7006
 3485TIP3    H231871   0.508   4.303   3.097  2.8021 -0.8465 -0.2096
 3486TIP3   OH231872   5.221   1.737  11.043 -0.4099  0.0005 -0.0511
 3486TIP3    H131873   5.267   1.712  10.963  0.0809 -0.0534  0.2461
 3486TIP3    H231874   5.129   1.721  11.023 -0.3561  0.6079 -0.8333
 3487TIP3   OH231875   3.206   2.093  15.343 -0.3318  0.3986 -0.6018
 3487TIP3    H131876   3.206   2.099  15.247  0.7146  1.3175 -0.5670
 3487TIP3    H231877   3.135   2.150  15.371 -0.5469  0.2416 -0.8168
 3488TIP3   OH231878   1.226   1.025  10.505 -0.0330 -0.2611 -0.1234
 3488TIP3    H131879   1.308   0.982  10.479 -0.1190 -1.1655  1.0177
 3488TIP3    H231880   1.170   1.018  10.429  0.9919  0.5044 -0.9863
 3489TIP3   OH231881   4.534   2.244   3.241 -0.0511 -0.1793  0.1233
 3489TIP3    H131882   4.591   2.283   3.308 -0.5157 -0.2319  0.5508
 3489TIP3    H231883   4.565   2.154   3.232 -0.6771 -0.5026  1.0572
 3490TIP3   OH231884   0.926   2.653  12.776  0.0503  0.6549 -0.2419
 3490TIP3    H131885   0.943   2.593  12.703 -0.4826  1.2397 -0.8647
 3490TIP3    H231886   0.897   2.596  12.847  0.8692  0.0421 -0.3745
 3491TIP3   OH231887   2.508   4.783   6.090  0.1066 -0.2922 -0.0658
 3491TIP3    H131888   2.593   4.774   6.134 -0.4407  0.5460  1.2133
 3491TIP3    H231889   2.465   4.855   6.135 -1.6231 -1.2330 -0.1377
 3492TIP3   OH231890   6.563   2.536  11.587 -0.7403  0.2787  0.5186
 3492TIP3    H131891   6.546   2.575  11.501 -1.8536  0.2370  0.6933
 3492TIP3    H231892   6.650   2.567  11.612 -0.5453  0.5543 -0.4764
 3493TIP3   OH231893   6.678   4.625  13.854 -0.4179 -0.4015 -0.6963
 3493TIP3    H131894   6.688   4.659  13.765  0.3941  1.7946  0.1507
 3493TIP3    H231895   6.752   4.565  13.865 -0.1013 -0.1302 -1.2877
 3494TIP3   OH231896   3.124   6.595  11.117  0.2247  0.2393  0.2044
 3494TIP3    H131897   3.134   6.507  11.153  0.2159  0.9916  2.1090
 3494TIP3    H231898   3.138   6.583  11.022 -0.0251 -1.8312  0.3817
 3495TIP3   OH231899   6.008   2.619   0.776  0.6452  0.4102  0.3751
 3495TIP3    H131900   5.944   2.550   0.793  1.0561 -0.1822 -0.3866
 3495TIP3    H231901   6.040   2.600   0.688  1.1701  1.2576  0.3767
 3496TIP3   OH231902   2.140   5.115  10.287  0.2615 -0.5627  0.0818
 3496TIP3    H131903   2.088   5.182  10.332  0.8635 -0.1048  0.0995
 3496TIP3    H231904   2.077   5.070  10.230  0.1393  1.0629 -1.1358
 3497TIP3   OH231905   5.444   4.356   4.321 -0.6435  0.1232 -0.1157
 3497TIP3    H131906   5.432   4.436   4.269  0.9364 -0.4732 -1.4935
 3497TIP3    H231907   5.367   4.353   4.377 -0.9685  2.3721 -0.3284
 3498TIP3   OH231908   4.063   0.556   0.903  0.2024 -0.2734  0.5089
 3498TIP3    H131909   3.987   0.504   0.879 -0.5547  0.6400  0.8791
 3498TIP3    H231910   4.042   0.645   0.873  0.6855  0.1908  1.4984
 3499TIP3   OH231911   3.661   0.557  10.701  0.0233 -0.4801  0.0494
 3499TIP3    H131912   3.662   0.594  10.789 -1.5719  1.1014 -0.5233
 3499TIP3    H231913   3.751   0.567  10.669  0.0016  1.6004  0.5000
 3500TIP3   OH231914   3.085   2.445   5.066  0.3817  0.3848 -0.2118
 3500TIP3    H131915   3.150   2.479   5.005  1.1331  0.1594  0.4351
 3500TIP3    H231916   3.006   2.496   5.048  0.7389  0.6765 -1.0044
 3501TIP3   OH231917   1.782   0.491  17.137  0.1826 -0.5617  0.3496
 3501TIP3    H131918   1.877   0.484  17.127  0.1370 -0.6229 -0.0500
 3501TIP3    H231919   1.762   0.436  17.213  0.4099 -0.9439  0.1354
 3502TIP3   OH231920   5.306   2.254  12.628 -0.2243 -0.2102  0.2073
 3502TIP3    H131921   5.362   2.193  12.677  1.4711 -0.2855 -1.6954
 3502TIP3    H231922   5.345   2.340  12.643 -1.4783  0.2149  1.3156
 3503TIP3   OH231923   1.572   6.439  11.644 -0.2594  0.7495 -0.4630
 3503TIP3    H131924   1.618   6.523  11.645 -1.7927  1.6393 -0.6022
 3503TIP3    H231925   1.526   6.439  11.560  0.5477 -0.7275 -0.9373
 3504TIP3   OH231926   1.218   3.402   3.218  0.5901 -0.3053  0.2491
 3504TIP3    H131927   1.174   3.318   3.229  2.0965 -2.0744 -4.3837
 3504TIP3    H231928   1.308   3.386   3.248  0.6417 -0.0817  0.2164
 3505TIP3   OH231929   6.383   0.612   4.744 -0.5735 -0.1518  0.2940
 3505TIP3    H131930   6.465   0.618   4.696 -1.1623  0.5868 -0.6693
 3505TIP3    H231931   6.363   0.519   4.748 -0.5173 -0.2310 -0.9361
 3506TIP3   OH231932   1.648   1.429  15.393  0.2499  0.0650 -0.0755
 3506TIP3    H131933   1.679   1.510  15.434  1.0765 -0.3941  0.2368
 3506TIP3    H231934   1.716   1.365  15.413 -0.6114 -0.8230  0.0725
 3507TIP3   OH231935   1.795   4.154   0.896  0.6068 -0.8878 -0.3960
 3507TIP3    H131936   1.858   4.082   0.901  1.1850 -0.3236  1.6016
 3507TIP3    H231937   1.774   4.162   0.803  2.4517 -1.9695 -0.9558
 3508TIP3   OH231938   4.090   5.520  13.685 -0.1321 -0.4309  0.3873
 3508TIP3    H131939   4.035   5.564  13.620 -0.0824 -0.3732  0.3836
 3508TIP3    H231940   4.168   5.493  13.635 -0.3520 -0.9045  0.2915
 3509TIP3   OH231941   1.941   3.631   5.256  0.0590  0.1250 -0.4842
 3509TIP3    H131942   1.895   3.578   5.192  1.0650  0.5746 -1.6207
 3509TIP3    H231943   2.031   3.635   5.224  0.9721 -0.8853  1.7643
 3510TIP3   OH231944   0.769   1.957   5.300  0.2052  0.3192 -0.0036
 3510TIP3    H131945   0.817   1.879   5.327  0.6700 -0.2988 -2.3611
 3510TIP3    H231946   0.677   1.929   5.300  0.1678  0.3935  0.9945
 3511TIP3   OH231947   0.302   5.179   5.454 -0.2921 -0.0813 -0.0099
 3511TIP3    H131948   0.347   5.154   5.535 -2.0425 -2.1854  0.3944
 3511TIP3    H231949   0.214   5.203   5.483 -0.7027 -0.0922 -1.2252
 3512TIP3   OH231950   0.975   5.946   6.648  0.3480  0.0859  0.0853
 3512TIP3    H131951   0.900   5.985   6.603 -0.1099 -0.0133  0.7449
 3512TIP3    H231952   1.034   5.918   6.578 -0.6999 -0.7555 -0.4878
 3513TIP3   OH231953   4.169   0.205   5.278  0.2761  0.2994  0.0369
 3513TIP3    H131954   4.079   0.181   5.299  0.2998 -1.1387 -1.2788
 3513TIP3    H231955   4.161   0.287   5.228 -0.3069  0.1941 -0.0510
 3514TIP3   OH231956   5.173   1.367  12.171 -0.0594  0.3775  0.1142
 3514TIP3    H131957   5.158   1.462  12.165 -1.8857  0.1824  0.9729
 3514TIP3    H231958   5.188   1.340  12.080  0.2736  1.4367 -0.1710
 3515TIP3   OH231959   3.984   4.258  12.135  0.0702  0.6082 -0.2334
 3515TIP3    H131960   4.035   4.337  12.119  1.3425  0.4680  2.5586
 3515TIP3    H231961   3.893   4.285  12.124  0.5630  1.9917 -1.0632
 3516TIP3   OH231962   2.380   6.691   0.793  0.1472 -1.1914 -0.1205
 3516TIP3    H131963   2.387   6.778   0.755 -1.5444 -1.0287 -0.1286
 3516TIP3    H231964   2.471   6.664   0.808  0.7251  1.5584  2.1667
 3517TIP3   OH231965   3.041   2.044   2.601  0.5569 -0.3405  0.0193
 3517TIP3    H131966   2.976   2.111   2.581  1.4815  0.8677  0.9296
 3517TIP3    H231967   3.021   1.972   2.541 -1.1557  0.2861 -0.2086
 3518TIP3   OH231968   1.167   0.172  11.713  0.1695 -0.2062 -0.3025
 3518TIP3    H131969   1.115   0.104  11.670  0.5933 -0.2804 -0.7034
 3518TIP3    H231970   1.213   0.216  11.642 -0.8176  1.1317 -0.1414
 3519TIP3   OH231971   0.469   1.299   0.432 -0.0270  0.4729  0.3988
 3519TIP3    H131972   0.528   1.273   0.502 -1.3519  0.8917  1.7155
 3519TIP3    H231973   0.496   1.388   0.410  1.2426 -0.1190 -0.5922
 3520TIP3   OH231974   3.229   1.728   4.878  0.1690 -0.0435 -0.3766
 3520TIP3    H131975   3.188   1.663   4.935  0.8451 -0.5186 -0.4103
 3520TIP3    H231976   3.223   1.689   4.790 -0.5286  0.5099 -0.5776
 3521TIP3   OH231977   1.825   1.285   3.172  0.6767  0.3893  0.0399
 3521TIP3    H131978   1.908   1.284   3.220  1.5866  0.0368 -1.4792
 3521TIP3    H231979   1.822   1.371   3.130 -0.9637  1.4079  2.0719
 3522TIP3   OH231980   5.145   3.630  16.429 -0.3313  0.1271  0.0870
 3522TIP3    H131981   5.156   3.538  16.453 -0.9784  0.5998  2.4824
 3522TIP3    H231982   5.230   3.670  16.448  0.0635 -0.0182 -1.3046
 3523TIP3   OH231983   3.476   3.652   1.738 -0.0720 -0.2676 -0.3207
 3523TIP3    H131984   3.417   3.709   1.788 -0.6198 -0.7158 -0.4429
 3523TIP3    H231985   3.521   3.600   1.805  0.8462  0.6852 -0.1747
 3524TIP3   OH231986   4.664   0.863   3.151  0.1851  0.2210 -0.4129
 3524TIP3    H131987   4.677   0.769   3.138 -0.4293  0.2635 -1.4636
 3524TIP3    H231988   4.572   0.871   3.176  0.2078  0.5581 -0.4414
 3525TIP3   OH231989   6.470   4.882  14.571 -0.1076 -0.0603 -0.2145
 3525TIP3    H131990   6.448   4.840  14.488  1.6784 -0.4213 -0.5447
 3525TIP3    H231991   6.480   4.975  14.550  0.8171 -0.2231 -0.5102
 3526TIP3   OH231992   3.400   3.766  12.485 -0.1305 -0.1059 -0.0397
 3526TIP3    H131993   3.469   3.819  12.524  0.1102  0.1749 -0.8253
 3526TIP3    H231994   3.334   3.829  12.456  1.0629  0.0353 -2.8204
 3527TIP3   OH231995   4.598   0.789   5.110  0.4300  0.2495 -0.4096
 3527TIP3    H131996   4.674   0.846   5.096  1.0506 -0.7330 -1.2004
 3527TIP3    H231997   4.605   0.722   5.042 -1.6061  0.5880 -1.0187
 3528TIP3   OH231998   2.251   5.758   4.064 -0.4135 -0.5697 -0.4642
 3528TIP3    H131999   2.271   5.817   3.991 -0.5580  0.7227  0.4870
 3528TIP3    H232000   2.312   5.685   4.054 -0.2173 -0.2566 -1.6800
 3529TIP3   OH232001   6.189   1.732   5.540 -0.8432 -0.3007  0.0051
 3529TIP3    H132002   6.248   1.745   5.466  0.0098  0.7337  0.8349
 3529TIP3    H232003   6.152   1.645   5.526  0.4246 -0.7340 -0.8550
 3530TIP3   OH232004   6.552   4.659  17.144 -0.1058 -0.8427  0.5571
 3530TIP3    H132005   6.514   4.571  17.137  1.2496 -1.2975 -2.0314
 3530TIP3    H232006   6.637   4.652  17.102  0.0514  1.7362  0.2909
 3531TIP3   OH232007   0.736   0.419  15.478 -0.2192 -0.1425  0.4696
 3531TIP3    H132008   0.739   0.467  15.561 -0.0431  0.2566  0.2343
 3531TIP3    H232009   0.653   0.445  15.438 -0.8317 -1.1653  1.0044
 3532TIP3   OH232010   1.227   0.974   4.246  0.3251  0.8259 -0.2683
 3532TIP3    H132011   1.141   0.943   4.219  0.7864 -0.1098 -0.6862
 3532TIP3    H232012   1.289   0.916   4.203  1.1915  1.7243 -0.2839
 3533TIP3   OH232013   4.037   1.293  14.458 -0.1578  0.3143 -0.1316
 3533TIP3    H132014   4.023   1.214  14.405  0.5372  0.2058 -0.1718
 3533TIP3    H232015   4.133   1.299  14.466 -0.2421  0.5543  0.7705
 3534TIP3   OH232016   6.214   1.572   2.316 -0.3542 -0.0107  0.2035
 3534TIP3    H132017   6.122   1.556   2.298 -0.2488 -0.2408 -0.1392
 3534TIP3    H232018   6.246   1.490   2.354 -0.6770  0.6053  1.8893
 3535TIP3   OH232019   1.539   1.449   2.585 -0.0388 -0.1699 -1.0155
 3535TIP3    H132020   1.511   1.473   2.673  1.4980 -1.9035  0.0131
 3535TIP3    H232021   1.610   1.386   2.598  0.2519 -0.4755 -3.5010
 3536TIP3   OH232022   5.654   2.514   2.246  0.4540  0.4167 -0.3365
 3536TIP3    H132023   5.658   2.479   2.156 -0.2669  1.4949 -0.8072
 3536TIP3    H232024   5.662   2.608   2.235  0.6345  0.5418  0.7745
 3537TIP3   OH232025   0.983   1.344   0.729 -0.0789 -0.2967  0.0871
 3537TIP3    H132026   1.061   1.372   0.681  2.0335 -1.9191  2.3760
 3537TIP3    H232027   0.937   1.426   0.748  1.4501  0.7922 -0.6346
 3538TIP3   OH232028   2.006   3.289  13.520  0.1204  0.0732 -0.0225
 3538TIP3    H132029   1.994   3.259  13.610  0.7442 -1.3197 -0.3774
 3538TIP3    H232030   2.073   3.231  13.484 -0.7246  0.0477 -1.6473
 3539TIP3   OH232031   3.475   2.816  12.657  0.2904 -0.0302  0.5252
 3539TIP3    H132032   3.458   2.853  12.571 -0.5731  1.7335  1.4027
 3539TIP3    H232033   3.540   2.875  12.697  0.3172 -0.5416  1.2685
 3540TIP3   OH232034   4.959   3.131  15.025 -0.6119 -1.0347  0.1727
 3540TIP3    H132035   4.978   3.182  15.103 -0.2488 -1.3390  0.2861
 3540TIP3    H232036   5.003   3.047  15.040 -0.0946 -0.9121 -0.5761
 3541TIP3   OH232037   5.426   4.472   4.854 -0.0748 -0.5292 -0.3444
 3541TIP3    H132038   5.414   4.413   4.779 -0.4313  0.5250 -1.1333
 3541TIP3    H232039   5.391   4.422   4.929  0.7228 -1.7834 -0.7720
 3542TIP3   OH232040   5.758   5.679   2.823 -0.0390 -0.1987 -0.0571
 3542TIP3    H132041   5.771   5.737   2.898 -0.2888 -0.1068 -0.0814
 3542TIP3    H232042   5.736   5.739   2.751 -1.7989 -0.4069  0.2622
 3543TIP3   OH232043   4.781   2.600   1.539 -0.0176  0.3743 -0.3543
 3543TIP3    H132044   4.796   2.549   1.459  0.1868  0.8132 -0.5996
 3543TIP3    H232045   4.868   2.631   1.565 -0.2105  1.1274 -0.5714
 3544TIP3   OH232046   6.116   3.030  11.282 -0.2836 -0.2753  0.1841
 3544TIP3    H132047   6.037   2.984  11.253  0.0842 -1.1136  0.4852
 3544TIP3    H232048   6.187   2.989  11.233 -0.1073  1.0151 -0.6856
 3545TIP3   OH232049   4.621   0.121  16.694  0.1475 -0.1079  0.0238
 3545TIP3    H132050   4.696   0.099  16.748 -0.3864 -1.0600  0.3862
 3545TIP3    H232051   4.600   0.041  16.646 -0.8372  0.0431  0.1698
 3546TIP3   OH232052   0.628   1.873  10.913 -0.1318 -0.0530 -0.1891
 3546TIP3    H132053   0.695   1.872  10.844 -1.7367  0.3707 -1.8148
 3546TIP3    H232054   0.653   1.802  10.971  2.7044  1.1571  0.2549
 3547TIP3   OH232055   1.940   0.825   1.079  0.0514  0.2654  0.1652
 3547TIP3    H132056   1.977   0.901   1.035  0.6276  0.1943  0.5188
 3547TIP3    H232057   2.012   0.763   1.085  1.0391  1.4582  4.0705
 3548TIP3   OH232058   3.526   3.344  13.059 -0.4348 -0.2801  0.0843
 3548TIP3    H132059   3.552   3.367  13.148  0.2302  0.5686 -0.3184
 3548TIP3    H232060   3.548   3.421  13.006  0.2650 -1.1938 -1.0239
 3549TIP3   OH232061   3.801   5.063   1.164 -0.0103 -0.3668  0.0258
 3549TIP3    H132062   3.867   5.066   1.233 -0.8162 -0.4918  0.8214
 3549TIP3    H232063   3.744   5.138   1.181 -0.8347 -1.0033  0.1338
 3550TIP3   OH232064   4.702   5.686   4.897 -0.6527 -0.1718 -0.0711
 3550TIP3    H132065   4.700   5.768   4.847  0.0160  0.7994  1.4072
 3550TIP3    H232066   4.767   5.632   4.852 -1.2447  0.0100 -1.1851
 3551TIP3   OH232067   4.113   4.190   1.261  0.2038  0.5926  0.4585
 3551TIP3    H132068   4.055   4.120   1.231  1.0050  0.2309 -0.2530
 3551TIP3    H232069   4.095   4.263   1.203  0.1851  0.6094  0.4855
 3552TIP3   OH232070   0.114   2.355   4.930  0.2254 -0.3666 -0.2633
 3552TIP3    H132071   0.035   2.407   4.913 -1.3703 -2.3171  0.6264
 3552TIP3    H232072   0.185   2.403   4.888 -1.3277  1.8320 -0.5337
 3553TIP3   OH232073   1.685   2.986   5.149  0.0731  0.6285  0.2611
 3553TIP3    H132074   1.760   2.926   5.156 -1.0699 -0.8528  0.2308
 3553TIP3    H232075   1.685   3.012   5.057  1.5722  2.0521  0.6256
 3554TIP3   OH232076   2.129   4.980  12.656  0.0150 -0.2305  0.3185
 3554TIP3    H132077   2.046   5.012  12.621 -1.9746 -1.2458  3.7032
 3554TIP3    H232078   2.171   5.057  12.694 -0.6582 -0.1227  0.8675
 3555TIP3   OH232079   5.066   5.536  15.931  0.3287  0.5544 -0.8108
 3555TIP3    H132080   5.093   5.444  15.939 -2.0065 -0.1170  0.5395
 3555TIP3    H232081   5.106   5.579  16.006  0.4822  0.3569 -0.7763
 3556TIP3   OH232082   5.076   0.251   2.683 -0.1910 -0.1630  0.0815
 3556TIP3    H132083   5.114   0.173   2.641 -2.0723 -1.1316  0.0568
 3556TIP3    H232084   5.141   0.276   2.749  0.6832 -1.4642 -0.2277
 3557TIP3   OH232085   4.321   2.207  12.157  0.2198 -0.4847 -0.3712
 3557TIP3    H132086   4.285   2.293  12.180 -1.5048 -1.8294  2.4470
 3557TIP3    H232087   4.409   2.207  12.194 -0.5355 -0.6202  1.5320
 3558TIP3   OH232088   3.502   3.291  13.946  0.0586  0.1088  0.4007
 3558TIP3    H132089   3.445   3.277  13.871  1.1795 -1.4585 -0.2109
 3558TIP3    H232090   3.590   3.297  13.908  0.5431  0.2645  1.5124
 3559TIP3   OH232091   0.500   6.716   1.954 -0.5745  0.2802 -0.1452
 3559TIP3    H132092   0.534   6.695   1.867 -0.9125 -2.6190  0.3316
 3559TIP3    H232093   0.555   6.666   2.014 -1.4595  0.8404  1.1846
 3560TIP3   OH232094   6.463   5.453   1.478  0.8902 -0.2727 -0.4464
 3560TIP3    H132095   6.499   5.478   1.392  2.0766 -0.1125  0.0759
 3560TIP3    H232096   6.504   5.368   1.497  0.6277 -0.3095 -0.0461
 3561TIP3   OH232097   6.164   1.717   5.821 -0.4860 -0.1549 -0.5034
 3561TIP3    H132098   6.171   1.636   5.871 -3.0670 -0.2040 -0.0492
 3561TIP3    H232099   6.170   1.690   5.729 -0.6153 -0.7757 -0.3307
 3562TIP3   OH232100   4.572   0.541   0.324 -1.1352 -0.0950 -0.4118
 3562TIP3    H132101   4.551   0.487   0.400 -1.0515  0.2218 -0.1627
 3562TIP3    H232102   4.574   0.630   0.358  1.2171 -0.1289 -0.2603
 3563TIP3   OH232103   6.164   2.784   1.169 -0.3282  0.0526 -0.1345
 3563TIP3    H132104   6.191   2.869   1.135  1.1108 -0.7114 -1.0049
 3563TIP3    H232105   6.152   2.729   1.091 -1.0468 -0.5957  0.4168
 3564TIP3   OH232106   6.715   4.352  16.522 -0.3420 -0.3454 -0.2267
 3564TIP3    H132107   6.660   4.335  16.599 -2.0196  0.6177 -1.1599
 3564TIP3    H232108   6.764   4.431  16.545  1.0349 -1.4443  0.7746
 3565TIP3   OH232109   6.232   3.174  13.865  0.0835 -0.0339 -0.1668
 3565TIP3    H132110   6.259   3.138  13.780 -0.1265  1.4619 -0.8924
 3565TIP3    H232111   6.239   3.100  13.925 -0.6487 -1.3840 -1.6644
 3566TIP3   OH232112   3.865   2.070  17.149  0.0266 -0.3090 -0.3842
 3566TIP3    H132113   3.947   2.052  17.196 -0.1660  0.6650  0.3544
 3566TIP3    H232114   3.892   2.091  17.060  0.9035  2.7203  0.4654
 3567TIP3   OH232115   3.479   5.080  15.393 -0.2402 -0.0095 -0.2283
 3567TIP3    H132116   3.559   5.039  15.425 -0.3911 -0.4770 -0.4443
 3567TIP3    H232117   3.494   5.174  15.405  0.0331 -0.1303  0.4442
 3568TIP3   OH232118   2.475   3.893   1.859  0.1491  0.2549  0.1734
 3568TIP3    H132119   2.510   3.982   1.856 -1.4248  0.8824 -1.8876
 3568TIP3    H232120   2.495   3.857   1.773 -0.6021 -0.8342  0.4429
 3569TIP3   OH232121   3.611   6.718  16.147 -0.2531  0.1370  0.1165
 3569TIP3    H132122   3.592   6.713  16.054 -2.2661  2.7385  0.2703
 3569TIP3    H232123   3.538   6.673  16.189 -0.8624  1.3859  0.4561
 3570TIP3   OH232124   4.078   2.775   2.641  0.0771  0.4519  0.5889
 3570TIP3    H132125   4.137   2.706   2.673 -0.3799 -0.2047  0.0532
 3570TIP3    H232126   4.048   2.819   2.721  2.1630  1.5730  0.8154
 3571TIP3   OH232127   3.452   0.993  12.185 -0.3056 -0.4498  0.5539
 3571TIP3    H132128   3.408   1.038  12.257  1.3608 -0.3399  1.5549
 3571TIP3    H232129   3.545   1.007  12.202  0.1382 -1.0622 -1.2260
 3572TIP3   OH232130   3.823   3.155   5.083  0.0433  0.8798  0.3203
 3572TIP3    H132131   3.884   3.228   5.085 -0.4017  1.2493  0.6005
 3572TIP3    H232132   3.746   3.186   5.131 -0.5750  0.6034 -0.4671
 3573TIP3   OH232133   1.855   5.468   3.321 -0.3645 -0.2676 -0.0348
 3573TIP3    H132134   1.778   5.430   3.279 -1.9488  2.1003  0.4987
 3573TIP3    H232135   1.837   5.562   3.322  1.6544  0.1732  1.9116
 3574TIP3   OH232136   2.071   6.755  14.512  0.0330 -0.4547  0.0492
 3574TIP3    H132137   2.151   6.703  14.502  0.5332  0.1828  0.5830
 3574TIP3    H232138   2.000   6.694  14.493  0.6850 -0.4165 -3.1550
 3575TIP3   OH232139   3.697   3.061   2.818 -0.1966  0.0128 -0.2095
 3575TIP3    H132140   3.629   3.036   2.881  0.3686  1.3689  0.9733
 3575TIP3    H232141   3.779   3.034   2.858  0.2190  1.4303 -0.0576
 3576TIP3   OH232142   6.400   2.233  11.936  0.0692  0.1452  0.4081
 3576TIP3    H132143   6.306   2.219  11.931  0.3856 -1.9872 -0.5478
 3576TIP3    H232144   6.425   2.263  11.849  0.1543  1.9796  1.0096
 3577TIP3   OH232145   5.136   4.911   3.384 -0.0212  0.3213  0.1287
 3577TIP3    H132146   5.189   4.882   3.310  0.0931 -0.5878  0.5483
 3577TIP3    H232147   5.193   4.901   3.460 -0.6842 -0.3847  0.5463
 3578TIP3   OH232148   5.786   1.244   4.143  0.1345 -0.3654 -0.2416
 3578TIP3    H132149   5.871   1.243   4.099 -1.1041 -1.8764 -2.8285
 3578TIP3    H232150   5.750   1.330   4.122  0.2586 -0.4297 -0.7370
 3579TIP3   OH232151   6.573   1.804   3.281 -0.3197 -0.2348  0.3833
 3579TIP3    H132152   6.569   1.831   3.189 -1.0014 -0.1785  0.4204
 3579TIP3    H232153   6.570   1.886   3.330 -1.7264 -0.3157  0.4816
 3580TIP3   OH232154   2.678   3.500   4.316  0.3174 -0.0789 -0.2899
 3580TIP3    H132155   2.667   3.562   4.389 -1.4346 -0.0566 -0.5184
 3580TIP3    H232156   2.757   3.528   4.272  1.1243  0.2449  1.2801
 3581TIP3   OH232157   4.323   6.543   2.827 -0.2311  0.3643  0.8419
 3581TIP3    H132158   4.228   6.551   2.818 -0.2747  0.7440  1.5310
 3581TIP3    H232159   4.340   6.568   2.918  0.5736  0.7225  0.5998
 3582TIP3   OH232160   2.434   3.364   4.502  0.2854 -0.1429 -0.1959
 3582TIP3    H132161   2.411   3.457   4.502  0.9385  0.0475  1.5160
 3582TIP3    H232162   2.518   3.360   4.457 -0.7765 -0.2468 -2.3062
 3583TIP3   OH232163   4.066   0.595  11.938  0.2007  0.2711  0.1302
 3583TIP3    H132164   4.054   0.577  12.031  0.3038 -0.8320 -0.0593
 3583TIP3    H232165   3.985   0.567  11.897  0.3920  0.1713 -0.1852
 3584TIP3   OH232166   1.049   2.366   5.811 -0.2524  0.1347  0.2487
 3584TIP3    H132167   1.030   2.355   5.718 -1.2859  0.1575  0.4525
 3584TIP3    H232168   1.122   2.428   5.813 -1.1364  1.2306 -0.4962
 3585TIP3   OH232169   6.486   3.982   4.590 -0.0211  0.0237 -0.1041
 3585TIP3    H132170   6.484   4.072   4.557 -1.1063  0.2230  0.4722
 3585TIP3    H232171   6.428   3.934   4.531 -0.5670  0.0066  0.4417
 3586TIP3   OH232172   2.218   2.246   3.902  0.4135 -0.2111  0.1436
 3586TIP3    H132173   2.269   2.310   3.852  0.3404 -0.6804 -0.5533
 3586TIP3    H232174   2.209   2.172   3.842  0.0220 -0.6477  0.7386
 3587TIP3   OH232175   0.160   4.738   4.392 -0.4806  0.2040  0.1258
 3587TIP3    H132176   0.129   4.663   4.341 -2.4750  1.0679  0.0184
 3587TIP3    H232177   0.221   4.699   4.455  1.5013 -0.9918 -2.3421
 3588TIP3   OH232178   3.927   6.126   5.524  0.0745  0.3267 -0.1169
 3588TIP3    H132179   3.927   6.058   5.457 -0.1561 -0.8294  1.0091
 3588TIP3    H232180   3.849   6.177   5.507 -0.3563 -0.3873 -0.3307
 3589TIP3   OH232181   6.199   5.490  15.167 -0.6907 -0.0438 -0.5302
 3589TIP3    H132182   6.143   5.503  15.091 -0.0757 -2.8065 -1.5654
 3589TIP3    H232183   6.203   5.395  15.178  3.0881  0.0367  0.0109
 3590TIP3   OH232184   4.640   2.027   5.146 -0.3893  0.5843  0.5292
 3590TIP3    H132185   4.564   2.002   5.197 -0.4875  0.8591  0.5216
 3590TIP3    H232186   4.654   2.119   5.168 -0.6285  0.7994 -0.1796
 3591TIP3   OH232187   3.961   4.310   2.100 -0.1102  0.3701  0.1324
 3591TIP3    H132188   4.046   4.270   2.113 -0.9678 -1.3615  0.7588
 3591TIP3    H232189   3.908   4.279   2.174 -1.2477  1.4943 -0.1665
 3592TIP3   OH232190   4.754   1.160   6.268  0.7045 -0.4095 -0.2451
 3592TIP3    H132191   4.717   1.079   6.304  2.1571 -0.9777  0.0356
 3592TIP3    H232192   4.678   1.208   6.234 -0.3624 -1.1925  0.9374
 3593TIP3   OH232193   6.574   2.664   5.436  0.0305 -0.1331  0.1373
 3593TIP3    H132194   6.495   2.611   5.444  0.0327 -0.1784 -0.1093
 3593TIP3    H232195   6.597   2.658   5.343 -0.6271  1.2245 -0.1501
 3594TIP3   OH232196   0.956   2.388  12.988  0.2778  0.9193 -0.0757
 3594TIP3    H132197   0.912   2.305  12.968  1.7729  0.0197  0.2018
 3594TIP3    H232198   0.927   2.409  13.077  0.0621  0.5776 -0.0615
 3595TIP3   OH232199   1.459   0.338   1.539 -0.5003 -0.8145 -0.2231
 3595TIP3    H132200   1.496   0.323   1.451 -0.4408  0.7975 -0.5101
 3595TIP3    H232201   1.529   0.382   1.587 -1.3685  0.5786 -0.1778
 3596TIP3   OH232202   4.860   4.700  11.170 -0.2225 -0.2465 -0.4857
 3596TIP3    H132203   4.865   4.733  11.260  0.5767  0.6927 -0.8456
 3596TIP3    H232204   4.768   4.681  11.157 -0.1309 -2.1530  1.1138
 3597TIP3   OH232205   0.356   0.729   3.280 -0.1550 -0.0021  0.6240
 3597TIP3    H132206   0.410   0.775   3.217 -2.5184 -0.1829 -1.7149
 3597TIP3    H232207   0.366   0.636   3.258 -0.3406 -0.1304  1.0591
 3598TIP3   OH232208   1.627   0.956   4.432  0.2509 -0.5577 -0.1206
 3598TIP3    H132209   1.701   0.997   4.476 -0.1701  0.9404 -0.7235
 3598TIP3    H232210   1.665   0.907   4.360  0.7077 -0.3826  0.0014
 3599TIP3   OH232211   2.291   2.773  13.312  0.5137 -0.0193  0.1994
 3599TIP3    H132212   2.306   2.772  13.406  2.0565  1.2881  0.0034
 3599TIP3    H232213   2.234   2.698  13.296  2.2548 -1.8119  1.8404
 3600TIP3   OH232214   5.834   1.706  14.960  0.5830 -0.1373  0.1260
 3600TIP3    H132215   5.836   1.640  14.891  0.3118 -0.0350  0.0219
 3600TIP3    H232216   5.760   1.680  15.016  1.2868 -0.6867  0.8386
 3601TIP3   OH232217   5.675   1.452  12.656  0.1985  0.5040  0.1269
 3601TIP3    H132218   5.703   1.518  12.593  1.3566 -0.9188 -0.9253
 3601TIP3    H232219   5.581   1.467  12.667 -0.5207 -0.4337 -3.5633
 3602TIP3   OH232220   5.514   2.823  12.321 -0.4270 -1.0828  0.3516
 3602TIP3    H132221   5.491   2.806  12.230 -1.7518 -0.0340  0.4617
 3602TIP3    H232222   5.544   2.914  12.322  1.0996 -1.5555  0.7184
 3603TIP3   OH232223   3.850   3.753   3.021  0.2032 -0.4267 -0.3405
 3603TIP3    H132224   3.873   3.811   3.094 -1.8979  1.0774 -0.7638
 3603TIP3    H232225   3.766   3.787   2.989  0.6048 -1.5833 -2.8902
 3604TIP3   OH232226   5.697   3.879  13.925 -0.1652  0.1393 -0.5678
 3604TIP3    H132227   5.672   3.972  13.917 -2.2711 -0.3706 -0.4925
 3604TIP3    H232228   5.788   3.881  13.954 -0.0898  2.1841 -0.7968
 3605TIP3   OH232229   5.131   6.436   5.315  0.1057  0.1745  0.0057
 3605TIP3    H132230   5.190   6.361   5.318  0.4968  0.4194 -1.0923
 3605TIP3    H232231   5.049   6.404   5.353  0.6390 -0.4384  0.6772
 3606TIP3   OH232232   0.688   5.479  16.648 -0.6222  0.7920  0.0770
 3606TIP3    H132233   0.600   5.441  16.654 -0.6688  1.0357  1.0821
 3606TIP3    H232234   0.705   5.484  16.554 -0.2362 -2.5599 -0.1602
 3607TIP3   OH232235   1.423   4.614  16.554  0.1861 -0.3344  0.2273
 3607TIP3    H132236   1.363   4.569  16.495  0.7539  0.3992 -0.9401
 3607TIP3    H232237   1.371   4.684  16.593 -0.3418 -1.1635  1.0596
 3608TIP3   OH232238   2.270   2.617  14.328  0.3814 -0.0848  0.0792
 3608TIP3    H132239   2.362   2.592  14.334  0.3808  0.1552  1.5058
 3608TIP3    H232240   2.244   2.633  14.419 -0.8027  0.8047 -0.3951
 3609TIP3   OH232241   0.185   1.514   0.534  0.1060 -0.0853 -0.3542
 3609TIP3    H132242   0.174   1.535   0.442 -1.5855 -0.4245 -0.2800
 3609TIP3    H232243   0.184   1.418   0.537  1.1413 -0.0983 -0.0688
 3610TIP3   OH232244   0.861   6.634   2.767 -0.1059  0.6011  0.5121
 3610TIP3    H132245   0.829   6.718   2.800  1.4781  1.9520 -1.0847
 3610TIP3    H232246   0.819   6.624   2.682 -0.6942 -0.5318  0.9158
 3611TIP3   OH232247   1.410   4.479  11.842 -0.8552  0.2245 -0.2936
 3611TIP3    H132248   1.505   4.475  11.845 -0.7073 -0.2401 -2.9670
 3611TIP3    H232249   1.390   4.560  11.793 -1.7066 -0.6129 -1.4137
 3612TIP3   OH232250   3.858   4.955  14.974 -0.8608  0.2648 -0.4264
 3612TIP3    H132251   3.870   5.014  14.899 -1.8114  0.3302 -0.5381
 3612TIP3    H232252   3.772   4.917  14.961  0.7063 -3.2787 -1.8492
 3613TIP3   OH232253   0.090   6.507  13.282 -0.3172  0.5589 -0.4060
 3613TIP3    H132254   0.011   6.482  13.330 -0.9582  1.1282 -1.1312
 3613TIP3    H232255   0.133   6.424  13.262  0.0286  0.3138  1.2221
 3614TIP3   OH232256   2.694   1.838   4.315 -0.3524  0.4468  0.5718
 3614TIP3    H132257   2.598   1.835   4.320 -0.5022 -2.2583 -1.4947
 3614TIP3    H232258   2.723   1.761   4.364  0.8879  1.7907  2.0512
 3615TIP3   OH232259   4.016   3.542  12.707  0.8105 -0.3813  0.0035
 3615TIP3    H132260   3.964   3.485  12.764  0.2104 -2.8126 -2.7503
 3615TIP3    H232261   3.969   3.625  12.708  0.4297 -0.5508  2.3987
 3616TIP3   OH232262   1.025   3.378  14.421 -0.0747  0.4090  0.6020
 3616TIP3    H132263   1.066   3.321  14.355 -1.0542 -0.5613  0.8022
 3616TIP3    H232264   0.935   3.390  14.391 -0.3081  0.6041  1.3539
 3617TIP3   OH232265   0.082   0.100   0.917  0.5705  0.3533 -0.2409
 3617TIP3    H132266   0.102   0.040   0.845 -1.7868 -0.4537 -0.3066
 3617TIP3    H232267   0.167   0.125   0.952  1.6996 -1.0496 -1.8385
 3618TIP3   OH232268   0.360   3.002  14.925 -0.3641 -0.0916 -0.5733
 3618TIP3    H132269   0.429   3.064  14.947  0.7752 -0.5727 -2.5607
 3618TIP3    H232270   0.281   3.055  14.918 -0.0177  0.6186  0.7969
 3619TIP3   OH232271   0.742   6.655   0.055 -0.1878  0.9997  0.7568
 3619TIP3    H132272   0.832   6.687   0.049  0.6261 -1.2934 -1.1342
 3619TIP3    H232273   0.689   6.724   0.015  0.9900  1.5700  0.1192
 3620TIP3   OH232274   6.086   3.724   1.929  0.1973  0.0557 -0.0420
 3620TIP3    H132275   6.123   3.680   1.852 -0.7709 -0.6429 -0.1195
 3620TIP3    H232276   6.024   3.787   1.893  0.2374  0.2071  0.1496
 3621TIP3   OH232277   0.765   2.313   0.556 -0.5509  0.5559  0.2327
 3621TIP3    H132278   0.754   2.378   0.487 -1.4195  0.6744  0.4805
 3621TIP3    H232279   0.688   2.257   0.551  0.4417 -0.8317 -0.3402
 3622TIP3   OH232280   5.262   1.987   1.237 -0.3665  0.1029 -0.2096
 3622TIP3    H132281   5.288   1.922   1.302 -0.7490 -0.4733 -0.6254
 3622TIP3    H232282   5.232   1.936   1.162  0.1394  0.7556 -0.8748
 3623TIP3   OH232283   1.062   4.158   3.762 -0.0034  0.3036 -0.6843
 3623TIP3    H132284   1.114   4.144   3.683 -1.5332 -1.6468 -1.4378
 3623TIP3    H232285   0.979   4.113   3.744  0.1567 -1.6248  2.6135
 3624TIP3   OH232286   3.224   1.295   5.084 -0.1386 -0.0750  0.9890
 3624TIP3    H132287   3.251   1.304   5.175  0.0562 -1.8191  1.1339
 3624TIP3    H232288   3.144   1.242   5.087  1.2541 -2.4096  0.0550
 3625TIP3   OH232289   5.347   1.487  13.479  0.2823 -0.1096  0.4819
 3625TIP3    H132290   5.339   1.528  13.393 -1.2054 -0.6273  0.3374
 3625TIP3    H232291   5.437   1.504  13.506 -0.1016  2.7959  0.2219
 3626TIP3   OH232292   0.281   5.149   4.678 -0.2912  0.1862  0.2286
 3626TIP3    H132293   0.286   5.090   4.603  1.1414 -0.4492  0.7910
 3626TIP3    H232294   0.301   5.235   4.642  1.9164 -0.3304  0.0755
 3627TIP3   OH232295   3.920   1.640   3.132 -0.4093 -0.5317 -0.4347
 3627TIP3    H132296   3.871   1.558   3.123 -2.7205  0.7962 -0.8302
 3627TIP3    H232297   3.872   1.703   3.078 -0.9266  2.0083  2.6664
 3628TIP3   OH232298   6.800   5.720   3.336  0.1969 -0.1305 -0.6131
 3628TIP3    H132299   6.801   5.749   3.427  0.3218 -1.3475 -0.1989
 3628TIP3    H232300   6.839   5.633   3.339  0.6999  0.0320 -1.9190
 3629TIP3   OH232301   1.270   0.808  11.348 -0.7437 -0.3784  0.1857
 3629TIP3    H132302   1.183   0.789  11.313 -1.0935  2.5032 -0.7115
 3629TIP3    H232303   1.330   0.764  11.287 -1.5000  0.2508 -1.0498
 3630TIP3   OH232304   6.497   2.490   0.823 -0.1322 -0.0170  0.1606
 3630TIP3    H132305   6.465   2.581   0.826  0.6020  0.2187  1.4878
 3630TIP3    H232306   6.430   2.443   0.774 -0.4271  1.2775 -0.7443
 3631TIP3   OH232307   5.797   2.842  14.974 -0.1321 -0.2595  0.0962
 3631TIP3    H132308   5.802   2.762  15.027  1.2698 -0.3150 -0.0727
 3631TIP3    H232309   5.707   2.872  14.983 -0.8898 -2.2614 -0.4351
 3632TIP3   OH232310   2.830   4.031   5.644 -0.4385 -0.1271  0.5736
 3632TIP3    H132311   2.863   4.114   5.677  2.7945 -0.7526 -0.7029
 3632TIP3    H232312   2.861   3.966   5.708  0.5100 -0.7010 -0.4369
 3633TIP3   OH232313   4.369   2.520  16.319 -0.0578  0.5308  0.4797
 3633TIP3    H132314   4.448   2.487  16.276 -0.6957 -0.9079  0.3683
 3633TIP3    H232315   4.347   2.599  16.271  0.6932  0.3537 -0.1836
 3634TIP3   OH232316   4.824   4.122  16.358  0.2224 -0.0108 -0.3502
 3634TIP3    H132317   4.730   4.136  16.360  0.3571  0.9118  0.8736
 3634TIP3    H232318   4.840   4.057  16.427  0.6766  1.3999  0.9244
 3635TIP3   OH232319   2.328   1.068   2.797  0.3085 -0.2584 -0.2786
 3635TIP3    H132320   2.351   1.053   2.889 -1.2542 -2.3783 -0.1712
 3635TIP3    H232321   2.400   1.028   2.748  0.5883 -0.1246  0.0128
 3636TIP3   OH232322   2.777   4.949   2.045  0.5530  0.8766  0.5348
 3636TIP3    H132323   2.825   4.888   1.990  1.1969  0.0218  1.9989
 3636TIP3    H232324   2.728   5.004   1.983  1.4394  0.1237 -0.8768
 3637TIP3   OH232325   1.599   3.599  17.055 -0.0633 -0.1956 -0.2330
 3637TIP3    H132326   1.558   3.684  17.072  0.4617 -0.1025  0.6530
 3637TIP3    H232327   1.618   3.599  16.961  0.4513  0.9054 -0.1474
 3638TIP3   OH232328   1.329   6.177  15.387  0.4831  0.1001  0.1414
 3638TIP3    H132329   1.269   6.106  15.366  0.7604 -0.3358  0.8061
 3638TIP3    H232330   1.416   6.142  15.369  0.5266  1.1240 -1.9835
 3639TIP3   OH232331   3.119   4.287  11.535 -0.6428  0.3165  0.4115
 3639TIP3    H132332   3.051   4.355  11.533 -0.1236  0.8421  0.1757
 3639TIP3    H232333   3.188   4.322  11.479 -1.6521 -1.8372 -2.4425
 3640TIP3   OH232334   5.132   2.371   0.767 -0.0586  0.4392 -0.2071
 3640TIP3    H132335   5.155   2.447   0.714  1.4638  0.1079 -0.0580
 3640TIP3    H232336   5.195   2.304   0.742 -1.0601 -0.6318  0.0336
 3641TIP3   OH232337   2.711   0.154  16.177  0.4689  0.0437  0.1167
 3641TIP3    H132338   2.629   0.141  16.129  0.0898  0.2665  0.6920
 3641TIP3    H232339   2.775   0.100  16.131  0.6958  2.0406 -2.1344
 3642TIP3   OH232340   3.246   3.720   3.512 -0.2523  0.2981  0.3961
 3642TIP3    H132341   3.182   3.761   3.570 -0.0151  0.8337  0.2786
 3642TIP3    H232342   3.300   3.792   3.481 -2.0363  0.4763 -2.6498
 3643TIP3   OH232343   1.771   3.620  13.692 -0.3602  0.1513  0.2913
 3643TIP3    H132344   1.825   3.628  13.770  0.4762 -0.0112 -0.2633
 3643TIP3    H232345   1.747   3.527  13.688 -0.0202  0.0726  0.0998
 3644TIP3   OH232346   0.856   1.953  13.758  0.6052  0.0993  0.7509
 3644TIP3    H132347   0.769   1.974  13.792  0.2335 -0.5462  0.2159
 3644TIP3    H232348   0.908   2.031  13.776  0.1030  0.2374  1.6978
 3645TIP3   OH232349   3.069   1.866  16.110 -0.0905  0.2312  0.1679
 3645TIP3    H132350   3.011   1.937  16.137 -0.4109 -0.4364  1.3218
 3645TIP3    H232351   3.014   1.788  16.111  0.4243 -0.1497 -0.3962
 3646TIP3   OH232352   3.295   4.409  16.097  0.0384 -0.4834 -0.0787
 3646TIP3    H132353   3.374   4.374  16.057 -0.0893 -3.2319  1.7912
 3646TIP3    H232354   3.327   4.478  16.156  0.7045  0.1891 -1.1777
 3647TIP3   OH232355   2.906   4.671   3.699 -0.1198 -0.1552 -0.3357
 3647TIP3    H132356   2.825   4.640   3.659 -0.6243 -0.2758  0.7356
 3647TIP3    H232357   2.950   4.721   3.630 -2.6586  2.7098 -0.0734
 3648TIP3   OH232358   3.264   2.016   4.604 -0.5623  0.4608  0.2927
 3648TIP3    H132359   3.198   2.042   4.668 -0.9290  0.6016 -0.1320
 3648TIP3    H232360   3.334   2.081   4.614 -0.5294  0.3667  0.6811
 3649TIP3   OH232361   5.832   0.367  14.859  0.3914 -0.2530  0.4317
 3649TIP3    H132362   5.868   0.440  14.808  3.2468 -1.0548  1.1292
 3649TIP3    H232363   5.795   0.308  14.794 -0.9835  1.2395 -0.2167
 3650TIP3   OH232364   1.070   0.333   1.393 -0.0526  0.0743 -0.0289
 3650TIP3    H132365   1.044   0.251   1.434  1.2073 -0.2175  0.2080
 3650TIP3    H232366   1.106   0.385   1.465 -1.5103  1.1588 -0.0262
 3651TIP3   OH232367   2.439   5.106  16.091  0.2102 -0.0595  0.4433
 3651TIP3    H132368   2.417   5.126  16.000  0.2420 -0.8794  0.2476
 3651TIP3    H232369   2.355   5.104  16.136  0.2741  1.4952  0.6911
 3652TIP3   OH232370   0.562   0.722  14.932 -0.2918  0.0012 -0.1074
 3652TIP3    H132371   0.480   0.763  14.957 -0.2328 -1.1973  2.5090
 3652TIP3    H232372   0.579   0.751  14.843 -2.8939  1.2765 -0.2634
 3653TIP3   OH232373   6.038   0.173  12.292  0.1990  0.1160  0.7224
 3653TIP3    H132374   5.967   0.143  12.234  0.5177  1.6664 -0.5304
 3653TIP3    H232375   6.023   0.266  12.302  1.8094  0.3936  0.7994
 3654TIP3   OH232376   0.740   2.759   3.095 -0.2153 -0.5011  0.0659
 3654TIP3    H132377   0.796   2.812   3.038 -1.0243 -0.0239 -0.2988
 3654TIP3    H232378   0.718   2.818   3.167  1.4917 -1.3597  1.3556
 3655TIP3   OH232379   5.164   2.653  13.196  0.2915 -0.8939  0.4214
 3655TIP3    H132380   5.246   2.605  13.208  0.6062 -0.8835 -1.3742
 3655TIP3    H232381   5.175   2.696  13.112 -0.3359  1.6632  1.5661
 3656TIP3   OH232382   3.866   5.000  13.033  0.4458 -0.3695 -0.3017
 3656TIP3    H132383   3.789   4.991  12.977  1.4744 -1.4566 -1.5855
 3656TIP3    H232384   3.939   4.970  12.979  1.6807 -0.0434  1.1318
 3657TIP3   OH232385   0.538   0.396  16.218 -0.0981 -0.6211 -0.0021
 3657TIP3    H132386   0.487   0.316  16.234 -0.9334 -0.1646 -0.3595
 3657TIP3    H232387   0.477   0.467  16.234  0.6182 -0.0463  0.2157
 3658TIP3   OH232388   3.337   0.172   4.598  0.3516  0.0723  0.1410
 3658TIP3    H132389   3.314   0.257   4.559  1.7193 -0.2513 -1.5178
 3658TIP3    H232390   3.431   0.164   4.583  0.5104 -1.1242  1.5748
 3659TIP3   OH232391   2.197   3.725   1.135 -0.2389 -0.2094 -0.3982
 3659TIP3    H132392   2.223   3.637   1.107 -1.8832 -0.1240 -2.4385
 3659TIP3    H232393   2.273   3.780   1.114 -0.9451 -0.3553 -4.0152
 3660TIP3   OH232394   6.788   0.396   4.958  0.1789 -0.7468 -0.3500
 3660TIP3    H132395   6.860   0.349   4.916  0.3474 -1.2871  0.5270
 3660TIP3    H232396   6.824   0.482   4.977  0.6073 -1.0192  0.1014
 3661TIP3   OH232397   0.581   2.058  16.613 -0.8328  0.3679  0.4837
 3661TIP3    H132398   0.568   2.126  16.679  0.6167 -0.7298  1.9791
 3661TIP3    H232399   0.516   1.991  16.635  0.3771 -0.5051  1.5688
 3662TIP3   OH232400   4.985   6.494  13.458  0.0160  0.3304 -0.2798
 3662TIP3    H132401   4.927   6.496  13.381  0.5533  1.0968 -0.6755
 3662TIP3    H232402   5.072   6.482  13.421  0.1454 -0.5587  0.3002
 3663TIP3   OH232403   0.114   3.862  14.059  0.7426  0.1506  0.3576
 3663TIP3    H132404   0.180   3.918  14.099  0.6057  0.4588  0.1481
 3663TIP3    H232405   0.030   3.903  14.080  0.4866 -1.1599  2.1244
 3664TIP3   OH232406   2.926   5.040   6.000  0.0668 -0.5179  0.7008
 3664TIP3    H132407   2.911   4.967   5.941 -0.3238 -0.6884  1.0054
 3664TIP3    H232408   2.874   5.019   6.078  0.7229 -0.3906  1.1848
 3665TIP3   OH232409   3.296   0.701  12.114  0.1685  0.2135 -0.2342
 3665TIP3    H132410   3.387   0.673  12.127  0.1664  1.1046  2.2259
 3665TIP3    H232411   3.301   0.797  12.107 -0.7918  0.6983  3.7253
 3666TIP3   OH232412   6.308   3.569   5.462 -0.7250  0.0505 -0.0334
 3666TIP3    H132413   6.338   3.481   5.440  0.5427  0.5518 -0.4202
 3666TIP3    H232414   6.365   3.597   5.534  1.0537  1.7004 -1.9556
 3667TIP3   OH232415   0.707   1.619  12.770  0.0312 -0.1009 -0.6637
 3667TIP3    H132416   0.748   1.563  12.836 -1.0164 -1.8314 -1.4246
 3667TIP3    H232417   0.750   1.704  12.781  0.6848 -0.6491  1.4544
 3668TIP3   OH232418   6.160   4.116  15.717 -0.4138  0.2868 -0.2702
 3668TIP3    H132419   6.154   4.021  15.728 -0.5387  0.2634 -0.5237
 3668TIP3    H232420   6.070   4.145  15.707 -0.4245  0.5203  0.4625
 3669TIP3   OH232421   3.491   1.988  11.256  0.5640 -0.5429 -0.3320
 3669TIP3    H132422   3.563   2.039  11.220 -1.0848  2.7958  0.6703
 3669TIP3    H232423   3.524   1.954  11.339  1.5109 -0.5576 -0.7071
 3670TIP3   OH232424   0.897   4.802  15.815 -0.3732  0.2130 -0.2596
 3670TIP3    H132425   0.922   4.732  15.755  1.2873  0.8643 -0.3880
 3670TIP3    H232426   0.828   4.850  15.768  1.4247  1.1822 -2.0604
 3671TIP3   OH232427   1.449   1.350   2.848 -0.4005 -0.0318 -0.7071
 3671TIP3    H132428   1.403   1.266   2.844 -1.0310  0.3301 -1.0652
 3671TIP3    H232429   1.403   1.399   2.916 -0.6296  0.3780 -1.1552
 3672TIP3   OH232430   0.315   3.975  12.685  0.0235  0.8054  0.2791
 3672TIP3    H132431   0.363   4.017  12.613  0.7980  1.1144  0.9625
 3672TIP3    H232432   0.279   4.048  12.735 -1.2192  0.5831 -0.2298
 3673TIP3   OH232433   6.287   3.662   4.197 -0.1016  0.1973  0.2776
 3673TIP3    H132434   6.307   3.605   4.122 -2.0428 -0.5342  0.2576
 3673TIP3    H232435   6.354   3.730   4.194 -0.1786  0.2664 -2.2108
 3674TIP3   OH232436   1.887   3.060  14.102 -0.0213  0.0252 -0.2164
 3674TIP3    H132437   1.886   3.156  14.098 -0.0225  0.0414  0.1346
 3674TIP3    H232438   1.815   3.033  14.046  0.4978  0.2039 -0.9840
 3675TIP3   OH232439   2.867   2.028   6.490  0.4994 -0.8204 -0.7885
 3675TIP3    H132440   2.920   2.106   6.503  0.1437 -0.8525  1.2530
 3675TIP3    H232441   2.794   2.057   6.435  0.6699  0.1591 -0.5188
 3676TIP3   OH232442   4.425   6.161  14.119 -0.0518 -0.0829 -0.1426
 3676TIP3    H132443   4.430   6.214  14.199 -0.0050  1.3936 -1.0728
 3676TIP3    H232444   4.486   6.204  14.058  0.4583 -1.6022 -0.7542
 3677TIP3   OH232445   0.207   5.618  14.775 -0.5818  0.0658 -0.1721
 3677TIP3    H132446   0.152   5.560  14.827 -0.0948  0.4680  0.8089
 3677TIP3    H232447   0.206   5.580  14.687 -0.5402 -1.2298  0.3732
 3678TIP3   OH232448   5.079   6.164  15.764 -0.5008 -0.0873 -0.2835
 3678TIP3    H132449   5.092   6.214  15.684  1.4002  1.6442  1.0009
 3678TIP3    H232450   4.995   6.120  15.752 -0.7980  0.9887 -2.7299
 3679TIP3   OH232451   2.116   5.068   4.668  0.1606 -0.2147  0.2472
 3679TIP3    H132452   2.108   5.096   4.577  0.3645  0.1387  0.3370
 3679TIP3    H232453   2.180   4.997   4.666  0.5747  0.1544  0.1859
 3680TIP3   OH232454   6.195   5.045   1.300 -0.1351  0.4418  0.2840
 3680TIP3    H132455   6.134   5.109   1.262 -1.9243 -1.2928  0.0729
 3680TIP3    H232456   6.251   5.018   1.228 -0.9141  0.0794 -0.1971
 3681TIP3   OH232457   3.690   4.244  11.815  0.1653  0.7915  0.1878
 3681TIP3    H132458   3.727   4.312  11.759  1.2142 -0.0360 -0.1635
 3681TIP3    H232459   3.690   4.165  11.761  0.8857  0.0451  1.2351
 3682TIP3   OH232460   2.412   5.833  16.169 -0.3270  0.8179  0.1009
 3682TIP3    H132461   2.379   5.804  16.254 -1.5644  0.1085 -0.5930
 3682TIP3    H232462   2.498   5.792  16.161 -0.2497  0.7978  0.9451
 3683TIP3   OH232463   4.418   1.263   0.238 -0.1518  0.0666  0.3193
 3683TIP3    H132464   4.326   1.241   0.230 -0.0208 -0.3457 -0.1241
 3683TIP3    H232465   4.463   1.199   0.182  0.4219  0.0860  0.7517
 3684TIP3   OH232466   4.549   4.348  13.620 -0.0563  0.4728 -0.5716
 3684TIP3    H132467   4.516   4.409  13.553  2.4665  0.9134 -1.5281
 3684TIP3    H232468   4.508   4.378  13.701 -2.4735  0.5111 -1.7201
 3685TIP3   OH232469   3.000   4.577  16.658 -0.1593 -0.0419 -0.1781
 3685TIP3    H132470   2.922   4.578  16.714  0.5468 -0.8821  0.8414
 3685TIP3    H232471   2.975   4.522  16.583 -0.2777 -1.0215  0.5633
 3686TIP3   OH232472   3.009   0.010   3.068  0.2037 -0.0062  0.1176
 3686TIP3    H132473   2.977  -0.080   3.066  1.1515 -0.3550 -0.0001
 3686TIP3    H232474   2.964   0.053   2.996  0.1990 -0.5509 -0.2121
 3687TIP3   OH232475   1.832   5.617  16.579 -0.5372  0.0791  0.3950
 3687TIP3    H132476   1.762   5.637  16.517  0.3435  0.3598 -0.5405
 3687TIP3    H232477   1.842   5.697  16.631  0.1051  0.6101 -0.5058
 3688TIP3   OH232478   6.331   3.265   5.171 -0.0139 -0.1726  0.1291
 3688TIP3    H132479   6.312   3.201   5.102  0.3971  1.6868 -1.8378
 3688TIP3    H232480   6.391   3.327   5.129 -0.6031  1.6494  1.8369
 3689TIP3   OH232481   4.652   0.398   3.807  0.4095  0.3843 -0.2501
 3689TIP3    H132482   4.697   0.432   3.730  0.0822  0.3069 -0.4783
 3689TIP3    H232483   4.717   0.342   3.850 -0.1011 -1.4769 -1.7466
 3690TIP3   OH232484   1.024   4.544  16.417 -0.1317  0.0052  0.6760
 3690TIP3    H132485   0.975   4.519  16.495  0.6119  0.1862  1.2152
 3690TIP3    H232486   1.024   4.640  16.419  0.7594  0.0073  1.0246
 3691TIP3   OH232487   1.082   0.256  14.840  0.0048 -0.0483  0.2025
 3691TIP3    H132488   1.038   0.339  14.825  1.0638  0.7359  1.3213
 3691TIP3    H232489   1.142   0.247  14.766 -0.1446  0.1551  0.0554
 3692TIP3   OH232490   3.383   0.895   1.871 -0.0966 -0.1753  0.0225
 3692TIP3    H132491   3.444   0.893   1.798  0.6071  2.7009  0.4204
 3692TIP3    H232492   3.297   0.888   1.831  0.3216  0.3578 -1.0157
 3693TIP3   OH232493   2.484   3.059   3.181 -0.1612  0.0232  0.5735
 3693TIP3    H132494   2.507   3.095   3.095 -0.6881 -0.1935  0.3370
 3693TIP3    H232495   2.404   3.107   3.206 -0.7017 -0.7644  0.3873
 3694TIP3   OH232496   3.229   4.143  16.180  0.0466  0.0595 -0.6988
 3694TIP3    H132497   3.184   4.211  16.231  1.5557  1.1524 -0.7883
 3694TIP3    H232498   3.254   4.186  16.099  1.4715 -0.4474 -0.5481
 3695TIP3   OH232499   1.250   2.858  16.355 -0.0231  0.3676 -0.6130
 3695TIP3    H132500   1.316   2.796  16.325 -0.6798 -1.0571  0.7633
 3695TIP3    H232501   1.170   2.832  16.309 -0.6929 -0.9333  1.1408
 3696TIP3   OH232502   6.258   4.121   3.055 -0.0022 -0.4146  0.3365
 3696TIP3    H132503   6.264   4.034   3.016 -0.2564  0.1212 -0.9567
 3696TIP3    H232504   6.191   4.166   3.002 -3.5510 -0.9345  3.9141
 3697TIP3   OH232505   4.972   3.918  12.857  0.4444 -0.0388  0.8292
 3697TIP3    H132506   4.901   3.952  12.913  0.5533  0.6424  0.5583
 3697TIP3    H232507   5.015   3.996  12.823 -1.1033 -0.3585 -2.1283
 3698TIP3   OH232508   0.909   4.958   0.229 -0.0583  0.3057  0.0727
 3698TIP3    H132509   0.830   4.962   0.283  0.0433 -0.4681  0.2897
 3698TIP3    H232510   0.974   4.918   0.285  0.1268 -0.2517 -0.5327
 3699TIP3   OH232511   3.864   3.827   0.402  0.4126  0.0292  0.4202
 3699TIP3    H132512   3.771   3.841   0.417  0.4806  0.6661  0.2827
 3699TIP3    H232513   3.872   3.823   0.306  0.8306  2.4426  0.2718
 3700TIP3   OH232514   3.552   5.359  15.405  0.2392  0.6890  0.0151
 3700TIP3    H132515   3.609   5.372  15.480  0.5022  1.5099 -0.3169
 3700TIP3    H232516   3.559   5.440  15.355 -0.3570  0.3672 -0.6100
 3701TIP3   OH232517   3.867   6.610   5.143 -0.2735 -0.3397  0.5701
 3701TIP3    H132518   3.785   6.570   5.113  1.0023 -4.4564  1.9235
 3701TIP3    H232519   3.848   6.640   5.232 -0.2315 -1.8368  1.1109
 3702TIP3   OH232520   5.206   2.036   2.919  0.1011 -0.7796  0.1134
 3702TIP3    H132521   5.137   2.077   2.867 -0.4147 -2.0833 -0.2892
 3702TIP3    H232522   5.286   2.049   2.867 -0.2901 -1.4674 -0.6920
 3703TIP3   OH232523   6.665   0.203  14.721  0.4362  0.2213 -0.4008
 3703TIP3    H132524   6.647   0.150  14.799 -0.1677  1.2047  0.1549
 3703TIP3    H232525   6.613   0.162  14.652  0.0171  0.0430  0.0130
 3704TIP3   OH232526   5.251   2.887  15.187  0.3124  0.0135  0.7890
 3704TIP3    H132527   5.239   2.888  15.092 -0.1076  0.5962  0.8420
 3704TIP3    H232528   5.302   2.807  15.204  1.1783  0.3791 -0.0123
 3705TIP3   OH232529   0.775   3.966  17.039 -0.2620  0.1313 -0.3582
 3705TIP3    H132530   0.816   3.889  17.000 -0.6704  0.6832 -1.9408
 3705TIP3    H232531   0.834   4.038  17.017 -0.5097  0.4598  0.0436
 3706TIP3   OH232532   3.601   1.311  12.373  0.1507  0.1654  0.3682
 3706TIP3    H132533   3.632   1.263  12.450  0.8013 -0.3716 -0.2187
 3706TIP3    H232534   3.680   1.331  12.323 -0.3814 -0.7412 -0.8778
 3707TIP3   OH232535   3.276   2.995  17.148 -0.1005  0.3704  0.2034
 3707TIP3    H132536   3.369   2.986  17.131  0.3058 -1.0684  2.7227
 3707TIP3    H232537   3.268   3.075  17.201 -0.3909  0.7759 -0.4359
 3708TIP3   OH232538   6.562   5.500   1.185 -0.5034 -0.2398  0.3950
 3708TIP3    H132539   6.656   5.503   1.201  0.1036 -1.7460 -2.2654
 3708TIP3    H232540   6.539   5.588   1.157  0.7203 -0.4915 -1.5410
 3709TIP3   OH232541   3.397   3.385  12.164  0.5827  0.1258  0.7232
 3709TIP3    H132542   3.450   3.460  12.191  0.4792  0.7112 -0.6357
 3709TIP3    H232543   3.411   3.378  12.070  2.0038 -2.6669  1.0300
 3710TIP3   OH232544   1.686   4.176  14.483  0.1692 -0.5778  0.4190
 3710TIP3    H132545   1.722   4.087  14.475 -1.5081 -1.1853 -1.2960
 3710TIP3    H232546   1.602   4.171  14.436  0.5384  2.2107 -0.6742
 3711TIP3   OH232547   0.788   1.093  14.361 -0.3842 -0.0847  0.1652
 3711TIP3    H132548   0.810   1.157  14.293 -1.8215 -1.0191 -1.2676
 3711TIP3    H232549   0.771   1.146  14.439  0.6084  1.0867 -0.3748
 3712TIP3   OH232550   5.553   1.187  13.655 -0.0632  0.6328  0.3819
 3712TIP3    H132551   5.601   1.104  13.665 -0.5436  0.2473 -0.4366
 3712TIP3    H232552   5.475   1.176  13.709  0.7957  1.3158  1.8307
 3713TIP3   OH232553   3.858   0.527   3.491 -0.4082  0.0451 -0.1988
 3713TIP3    H132554   3.894   0.510   3.578  0.9225  0.0581 -0.7216
 3713TIP3    H232555   3.784   0.467   3.484  1.9134 -3.0827 -0.5976
 3714TIP3   OH232556   3.870   6.177   2.940 -0.0115 -0.3835  0.2316
 3714TIP3    H132557   3.779   6.204   2.928  0.0397 -0.8093 -1.2769
 3714TIP3    H232558   3.872   6.139   3.028 -1.4289 -0.9318  0.0567
 3715TIP3   OH232559   5.508   6.325   1.545  0.0842 -0.2267  0.4583
 3715TIP3    H132560   5.582   6.272   1.575 -0.5969 -1.5693 -0.1622
 3715TIP3    H232561   5.478   6.370   1.624 -0.0024 -1.6285  1.2504
 3716TIP3   OH232562   2.285   2.697   6.092 -0.2186 -0.8136  0.3303
 3716TIP3    H132563   2.349   2.764   6.115 -0.9923 -0.3969  1.3376
 3716TIP3    H232564   2.222   2.698   6.164 -1.5210 -1.0096 -0.7603
 3717TIP3   OH232565   4.762   3.117   2.077  0.1675  0.1899  0.3236
 3717TIP3    H132566   4.785   3.063   2.152  2.6008 -1.1186 -1.2259
 3717TIP3    H232567   4.824   3.190   2.080  0.2149  0.1814 -0.3257
 3718TIP3   OH232568   6.392   2.445   4.580 -0.4102 -0.7232  0.0449
 3718TIP3    H132569   6.441   2.521   4.550 -0.7707 -0.7642 -0.6671
 3718TIP3    H232570   6.458   2.383   4.609 -0.0635 -0.6207 -0.5294
 3719TIP3   OH232571   5.749   5.313   5.921  0.4302 -0.2520  0.1976
 3719TIP3    H132572   5.768   5.372   5.994  2.7037  1.3780 -1.5566
 3719TIP3    H232573   5.729   5.229   5.963  2.6717  0.3156  2.7079
 3720TIP3   OH232574   4.615   1.458   2.105  0.4084  0.5382  0.1092
 3720TIP3    H132575   4.652   1.535   2.061 -1.1336  0.1755 -1.9784
 3720TIP3    H232576   4.525   1.452   2.072  0.8032 -2.8035 -0.7916
 3721TIP3   OH232577   6.747   6.427  14.857 -0.0388  0.0793 -0.8660
 3721TIP3    H132578   6.692   6.411  14.933 -0.1265 -2.0031 -1.3145
 3721TIP3    H232579   6.824   6.372  14.870  1.2021  1.7073 -1.0395
 3722TIP3   OH232580   3.772   4.738   4.908  0.5300  0.3109 -0.1172
 3722TIP3    H132581   3.741   4.652   4.938  3.1766 -0.0227  2.0364
 3722TIP3    H232582   3.728   4.751   4.824 -1.4738 -2.2302  0.4054
 3723TIP3   OH232583   1.587   6.182  10.572 -0.0748 -0.5433 -0.4785
 3723TIP3    H132584   1.536   6.256  10.537  0.8283  1.2470  1.7821
 3723TIP3    H232585   1.551   6.106  10.526 -1.0319  1.2453 -2.9555
 3724TIP3   OH232586   0.270   1.805  16.406  0.4022  0.3338 -0.2676
 3724TIP3    H132587   0.189   1.853  16.391  0.5882  0.1970 -1.9060
 3724TIP3    H232588   0.298   1.832  16.494 -3.0776 -2.0909  1.8208
 3725TIP3   OH232589   2.904   0.505  15.975 -0.2984 -0.1529 -0.1926
 3725TIP3    H132590   2.903   0.414  15.945  1.0898  0.1292 -1.1810
 3725TIP3    H232591   2.943   0.554  15.903  1.2639  0.8578  1.2648
 3726TIP3   OH232592   4.605   4.851  13.017 -0.3258  0.5061 -0.0556
 3726TIP3    H132593   4.560   4.882  12.939  1.8111 -0.2441 -1.6922
 3726TIP3    H232594   4.568   4.765  13.035 -1.9594  1.3411  0.8068
 3727TIP3   OH232595   0.124   6.206   5.465  0.4686  0.1506  0.5757
 3727TIP3    H132596   0.085   6.256   5.393  0.3282 -1.4625 -0.5155
 3727TIP3    H232597   0.049   6.169   5.512  0.5711 -1.9313 -0.7816
 3728TIP3   OH232598   5.739   2.997  12.725  0.5470 -0.3294 -0.0193
 3728TIP3    H132599   5.791   3.070  12.760 -1.0884 -0.3168  2.7338
 3728TIP3    H232600   5.698   2.958  12.803 -0.2643 -2.9094 -1.6238
 3729TIP3   OH232601   1.701   4.374  11.985 -0.1842  0.7093  0.8767
 3729TIP3    H132602   1.723   4.288  11.949 -1.1438 -0.0616  2.0440
 3729TIP3    H232603   1.739   4.436  11.922  1.9590 -0.5174  0.8352
 3730TIP3   OH232604   1.826   0.728   5.254  0.4987  0.0503 -0.0879
 3730TIP3    H132605   1.836   0.678   5.335 -0.4828 -1.0125 -0.6029
 3730TIP3    H232606   1.734   0.720   5.232  0.0978  2.7392  0.2029
 3731TIP3   OH232607   3.115   5.604  12.122 -0.2378  0.7409 -0.0920
 3731TIP3    H132608   3.061   5.555  12.184  2.5775  0.4173  2.3027
 3731TIP3    H232609   3.142   5.682  12.169  0.1066  1.7202 -1.8065
 3732TIP3   OH232610   0.285   0.486  12.496  0.3037 -0.0215 -0.7363
 3732TIP3    H132611   0.234   0.441  12.429  0.4933 -0.0712 -0.8466
 3732TIP3    H232612   0.249   0.575  12.498  0.5712  0.0957 -1.1874
 3733TIP3   OH232613   2.256   2.319  11.239  0.3523 -0.3943 -0.0229
 3733TIP3    H132614   2.278   2.311  11.146 -0.7197 -0.0198 -0.3253
 3733TIP3    H232615   2.166   2.350  11.239  0.3976 -0.2383  1.1513
 3734TIP3   OH232616   2.055   3.332  16.532  0.2766 -0.1103  0.2639
 3734TIP3    H132617   2.116   3.273  16.488  1.7278  0.2332  1.6845
 3734TIP3    H232618   2.107   3.372  16.602 -1.6776 -0.0571  1.7905
 3735TIP3   OH232619   3.794   1.315  10.277  0.0685 -0.4772 -0.0885
 3735TIP3    H132620   3.831   1.249  10.335  0.2188  0.1446  0.5350
 3735TIP3    H232621   3.791   1.394  10.330 -3.2228 -0.7360  0.3208
 3736TIP3   OH232622   4.558   6.013   3.795 -0.0515 -0.1679 -0.2343
 3736TIP3    H132623   4.486   6.072   3.815 -1.1740 -0.6332 -2.4999
 3736TIP3    H232624   4.545   5.990   3.703  2.6050 -0.8399 -0.5396
 3737TIP3   OH232625   0.487   2.494   5.379  0.2077 -0.0138  0.3091
 3737TIP3    H132626   0.518   2.490   5.289  1.0012  0.4100  0.5570
 3737TIP3    H232627   0.481   2.587   5.399 -2.8493  0.0116 -0.2502
 3738TIP3   OH232628   0.794   4.626  16.831 -0.3536  0.0326  0.1096
 3738TIP3    H132629   0.865   4.572  16.797 -0.6861 -0.9622  0.9407
 3738TIP3    H232630   0.791   4.702  16.772  0.0906 -0.8679 -1.1153
 3739TIP3   OH232631   0.970   6.694   1.088 -0.5841 -0.2091  0.1958
 3739TIP3    H132632   0.881   6.686   1.125 -0.1542 -3.0721  0.8916
 3739TIP3    H232633   1.021   6.733   1.158 -0.7291 -1.3130  0.9445
 3740TIP3   OH232634   3.726   6.548  14.073 -0.0098 -0.1562 -0.2554
 3740TIP3    H132635   3.679   6.598  14.006 -0.8475 -0.4628  0.0916
 3740TIP3    H232636   3.661   6.486  14.106  1.2549 -2.1702 -1.3634
 3741TIP3   OH232637   2.464   2.671  14.722 -0.3532 -0.5408  0.2551
 3741TIP3    H132638   2.405   2.625  14.662 -1.7304 -0.6029  1.5804
 3741TIP3    H232639   2.409   2.692  14.797  1.8853 -2.8307  2.7226
 3742TIP3   OH232640   5.884   2.490  11.347  0.7860  0.0904  0.0830
 3742TIP3    H132641   5.917   2.464  11.433  0.9562 -0.5409 -0.1678
 3742TIP3    H232642   5.958   2.478  11.288 -0.1118 -2.2998 -0.6654
 3743TIP3   OH232643   4.321   6.505   3.696  0.1481  0.2326  0.3023
 3743TIP3    H132644   4.401   6.493   3.747  0.4312  0.8437  0.0112
 3743TIP3    H232645   4.334   6.454   3.616 -0.0491 -0.2393  0.5682
 3744TIP3   OH232646   2.674   5.739  16.191 -0.1587 -0.1738  0.5278
 3744TIP3    H132647   2.688   5.662  16.137  0.9818 -0.0181  0.5803
 3744TIP3    H232648   2.666   5.706  16.281  1.7107 -0.1673  0.7459
 3745TIP3   OH232649   5.465   4.538  10.455 -0.3283  0.3844  0.2953
 3745TIP3    H132650   5.432   4.483  10.526  1.8780 -2.2345 -0.5177
 3745TIP3    H232651   5.387   4.567  10.408 -1.6448 -1.0859  1.4572
 3746TIP3   OH232652   4.642   4.965   0.968  0.1913 -0.5154  0.3525
 3746TIP3    H132653   4.561   5.006   0.941 -0.9548 -1.1983  2.4837
 3746TIP3    H232654   4.637   4.876   0.933 -0.9893 -1.1984  2.1122
 3747TIP3   OH232655   6.106   0.009  16.885 -0.5476  0.1266  0.3052
 3747TIP3    H132656   6.056   0.059  16.949  0.8102  1.2722  0.5129
 3747TIP3    H232657   6.167   0.072  16.847 -1.8626 -0.2640 -2.7971
 3748TIP3   OH232658   5.473   5.448   3.083  0.1069  0.2109  0.5487
 3748TIP3    H132659   5.497   5.480   2.996  1.1309  2.3310  1.5384
 3748TIP3    H232660   5.490   5.354   3.079  0.6519  0.3400 -1.3532
 3749TIP3   OH232661   4.882   2.408   4.378  0.0406  0.0723  0.3129
 3749TIP3    H132662   4.957   2.391   4.322 -0.4180 -0.8045 -0.0635
 3749TIP3    H232663   4.849   2.493   4.349  2.2318  1.6290  2.0413
 3750TIP3   OH232664   2.107   2.023   4.519 -0.3708  0.9694  0.4301
 3750TIP3    H132665   2.094   2.114   4.493  1.5817  1.4897  1.1123
 3750TIP3    H232666   2.147   1.981   4.443  1.5209  1.4665  1.1093
 3751TIP3   OH232667   3.449   2.608   1.910  0.3978  0.2157  0.3521
 3751TIP3    H132668   3.422   2.699   1.895  0.6476  0.0514 -1.3317
 3751TIP3    H232669   3.544   2.610   1.907  0.3981 -0.3837 -1.9784
 3752TIP3   OH232670   4.465   1.604  13.464  0.4921  0.1774 -0.8673
 3752TIP3    H132671   4.413   1.539  13.513 -0.6551 -0.5436 -2.9167
 3752TIP3    H232672   4.554   1.569  13.464  0.0685 -0.9315 -1.1409
 3753TIP3   OH232673   5.407   0.917  13.787  0.2285  1.2087  0.3304
 3753TIP3    H132674   5.453   0.906  13.870  0.0224  1.8851  0.5382
 3753TIP3    H232675   5.461   0.871  13.723 -0.8906 -1.6150  1.2331
 3754TIP3   OH232676   4.403   1.025  15.556 -0.0744 -0.3186 -0.0294
 3754TIP3    H132677   4.440   1.074  15.629  0.3235 -0.6525 -0.0015
 3754TIP3    H232678   4.315   1.061  15.544 -0.1315 -0.2450  0.5971
 3755TIP3   OH232679   4.940   3.177  11.173 -0.4184 -0.0631 -0.6095
 3755TIP3    H132680   5.018   3.224  11.142 -1.2076  0.6155 -1.6360
 3755TIP3    H232681   4.918   3.118  11.100 -0.4138 -0.8388 -0.0009
 3756TIP3   OH232682   0.788   1.307   5.081  0.3367  0.6468 -0.4383
 3756TIP3    H132683   0.752   1.257   5.007 -1.9365 -0.3498  1.2208
 3756TIP3    H232684   0.842   1.244   5.129 -0.3889  0.4987  0.2044
 3757TIP3   OH232685   2.084   1.331   3.646 -0.1172 -0.2040  0.2787
 3757TIP3    H132686   2.020   1.285   3.701 -0.8838 -0.4522 -0.7846
 3757TIP3    H232687   2.099   1.414   3.690  0.8821 -1.2155  1.9588
 3758TIP3   OH232688   5.436   4.851   2.791  0.0047  0.0170 -0.1545
 3758TIP3    H132689   5.411   4.899   2.869 -0.6039  1.4094 -1.1695
 3758TIP3    H232690   5.358   4.799   2.769  0.5237 -1.1856  0.7077
 3759TIP3   OH232691   4.503   5.066   4.191  0.0896  0.0064 -0.3166
 3759TIP3    H132692   4.553   5.108   4.261 -0.3072  1.5093 -0.8973
 3759TIP3    H232693   4.523   5.118   4.113 -1.5278 -0.0126 -0.7824
 3760TIP3   OH232694   5.586   5.821  16.325  0.2526 -0.0748 -0.4009
 3760TIP3    H132695   5.608   5.909  16.294  2.4097 -0.5345 -0.3774
 3760TIP3    H232696   5.496   5.827  16.354  0.8366  2.5659  1.1391
 3761TIP3   OH232697   1.734   3.706  11.393  0.2138  0.0844 -0.1476
 3761TIP3    H132698   1.789   3.641  11.350  1.2793  0.5591  0.4721
 3761TIP3    H232699   1.666   3.726  11.329 -0.3765 -1.9179 -0.1990
 3762TIP3   OH232700   0.200   2.687   2.723 -0.1589  0.3150 -0.3736
 3762TIP3    H132701   0.165   2.695   2.634  1.9471  0.1575 -1.2821
 3762TIP3    H232702   0.228   2.775   2.745 -0.8420  0.3881  0.2351
 3763TIP3   OH232703   4.035   2.371  12.807  0.4343 -0.2053  0.3795
 3763TIP3    H132704   3.949   2.350  12.772  1.1408 -0.2805 -1.4226
 3763TIP3    H232705   4.033   2.465  12.822 -0.2759 -0.3613  1.2871
 3764TIP3   OH232706   4.306   3.181  14.742  0.0120 -0.0805  0.0435
 3764TIP3    H132707   4.341   3.116  14.681 -0.3378  0.5721 -0.8727
 3764TIP3    H232708   4.360   3.171  14.820  2.2648  0.8295 -1.2928
 3765TIP3   OH232709   1.533   4.764  16.092  0.6781 -0.2858  0.1992
 3765TIP3    H132710   1.524   4.708  16.016 -2.8775 -0.0292  0.2564
 3765TIP3    H232711   1.514   4.707  16.167  1.6858  0.0085  0.7050
 3766TIP3   OH232712   5.437   3.272  14.523 -0.4242 -0.9155  0.1452
 3766TIP3    H132713   5.491   3.237  14.453 -0.7671  0.0578 -0.6237
 3766TIP3    H232714   5.427   3.365  14.502 -1.1382 -0.7626  1.0915
 3767TIP3   OH232715   0.900   0.541  13.236  0.6573  0.3477 -0.5148
 3767TIP3    H132716   0.884   0.561  13.329  0.1197 -0.8804 -0.3211
 3767TIP3    H232717   0.897   0.626  13.192 -0.6728  0.7897  0.3655
 3768TIP3   OH232718   6.589   3.476  10.577  0.0633  0.0728  0.5297
 3768TIP3    H132719   6.530   3.511  10.644 -1.9760 -0.7225 -0.7667
 3768TIP3    H232720   6.541   3.403  10.538  1.7306 -0.3140 -0.9198
 3769TIP3   OH232721   6.418   4.099   2.727  0.1630  0.4915  0.5067
 3769TIP3    H132722   6.429   4.010   2.760 -1.7741  0.7574  2.0930
 3769TIP3    H232723   6.426   4.091   2.632 -0.0918 -1.3815  0.6052
 3770TIP3   OH232724   2.807   5.267   5.824 -0.0223 -0.2503 -0.2654
 3770TIP3    H132725   2.845   5.179   5.834  0.8400 -0.2941 -3.0866
 3770TIP3    H232726   2.733   5.255   5.764 -0.2742  0.8836 -0.2116
 3771TIP3   OH232727   5.167   1.479  16.569 -0.7167  0.8512  0.2787
 3771TIP3    H132728   5.204   1.556  16.527 -0.9259  1.3380  0.9753
 3771TIP3    H232729   5.130   1.427  16.497  1.3444  0.3135 -0.4397
 3772TIP3   OH232730   4.495   3.347   0.238 -0.3209 -0.3699  0.2216
 3772TIP3    H132731   4.447   3.403   0.300  1.4034  1.4341  0.0516
 3772TIP3    H232732   4.439   3.341   0.162  0.5028  3.7415 -0.9814
 3773TIP3   OH232733   6.716   4.904   3.079  0.1687 -0.5472  0.1360
 3773TIP3    H132734   6.647   4.969   3.091  0.9905  0.6482 -1.2853
 3773TIP3    H232735   6.714   4.852   3.159 -0.9495  0.8097  1.0379
 3774TIP3   OH232736   0.134   2.278   2.654 -0.3371  0.1436 -0.0616
 3774TIP3    H132737   0.045   2.307   2.632  0.0502  1.8383  0.4678
 3774TIP3    H232738   0.191   2.350   2.626  0.7471 -0.3784  0.7231
 3775TIP3   OH232739   0.654   1.234   0.615 -0.0786 -0.6320  0.5310
 3775TIP3    H132740   0.640   1.192   0.700  0.2270 -0.9309  0.4343
 3775TIP3    H232741   0.684   1.322   0.636  0.2511 -0.7916  0.7321
 3776TIP3   OH232742   0.530   0.674   4.861 -0.8912  0.1012 -0.0136
 3776TIP3    H132743   0.456   0.615   4.843  1.1208 -3.1585  1.4681
 3776TIP3    H232744   0.602   0.638   4.810  0.6020  0.9342  1.4105
 3777TIP3   OH232745   6.001   0.636  10.883  0.3033  0.9253  0.2013
 3777TIP3    H132746   5.920   0.614  10.835 -0.6947  1.8331  1.4055
 3777TIP3    H232747   6.064   0.571  10.854 -0.5501  0.8199 -1.5743
 3778TIP3   OH232748   1.000   2.164   5.355 -0.2858  0.2848 -0.0740
 3778TIP3    H132749   0.930   2.101   5.337  0.3976 -0.6235  0.3798
 3778TIP3    H232750   1.068   2.113   5.399  1.6527  0.6089 -2.4712
 3779TIP3   OH232751   3.607   4.947  13.796  0.2373  0.1713 -0.0816
 3779TIP3    H132752   3.678   4.885  13.779  0.2277  0.1937 -0.1969
 3779TIP3    H232753   3.595   4.943  13.891  1.6306  1.5042  0.1996
 3780TIP3   OH232754   3.715   4.689   5.282 -0.2500  0.0705  0.1033
 3780TIP3    H132755   3.762   4.638   5.348 -2.4583  0.3421  2.0414
 3780TIP3    H232756   3.645   4.733   5.331 -0.9451  1.7074 -2.1658
 3781TIP3   OH232757   4.898   3.531  14.668  0.8652 -0.6600  0.2831
 3781TIP3    H132758   4.803   3.538  14.670  0.9108  1.4043 -0.9066
 3781TIP3    H232759   4.927   3.564  14.754  0.5263  1.5464 -0.3730
 3782TIP3   OH232760   1.845   1.372   5.596  0.7473  0.3750 -0.4443
 3782TIP3    H132761   1.865   1.423   5.675 -1.4640 -0.2262  0.5712
 3782TIP3    H232762   1.842   1.437   5.526  0.5979  1.2545  0.3565
 3783TIP3   OH232763   5.102   0.865   1.777 -0.6484 -0.3546 -0.2273
 3783TIP3    H132764   5.015   0.903   1.787 -1.0071 -0.9355 -1.0431
 3783TIP3    H232765   5.114   0.857   1.683  0.9449  1.1795 -0.2208
 3784TIP3   OH232766   0.673   3.984   2.093  0.0303  0.2184  0.0933
 3784TIP3    H132767   0.606   4.049   2.113 -0.9878 -0.7338 -0.1627
 3784TIP3    H232768   0.631   3.900   2.108  1.2028 -0.4025  0.0235
 3785TIP3   OH232769   4.797   0.160   4.549 -0.2155 -0.3085 -0.0399
 3785TIP3    H132770   4.810   0.182   4.457 -0.5039 -0.3605 -0.0950
 3785TIP3    H232771   4.801   0.245   4.595  1.4399 -0.4355  0.0930
 3786TIP3   OH232772   5.441   1.761  12.299  0.5237 -0.1625 -0.0775
 3786TIP3    H132773   5.523   1.802  12.271  1.5190 -1.6440  0.5642
 3786TIP3    H232774   5.427   1.689  12.238  0.0529 -0.3341  0.2240
 3787TIP3   OH232775   0.244   5.866  14.702 -0.2278 -0.2343  0.7049
 3787TIP3    H132776   0.246   5.906  14.788  0.9519  0.3014  0.4375
 3787TIP3    H232777   0.234   5.772  14.719 -1.8016  0.0168  1.3553
 3788TIP3   OH232778   3.952   0.143   1.811  0.3632 -0.1476 -0.6960
 3788TIP3    H132779   4.011   0.147   1.887 -0.2246  1.0678 -0.2733
 3788TIP3    H232780   3.922   0.053   1.808  1.1345 -0.4379 -0.0563
 3789TIP3   OH232781   0.604   4.832   5.146 -1.0827  0.5721 -0.3080
 3789TIP3    H132782   0.582   4.925   5.154 -1.0910  0.5335  0.1065
 3789TIP3    H232783   0.526   4.793   5.106 -0.8853  0.8289 -0.9524
 3790TIP3   OH232784   0.635   6.543  15.103 -0.4767  0.0813  0.4983
 3790TIP3    H132785   0.626   6.459  15.147  0.4525 -0.3316 -0.0609
 3790TIP3    H232786   0.681   6.522  15.021 -0.3531  1.1063  0.2922
 3791TIP3   OH232787   5.168   6.437  17.154 -0.2070  0.2262 -0.1366
 3791TIP3    H132788   5.124   6.434  17.239 -1.8035 -0.8126 -0.9576
 3791TIP3    H232789   5.201   6.348  17.141 -1.7155 -0.1930 -1.4422
 3792TIP3   OH232790   6.398   0.776   0.821  0.1023 -0.0614 -0.3242
 3792TIP3    H132791   6.325   0.714   0.815  0.6834 -1.0238  1.6500
 3792TIP3    H232792   6.372   0.839   0.888  0.2108  0.8900 -1.1472
 3793TIP3   OH232793   0.227   2.725   5.293  0.2893 -0.6102 -0.6857
 3793TIP3    H132794   0.215   2.645   5.344 -0.4626 -0.0782 -0.0164
 3793TIP3    H232795   0.307   2.764   5.328  0.9880 -1.3464 -1.4084
 3794TIP3   OH232796   1.495   5.133  16.201  0.0954 -0.4856  0.7101
 3794TIP3    H132797   1.512   5.074  16.127 -0.5720  1.1978 -0.8536
 3794TIP3    H232798   1.453   5.209  16.162  0.6936  0.9487  2.7061
 3795TIP3   OH232799   1.978   2.897  11.421  0.1071  0.4072 -0.4635
 3795TIP3    H132800   2.011   2.868  11.506  0.1071 -0.4231 -0.7399
 3795TIP3    H232801   2.055   2.928  11.374  0.2416  0.0312 -0.4902
 3796TIP3   OH232802   1.535   3.911  12.282  0.0386 -0.8983  0.0093
 3796TIP3    H132803   1.481   3.979  12.321 -0.9938 -0.5235 -1.9351
 3796TIP3    H232804   1.491   3.829  12.304 -0.7972 -0.6615 -0.7202
 3797TIP3   OH232805   4.696   5.440  12.658  0.4882  0.4384 -0.0963
 3797TIP3    H132806   4.689   5.406  12.569  1.0878 -1.3180  0.4945
 3797TIP3    H232807   4.617   5.494  12.669 -0.9423 -1.3958 -0.8358
 3798TIP3   OH232808   2.780   0.708   0.100 -0.0422  0.3087  0.5658
 3798TIP3    H132809   2.769   0.766   0.025  0.2243  1.2023  1.2094
 3798TIP3    H232810   2.835   0.637   0.067  2.1389  1.9059  0.5254
 3799TIP3   OH232811   3.057   2.862  15.966  0.3946  0.1017 -0.4485
 3799TIP3    H132812   2.962   2.853  15.976  0.5024 -0.5565  0.1016
 3799TIP3    H232813   3.068   2.908  15.883 -0.3383 -2.2223 -1.9548
 3800TIP3   OH232814   0.372   3.425   5.250  0.1215 -0.6380 -0.4993
 3800TIP3    H132815   0.368   3.476   5.331 -0.4904 -0.2828 -0.7497
 3800TIP3    H232816   0.397   3.337   5.279 -2.6806 -1.2482  0.4199
 3801TIP3   OH232817   0.642   0.987   6.311  0.5770 -0.0802  0.2158
 3801TIP3    H132818   0.596   0.909   6.281  2.6025 -0.7201 -1.5164
 3801TIP3    H232819   0.574   1.054   6.318 -0.7472 -1.1505 -1.5016
 3802TIP3   OH232820   2.620   3.067   4.825  0.1831  0.1243 -0.6097
 3802TIP3    H132821   2.598   2.984   4.867 -0.5109  0.8398  0.4962
 3802TIP3    H232822   2.595   3.133   4.889 -1.0170  1.2804 -2.1951
 3803TIP3   OH232823   2.415   0.737   1.707  0.7495  0.4922  0.4143
 3803TIP3    H132824   2.462   0.658   1.682 -0.1153 -0.1674  0.8258
 3803TIP3    H232825   2.427   0.796   1.632  1.5548  0.0480  0.1815
 3804TIP3   OH232826   2.225   0.855   3.089  0.2970 -0.3339 -0.8821
 3804TIP3    H132827   2.296   0.907   3.127 -0.7768  1.2437 -0.9432
 3804TIP3    H232828   2.213   0.783   3.151  0.2811  0.7814  0.4667
 3805TIP3   OH232829   0.129   2.909   1.174 -0.1311  0.1405 -0.0713
 3805TIP3    H132830   0.123   2.925   1.080  0.2749  0.3093 -0.0712
 3805TIP3    H232831   0.193   2.974   1.205  0.1397 -0.2692  0.2321
 3806TIP3   OH232832   3.501   1.752  12.964  0.0501 -0.1685 -0.3256
 3806TIP3    H132833   3.471   1.806  12.891 -0.8081  1.3825  1.1139
 3806TIP3    H232834   3.425   1.747  13.023  0.4990 -1.9595  0.1601
 3807TIP3   OH232835   0.428   1.880  12.709  0.2329  0.4198 -0.2105
 3807TIP3    H132836   0.388   1.810  12.760  1.6414 -0.8806 -0.8045
 3807TIP3    H232837   0.476   1.835  12.640  1.3798  1.9654 -0.4880
 3808TIP3   OH232838   0.259   6.114   3.525  0.2009  0.0540  0.4367
 3808TIP3    H132839   0.263   6.021   3.547  0.2748  0.1464  0.8109
 3808TIP3    H232840   0.176   6.144   3.561 -0.9392 -0.3680 -1.6362
 3809TIP3   OH232841   2.950   2.706   6.290 -0.3778  0.0097  0.1432
 3809TIP3    H132842   3.041   2.684   6.269 -0.6244 -0.1901 -0.7623
 3809TIP3    H232843   2.955   2.794   6.328  0.1200  0.3279 -0.6260
 3810TIP3   OH232844   2.637   3.166   6.171 -0.2338 -0.1905  0.3400
 3810TIP3    H132845   2.570   3.233   6.156  0.1400  0.1930  0.3828
 3810TIP3    H232846   2.717   3.215   6.187  0.4742 -0.6331 -1.5156
 3811TIP3   OH232847   3.216   3.801   4.829  0.6876 -0.6101 -0.0022
 3811TIP3    H132848   3.152   3.867   4.857  1.1072  0.5874 -1.7186
 3811TIP3    H232849   3.202   3.728   4.889  0.6292  1.2515  2.4441
 3812TIP3   OH232850   4.495   2.669  12.258  0.2238 -0.0787  0.2840
 3812TIP3    H132851   4.429   2.712  12.311 -0.0368 -1.5168  1.1763
 3812TIP3    H232852   4.466   2.681  12.167 -0.6546  0.2489  0.6057
 3813TIP3   OH232853   0.979   0.408   4.759 -0.0853 -0.0220  0.2819
 3813TIP3    H132854   1.030   0.475   4.713 -2.1739  2.6972  1.6489
 3813TIP3    H232855   0.904   0.393   4.702  0.3784 -1.2846 -0.0198
 3814TIP3   OH232856   3.770   6.030  13.346  0.7779 -0.1790 -0.1474
 3814TIP3    H132857   3.751   5.974  13.421 -0.0303  0.4640  0.1387
 3814TIP3    H232858   3.684   6.059  13.315  1.1814  0.9793 -0.2322
 3815TIP3   OH232859   6.517   3.385   1.683  0.0245 -0.0397  0.0827
 3815TIP3    H132860   6.508   3.376   1.588 -1.7945  2.7197 -0.1085
 3815TIP3    H232861   6.541   3.476   1.697 -2.5176  0.4380  2.3012
 3816TIP3   OH232862   1.524   6.366  12.068 -0.2985  0.7437 -0.1172
 3816TIP3    H132863   1.517   6.433  12.136 -0.1046  0.2780  0.3760
 3816TIP3    H232864   1.491   6.287  12.110 -0.3235  0.4876 -0.6219
 3817TIP3   OH232865   0.409   5.106   6.144 -0.3542 -0.2162 -0.1397
 3817TIP3    H132866   0.370   5.052   6.076 -3.1233 -0.5699  1.5479
 3817TIP3    H232867   0.380   5.195   6.124  2.1858  0.3834 -1.5591
 3818TIP3   OH232868   2.555   4.300  15.774  0.2268  0.4271 -0.1192
 3818TIP3    H132869   2.641   4.274  15.808  0.8481 -0.4676 -2.2552
 3818TIP3    H232870   2.574   4.365  15.707 -0.7505  0.1173 -0.7143
 3819TIP3   OH232871   2.999   6.489  16.186  0.4157 -0.1954  0.2874
 3819TIP3    H132872   2.925   6.510  16.242 -0.2377 -1.6375  0.0184
 3819TIP3    H232873   2.981   6.400  16.155  1.1682  0.2456 -1.5470
 3820TIP3   OH232874   2.175   0.652   3.294  0.1249  0.4789 -0.6715
 3820TIP3    H132875   2.131   0.585   3.241 -1.0780  0.5058  0.2526
 3820TIP3    H232876   2.108   0.683   3.355  1.5627  0.0611  1.2384
 3821TIP3   OH232877   4.811   4.200   4.634 -0.5501  0.1115 -0.8698
 3821TIP3    H132878   4.754   4.143   4.685  0.6143 -1.5865 -1.4125
 3821TIP3    H232879   4.757   4.229   4.561 -1.1315 -0.3604 -0.6364
 3822TIP3   OH232880   5.121   0.133   1.291  0.3253 -0.1574  0.2833
 3822TIP3    H132881   5.112   0.079   1.212 -1.2665 -2.3820  1.8497
 3822TIP3    H232882   5.183   0.201   1.267 -0.9211 -0.0690 -3.2229
 3823TIP3   OH232883   4.571   1.802  17.003 -0.0595  0.3982  0.1576
 3823TIP3    H132884   4.650   1.768  16.961 -0.2460  1.4527 -1.1247
 3823TIP3    H232885   4.519   1.836  16.931 -0.6790  1.7417  1.1945
 3824TIP3   OH232886   0.821   2.264   3.172  0.1108 -0.1245 -0.1108
 3824TIP3    H132887   0.876   2.303   3.240 -1.9334  1.4292  0.7589
 3824TIP3    H232888   0.818   2.329   3.102  0.3433 -0.7189 -0.6850
 3825TIP3   OH232889   0.534   4.575   3.447  0.1306 -0.1460  0.7063
 3825TIP3    H132890   0.471   4.641   3.418  0.8352  0.1612 -0.1463
 3825TIP3    H232891   0.483   4.494   3.452 -0.8575  0.5225  2.2139
 3826TIP3   OH232892   6.133   6.518   0.416 -0.2608  0.7814 -0.5186
 3826TIP3    H132893   6.183   6.543   0.493  2.0343 -2.6814 -0.6656
 3826TIP3    H232894   6.185   6.549   0.342 -0.1274  0.2043 -0.6702
 3827TIP3   OH232895   0.253   3.719  15.113  0.1675 -0.0487  0.1745
 3827TIP3    H132896   0.292   3.805  15.100 -0.5711  0.1676 -0.7753
 3827TIP3    H232897   0.196   3.730  15.190 -1.1450  0.7920 -0.8577
 3828TIP3   OH232898   2.763   2.695  12.005  0.0775  0.4380 -0.1922
 3828TIP3    H132899   2.723   2.634  12.067  0.9216  1.3634  1.3119
 3828TIP3    H232900   2.855   2.701  12.032  0.6083  0.4709 -1.8726
 3829TIP3   OH232901   2.909   4.005   0.813 -0.2025 -0.0334 -0.1031
 3829TIP3    H132902   2.891   4.062   0.738  1.0711  1.3835  0.5987
 3829TIP3    H232903   2.826   4.001   0.861 -0.4034  0.9980 -0.3398
 3830TIP3   OH232904   2.155   5.339   0.409 -0.3248  0.3159 -0.3610
 3830TIP3    H132905   2.118   5.427   0.394 -0.9732  0.2127  0.5257
 3830TIP3    H232906   2.079   5.285   0.429  0.1862 -0.2007  0.2085
 3831TIP3   OH232907   5.589   0.623   4.828 -0.2754 -0.8165  0.0190
 3831TIP3    H132908   5.607   0.542   4.876  0.9243 -0.3660  0.3686
 3831TIP3    H232909   5.576   0.689   4.897 -0.7128 -0.6099 -0.2622
 3832TIP3   OH232910   1.472   1.143   2.207 -0.1014 -0.0951  0.1207
 3832TIP3    H132911   1.429   1.174   2.286  0.2172 -0.3067  0.3753
 3832TIP3    H232912   1.554   1.191   2.203 -1.1386  1.7153 -1.3557
 3833TIP3   OH232913   2.610   3.426  14.395  0.3002  0.2031  0.8402
 3833TIP3    H132914   2.597   3.506  14.446  0.7883  1.0261 -0.2764
 3833TIP3    H232915   2.695   3.392  14.425 -0.0438 -0.0604  1.5212
 3834TIP3   OH232916   3.826   0.356   5.447  0.6652  0.0728 -0.8877
 3834TIP3    H132917   3.890   0.410   5.401  0.7175 -0.6542 -1.6935
 3834TIP3    H232918   3.815   0.279   5.391  0.9687 -0.9955  0.4561
 3835TIP3   OH232919   5.298   0.231   3.229  0.1607 -0.3636  0.3481
 3835TIP3    H132920   5.238   0.281   3.174  1.0198 -1.4638 -1.6752
 3835TIP3    H232921   5.262   0.240   3.318 -1.7067  0.8247 -0.4686
 3836TIP3   OH232922   2.884   5.209  16.116 -0.4275  0.7408  0.0622
 3836TIP3    H132923   2.811   5.234  16.173  0.5574 -0.3652  1.9031
 3836TIP3    H232924   2.851   5.134  16.066 -1.7299  2.4962 -1.8857
 3837TIP3   OH232925   1.478   4.208   5.037  0.2195  0.6203  0.4429
 3837TIP3    H132926   1.425   4.132   5.064 -0.5784  1.6541  1.9044
 3837TIP3    H232927   1.433   4.283   5.074  0.3530  1.9778 -1.9317
 3838TIP3   OH232928   3.570   4.087  12.219 -0.0470 -0.0986 -0.2842
 3838TIP3    H132929   3.530   4.123  12.298  0.3646  0.1884 -0.2070
 3838TIP3    H232930   3.495   4.064  12.163 -0.3153  0.7626 -0.2929
 3839TIP3   OH232931   3.697   2.465   0.946  0.0548  0.5151  0.5149
 3839TIP3    H132932   3.729   2.379   0.974 -0.1525  0.2769  0.0487
 3839TIP3    H232933   3.724   2.471   0.854  1.0555  1.4326  0.8513
 3840TIP3   OH232934   6.797   3.478   4.770 -0.3232  0.0190 -0.0188
 3840TIP3    H132935   6.775   3.404   4.714 -0.9147  0.9014 -0.9833
 3840TIP3    H232936   6.880   3.454   4.811 -0.7078 -1.3481  0.0207
 3841TIP3   OH232937   1.572   3.525  14.135 -0.0279 -0.5245  0.9397
 3841TIP3    H132938   1.597   3.605  14.088 -1.4784 -1.4077 -1.5192
 3841TIP3    H232939   1.590   3.545  14.227  0.1209  2.4378  0.3744
 3842TIP3   OH232940   5.036   2.196  15.313  0.2876  0.7136 -0.5040
 3842TIP3    H132941   5.108   2.177  15.373  0.4221  2.8521  0.1095
 3842TIP3    H232942   4.969   2.131  15.334  0.8172  0.6582  1.1388
 3843TIP3   OH232943   6.462   5.465   1.770  0.1509 -0.0948  0.1670
 3843TIP3    H132944   6.436   5.458   1.678 -1.7002 -1.5932  0.7473
 3843TIP3    H232945   6.442   5.556   1.793 -0.8242 -0.1149 -0.5282
 3844TIP3   OH232946   0.374   1.944  14.498  0.6037 -0.1296  0.2697
 3844TIP3    H132947   0.424   2.013  14.539  0.8115  0.4304 -0.9013
 3844TIP3    H232948   0.371   1.967  14.405 -2.5374  0.3506  0.3720
 3845TIP3   OH232949   1.229   2.329   3.447 -0.2767  0.3929 -0.3004
 3845TIP3    H132950   1.239   2.263   3.378 -2.5061  0.6743 -0.9641
 3845TIP3    H232951   1.289   2.299   3.516  0.9844 -0.6627 -1.7575
 3846TIP3   OH232952   6.144   5.245  14.864  0.1693  0.9095  0.0472
 3846TIP3    H132953   6.128   5.222  14.772  0.4280 -0.2727  0.2768
 3846TIP3    H232954   6.065   5.292  14.891 -0.9176 -0.7215 -0.1539
 3847TIP3   OH232955   3.008   2.049  12.861 -0.1613 -0.8693 -0.2336
 3847TIP3    H132956   3.050   2.081  12.781 -0.1903  0.2105  0.1673
 3847TIP3    H232957   3.078   2.047  12.927 -0.4225 -0.4872  0.0566
 3848TIP3   OH232958   1.015   3.790  14.726  0.2234  0.1523  0.1664
 3848TIP3    H132959   1.029   3.703  14.687 -3.1898  0.5431 -2.5106
 3848TIP3    H232960   0.949   3.775  14.794  1.0120  0.4458  1.0130
 3849TIP3   OH232961   6.037   4.116  16.724 -0.3674 -0.0363  1.1984
 3849TIP3    H132962   5.993   4.033  16.741 -1.8327  0.8068  1.7640
 3849TIP3    H232963   6.018   4.169  16.802  1.3818  0.5041  1.2982
 3850TIP3   OH232964   3.645   2.599   4.519  0.1533 -0.2349  0.0542
 3850TIP3    H132965   3.560   2.639   4.506  1.4984  2.5002 -0.9370
 3850TIP3    H232966   3.666   2.558   4.435  0.8473  1.2615 -0.5252
 3851TIP3   OH232967   2.057   3.644   2.053 -0.0461 -0.5195  0.5696
 3851TIP3    H132968   2.033   3.677   2.140 -0.2198 -0.8157  0.6328
 3851TIP3    H232969   2.141   3.685   2.035 -0.2806 -0.0018  0.6317
 3852TIP3   OH232970   3.101   5.533  17.069  0.2242 -0.2179  0.2555
 3852TIP3    H132971   3.195   5.534  17.051  0.8918 -0.4078  3.2408
 3852TIP3    H232972   3.072   5.623  17.055  0.5654 -0.3703 -1.7022
 3853TIP3   OH232973   5.671   0.162   4.212 -0.0525  0.2053  0.0273
 3853TIP3    H132974   5.725   0.215   4.271 -0.1789  0.9187 -0.4857
 3853TIP3    H232975   5.618   0.226   4.164 -2.2876 -0.5359  1.3877
 3854TIP3   OH232976   0.955   0.757   1.222  0.0236  0.6539  0.0785
 3854TIP3    H132977   0.892   0.708   1.275  1.5388  1.7178  3.0593
 3854TIP3    H232978   1.015   0.690   1.188 -0.4268  0.0410  0.4683
 3855TIP3   OH232979   1.125   3.032  15.673  0.3425  0.0449  0.7066
 3855TIP3    H132980   1.121   2.941  15.645 -2.8249 -0.6727  2.8835
 3855TIP3    H232981   1.103   3.029  15.766  1.4671  2.9461  1.1688
 3856TIP3   OH232982   1.185   0.194   4.606  0.3017 -0.7240 -0.3647
 3856TIP3    H132983   1.223   0.143   4.677 -1.0859  0.0047  0.9615
 3856TIP3    H232984   1.253   0.194   4.538  2.3856 -0.0874  1.5739
 3857TIP3   OH232985   1.604   2.632  14.991  0.6671  0.3019  0.3718
 3857TIP3    H132986   1.699   2.627  14.978  0.8679  3.4193 -0.0840
 3857TIP3    H232987   1.568   2.646  14.904 -0.1837 -0.1520  0.6331
 3858TIP3   OH232988   0.752   3.368   4.406  0.0507  0.4023  0.3103
 3858TIP3    H132989   0.789   3.283   4.427 -0.5385  0.3386  1.1402
 3858TIP3    H232990   0.808   3.431   4.452  2.1855  0.7457 -2.4694
 3859TIP3   OH232991   3.540   0.452  15.404  0.0331 -0.5616 -0.2066
 3859TIP3    H132992   3.516   0.378  15.460  2.5426 -0.0733  1.6791
 3859TIP3    H232993   3.630   0.433  15.378 -0.8148 -0.4851 -3.7757
 3860TIP3   OH232994   3.569   2.903   3.511 -0.2872  0.3589 -0.0083
 3860TIP3    H132995   3.575   2.889   3.416  1.1992  0.0041  0.1267
 3860TIP3    H232996   3.576   2.998   3.521 -0.0990  0.3703 -0.2312
 3861TIP3   OH232997   1.614   0.904   3.863 -0.1160  0.1916  0.5021
 3861TIP3    H132998   1.672   0.968   3.905  4.2140 -1.4337 -2.2931
 3861TIP3    H232999   1.641   0.820   3.898 -1.1947 -0.6229 -0.5206
 3862TIP3   OH233000   1.463   1.960  15.980  0.2436  0.2036  0.1704
 3862TIP3    H133001   1.424   1.895  16.038 -0.1933  0.5031  0.2143
 3862TIP3    H233002   1.408   1.959  15.902  0.3260  0.4129  0.1088
 3863TIP3   OH233003   5.795   4.716  14.603  0.4201  0.1774 -0.3186
 3863TIP3    H133004   5.756   4.629  14.604  0.6154  0.0845  0.7126
 3863TIP3    H233005   5.727   4.773  14.570  0.7507 -0.5627 -2.3824
 3864TIP3   OH233006   2.999   5.115  12.085  0.0085 -0.4349 -0.6329
 3864TIP3    H133007   3.045   5.198  12.070  0.3837 -0.5428 -0.0882
 3864TIP3    H233008   2.953   5.098  12.002  2.4171 -1.2628 -1.8836
 3865TIP3   OH233009   4.959   3.035   3.884 -0.0684 -0.4749  0.2057
 3865TIP3    H133010   4.985   2.944   3.897 -1.8331 -0.7827  2.2492
 3865TIP3    H233011   4.910   3.057   3.964  1.3820  2.6795  0.3981
 3866TIP3   OH233012   3.316   6.263   0.468  0.8742  0.1970  0.2012
 3866TIP3    H133013   3.314   6.278   0.374  1.3167 -1.1121 -0.0281
 3866TIP3    H233014   3.405   6.231   0.486  0.1876 -1.4940  0.7368
 3867TIP3   OH233015   5.939   0.833   4.001 -0.5278  0.1315  0.2485
 3867TIP3    H133016   6.029   0.866   4.008  0.4241 -2.2601  0.5280
 3867TIP3    H233017   5.914   0.851   3.911 -0.3694  2.1254  0.5512
 3868TIP3   OH233018   0.967   3.945   4.207 -0.2966 -0.3745  0.1263
 3868TIP3    H133019   0.911   4.022   4.222 -0.9845 -0.9624  0.6772
 3868TIP3    H233020   0.935   3.880   4.270 -0.5006 -1.5122 -1.1143
 3869TIP3   OH233021   4.501   5.510  13.134 -0.9002 -0.0874 -0.4484
 3869TIP3    H133022   4.523   5.477  13.221  0.0695  1.5565 -0.0279
 3869TIP3    H233023   4.478   5.432  13.084  1.1202 -1.3919  0.5250
 3870TIP3   OH233024   0.839   4.491   1.191 -0.5991  0.1053 -0.3110
 3870TIP3    H133025   0.894   4.470   1.266  0.0550  0.6588 -0.6293
 3870TIP3    H233026   0.750   4.497   1.228 -0.0830  2.0741  0.7770
 3871TIP3   OH233027   6.513   2.073   3.432  0.5092  0.1431  0.2944
 3871TIP3    H133028   6.424   2.039   3.419  0.7013 -0.5296  0.6932
 3871TIP3    H233029   6.537   2.109   3.347 -0.0008 -0.0199  0.0759
 3872TIP3   OH233030   6.750   4.230   6.440 -0.1877  0.4933 -0.2579
 3872TIP3    H133031   6.739   4.324   6.451  0.3561  0.4949  0.3083
 3872TIP3    H233032   6.841   4.220   6.411 -0.1760  0.1253 -0.0923
 3873TIP3   OH233033   3.062   5.330   3.726 -0.5842 -0.8929 -0.0431
 3873TIP3    H133034   3.139   5.378   3.694  0.1726 -1.2822  1.1391
 3873TIP3    H233035   3.058   5.351   3.819 -1.0622 -2.0459  0.2064
 3874TIP3   OH233036   5.469   4.353   1.170  1.1952 -0.9877 -0.0936
 3874TIP3    H133037   5.443   4.335   1.080 -2.8135  1.1272  0.3976
 3874TIP3    H233038   5.427   4.283   1.221 -2.4615  1.3478  0.5192
 3875TIP3   OH233039   3.872   1.411  12.250 -0.0451 -0.7362  0.3503
 3875TIP3    H133040   3.863   1.486  12.191 -0.9314 -0.2778  1.0612
 3875TIP3    H233041   3.908   1.342  12.194  2.0606  0.5660 -0.0359
 3876TIP3   OH233042   3.669   2.202  12.920  0.3506 -0.0973  0.0844
 3876TIP3    H133043   3.723   2.123  12.927 -1.0869 -1.1735 -0.6453
 3876TIP3    H233044   3.685   2.235  12.832 -1.4952 -1.4666 -0.8347
 3877TIP3   OH233045   6.082   5.397   0.695 -0.1517  0.1755  0.0117
 3877TIP3    H133046   5.992   5.429   0.698 -0.3334 -0.3615  1.6914
 3877TIP3    H233047   6.074   5.302   0.700  0.4951  0.1373  0.6127
 3878TIP3   OH233048   1.791   0.060   5.687 -0.1619 -0.1827  0.5796
 3878TIP3    H133049   1.705   0.026   5.710  0.3699 -2.7764 -0.8962
 3878TIP3    H233050   1.791   0.060   5.591  1.5520 -0.4839  0.5491
 3879TIP3   OH233051   4.756   2.537   2.079 -0.3416  0.3397  0.0485
 3879TIP3    H133052   4.828   2.487   2.041 -0.2111  0.4338  0.1732
 3879TIP3    H233053   4.679   2.481   2.065 -0.0881 -0.2186  0.8094
 3880TIP3   OH233054   6.667   4.969   3.612  0.6220 -0.7789 -0.1396
 3880TIP3    H133055   6.701   4.996   3.698 -1.2516  0.3956  0.3010
 3880TIP3    H233056   6.641   4.878   3.625  0.5679 -0.6840  0.4782
 3881TIP3   OH233057   5.055   4.163  13.846  0.2070  0.5489  0.5506
 3881TIP3    H133058   5.025   4.172  13.756  0.8569  0.2517  0.2960
 3881TIP3    H233059   5.057   4.252  13.880 -1.0408  0.5644  0.6099
 3882TIP3   OH233060   4.095   6.301  16.261  0.0891 -0.3418  0.2839
 3882TIP3    H133061   4.092   6.396  16.251 -0.9611 -0.3977 -0.0628
 3882TIP3    H233062   4.116   6.287  16.354 -2.4455  0.2660  1.0272
 3883TIP3   OH233063   1.385   2.801   5.264  0.7595 -0.1937  0.1635
 3883TIP3    H133064   1.468   2.805   5.217  1.3179 -1.3812  1.0091
 3883TIP3    H233065   1.408   2.811   5.356  0.1071 -1.5839  0.5077
 3884TIP3   OH233066   4.158   4.216   0.705  0.0487  0.8542 -0.3157
 3884TIP3    H133067   4.084   4.156   0.692  0.3431 -0.2067  2.2082
 3884TIP3    H233068   4.171   4.216   0.800  1.3205  3.4560 -0.4262
 3885TIP3   OH233069   1.929   3.203   3.961 -0.0784 -0.0340  0.5345
 3885TIP3    H133070   1.871   3.254   4.019 -0.3056  0.0232  0.2587
 3885TIP3    H233071   1.883   3.201   3.877  1.2214  1.7318 -0.2898
 3886TIP3   OH233072   4.236   3.567   4.716  0.1440 -0.1917 -0.6432
 3886TIP3    H133073   4.241   3.480   4.755  2.6629  0.2236  0.1071
 3886TIP3    H233074   4.151   3.601   4.745  0.2547 -1.3743  1.2469
 3887TIP3   OH233075   5.525   2.972   5.638 -0.2499  0.5363  0.2103
 3887TIP3    H133076   5.537   3.006   5.727  1.3173  1.1781 -0.2036
 3887TIP3    H233077   5.552   3.044   5.581 -1.1222  0.0903 -0.7870
 3888TIP3   OH233078   5.940   5.714   3.118 -0.8035 -0.8263 -0.3037
 3888TIP3    H133079   5.907   5.684   3.202 -1.9327  0.0917 -0.3982
 3888TIP3    H233080   5.876   5.778   3.088  0.5908  0.3406 -0.9282
 3889TIP3   OH233081   5.372   6.062   4.233 -0.6679  0.5765 -0.4073
 3889TIP3    H133082   5.306   6.043   4.300  0.8128 -0.4817  0.8121
 3889TIP3    H233083   5.403   5.976   4.205 -0.1218  1.0523 -1.3017
 3890TIP3   OH233084   3.444   3.172   1.898  0.7265  0.4936 -0.6327
 3890TIP3    H133085   3.350   3.176   1.914  0.2852 -0.8139 -2.5977
 3890TIP3    H233086   3.480   3.135   1.979 -0.6381 -0.4770 -0.4252
 3891TIP3   OH233087   3.837   6.224  16.207  0.0184 -0.3583  0.0356
 3891TIP3    H133088   3.915   6.220  16.263 -0.2724 -3.1315  0.3502
 3891TIP3    H233089   3.764   6.204  16.265 -0.7281  0.1934 -0.6784
 3892TIP3   OH233090   1.418   5.424  11.519  0.2638 -0.5238  0.4506
 3892TIP3    H133091   1.442   5.495  11.579  1.2129 -0.5425  0.1213
 3892TIP3    H233092   1.502   5.390  11.489 -0.1531 -2.3533  1.2375
 3893TIP3   OH233093   2.758   1.852   2.032  0.4071  0.1644  0.3059
 3893TIP3    H133094   2.720   1.938   2.018  0.2075  0.0582  0.1879
 3893TIP3    H233095   2.720   1.797   1.964  2.1562  0.4601 -0.9677
 3894TIP3   OH233096   0.519   3.757   0.039  0.4941  0.2645  0.5419
 3894TIP3    H133097   0.466   3.821  -0.009 -1.2365 -1.5886 -0.1848
 3894TIP3    H233098   0.583   3.726  -0.025 -0.1193 -0.3053  0.1846
 3895TIP3   OH233099   0.121   4.063   0.539 -0.7784  0.0585 -0.0438
 3895TIP3    H133100   0.062   4.138   0.534  0.6770  1.2325 -0.4864
 3895TIP3    H233101   0.113   4.019   0.455  0.9372  1.8232 -1.2142
 3896TIP3   OH233102   3.003   2.488   0.286  0.7281  0.6685  0.0503
 3896TIP3    H133103   3.036   2.476   0.375  0.6593  1.7738  0.2412
 3896TIP3    H233104   3.081   2.513   0.235  1.0726 -1.4102 -0.5608
 3897TIP3   OH233105   3.466   0.166  12.171  0.0609  0.4012 -0.3537
 3897TIP3    H133106   3.413   0.243  12.194  1.6826  1.0404  1.6326
 3897TIP3    H233107   3.403   0.098  12.152 -1.4798  1.4576  0.7173
 3898TIP3   OH233108   6.679   1.679  16.959 -0.2174 -0.1982 -0.1775
 3898TIP3    H133109   6.627   1.722  17.027  0.9562  0.3094  0.4186
 3898TIP3    H233110   6.622   1.610  16.926  0.1766 -2.5609  3.4680
 3899TIP3   OH233111   4.773   1.802   0.184 -0.1645  0.0289 -0.0720
 3899TIP3    H133112   4.775   1.769   0.274 -1.9782  0.0337 -0.0004
 3899TIP3    H233113   4.845   1.865   0.181  0.8145 -0.9832  0.9538
 3900TIP3   OH233114   4.074   5.734   0.759  0.1146  0.1637 -0.2962
 3900TIP3    H133115   4.101   5.822   0.785 -0.6590  0.2605  0.2473
 3900TIP3    H233116   4.117   5.676   0.822  1.7788  0.0124 -1.5277
 3901TIP3   OH233117   1.653   0.066  12.461  0.2893  0.2308  0.0403
 3901TIP3    H133118   1.645   0.155  12.496  1.1454 -0.2659  1.5810
 3901TIP3    H233119   1.669   0.079  12.368  0.0369  1.6787  0.1716
 3902TIP3   OH233120   6.077   6.437   6.239  0.3696  0.0897  0.0413
 3902TIP3    H133121   6.116   6.449   6.152  0.2890 -0.4505 -0.0692
 3902TIP3    H233122   6.005   6.500   6.240  1.1223  0.9688  0.1858
 3903TIP3   OH233123   6.170   0.238   2.979  0.3610 -0.7552  0.2573
 3903TIP3    H133124   6.227   0.185   2.923 -1.9030 -0.9324 -2.0609
 3903TIP3    H233125   6.184   0.204   3.067  2.3721 -2.0508 -0.4998
 3904TIP3   OH233126   4.992   5.726   1.046  0.3618  0.2410 -0.3446
 3904TIP3    H133127   4.921   5.669   1.075  0.7578  0.3591  0.8854
 3904TIP3    H233128   5.021   5.771   1.125  2.6530 -0.7368 -0.5373
 3905TIP3   OH233129   1.848   4.800   1.129 -0.3532  0.2268  0.2050
 3905TIP3    H133130   1.815   4.873   1.181 -2.1411 -0.9985  0.8723
 3905TIP3    H233131   1.813   4.722   1.171  2.1750 -1.1268  0.0059
 3906TIP3   OH233132   4.810   5.191  12.714  0.0647  0.0444  0.2663
 3906TIP3    H133133   4.772   5.279  12.705 -2.2946 -0.9330 -0.2478
 3906TIP3    H233134   4.893   5.196  12.667  0.2211  2.1048  0.6552
 3907TIP3   OH233135   6.654   5.726   4.300  0.3146  0.4738 -0.3844
 3907TIP3    H133136   6.738   5.691   4.272  0.9774  0.4148  1.5066
 3907TIP3    H233137   6.595   5.650   4.300  0.8445  0.0458  0.3601
 3908TIP3   OH233138   4.056   2.786  15.571 -0.2868  0.1100 -0.8724
 3908TIP3    H133139   4.043   2.711  15.630  1.4634 -0.0583 -0.6550
 3908TIP3    H233140   4.034   2.752  15.485 -0.2348 -0.4361 -0.6744
 3909TIP3   OH233141   3.155   6.517   3.177 -0.6391  0.4864  0.3932
 3909TIP3    H133142   3.152   6.477   3.090  1.4513  0.3321  0.3481
 3909TIP3    H233143   3.121   6.450   3.236  0.7123 -0.5500  0.0387
 3910TIP3   OH233144   3.324   0.337  16.464 -0.0943  0.3952 -0.1894
 3910TIP3    H133145   3.244   0.375  16.429 -0.2681  0.4157  0.2283
 3910TIP3    H233146   3.394   0.396  16.435 -0.4502  1.5132  1.1711
 3911TIP3   OH233147   3.782   0.871   3.076  0.5386 -0.6479  0.1147
 3911TIP3    H133148   3.807   0.800   3.017  0.7673  0.1878 -0.8221
 3911TIP3    H233149   3.804   0.838   3.164  0.7476 -1.6783 -0.3075
 3912TIP3   OH233150   2.595   1.333   5.603 -0.3749 -0.1348  0.1680
 3912TIP3    H133151   2.672   1.368   5.647 -0.2767 -0.2152  0.0583
 3912TIP3    H233152   2.525   1.341   5.669 -0.2499 -0.1634  0.3049
 3913TIP3   OH233153   1.229   5.525   0.191 -0.4372 -0.1774 -0.0271
 3913TIP3    H133154   1.181   5.598   0.230 -0.6962 -0.2499 -0.2038
 3913TIP3    H233155   1.321   5.543   0.210 -0.5426 -0.0886  0.4046
 3914TIP3   OH233156   5.482   1.406  11.569 -0.2642 -0.4875  0.0150
 3914TIP3    H133157   5.398   1.451  11.575 -0.4010 -0.7630  0.2143
 3914TIP3    H233158   5.468   1.323  11.616  0.7236  0.3631  1.8828
 3915TIP3   OH233159   0.459   0.954   4.866  0.6193 -0.1182 -0.4309
 3915TIP3    H133160   0.474   0.859   4.864  0.1879 -0.2295  0.7451
 3915TIP3    H233161   0.409   0.968   4.946  1.1275  1.1685 -0.3165
 3916TIP3   OH233162   1.308   5.944   4.935  0.0105  0.1162  0.5811
 3916TIP3    H133163   1.361   6.023   4.922 -0.6556  0.8059  1.8249
 3916TIP3    H233164   1.304   5.903   4.849  1.5108  0.7087  0.1982
 3917TIP3   OH233165   0.882   4.286  17.100 -0.0073  0.0999  0.2906
 3917TIP3    H133166   0.876   4.380  17.089  0.6432 -0.0505 -1.5809
 3917TIP3    H233167   0.956   4.259  17.047 -1.6688 -1.7665 -1.2693
 3918TIP3   OH233168   0.339   5.630   4.385  0.4980  0.1853  0.1034
 3918TIP3    H133169   0.325   5.690   4.458 -1.2750  1.6317 -1.3228
 3918TIP3    H233170   0.404   5.673   4.329 -0.8584  0.9223 -0.9799
 3919TIP3   OH233171   5.995   2.732   1.369  0.0630  0.3333  0.7116
 3919TIP3    H133172   6.032   2.767   1.451 -0.1155  0.9162  0.5530
 3919TIP3    H233173   6.060   2.755   1.303 -0.1982  0.6387  0.5575
 3920TIP3   OH233174   1.114   0.927   5.804  0.0319  0.0188 -0.1809
 3920TIP3    H133175   1.156   0.845   5.777 -0.4990 -0.4159  0.3096
 3920TIP3    H233176   1.162   0.954   5.882 -2.2973 -1.9602  2.1144
 3921TIP3   OH233177   5.113   4.665  11.687 -0.3751 -0.3410  0.6800
 3921TIP3    H133178   5.081   4.578  11.660  1.0732 -1.2669  1.7865
 3921TIP3    H233179   5.206   4.663  11.667 -0.6366  1.7355 -1.0988
 3922TIP3   OH233180   5.130   3.109   0.125 -0.5666 -0.1622  0.1141
 3922TIP3    H133181   5.118   3.197   0.163 -1.0843  0.1412 -0.7193
 3922TIP3    H233182   5.158   3.126   0.035 -0.9260 -0.8493 -0.1282
 3923TIP3   OH233183   6.359   5.528   4.070 -0.4201 -0.0432 -0.8090
 3923TIP3    H133184   6.326   5.440   4.088 -0.7555  0.2501  0.0522
 3923TIP3    H233185   6.323   5.582   4.140  0.4527  0.6280 -0.8621
 3924TIP3   OH233186   3.429   1.513  15.726  0.0262  0.4744  0.3244
 3924TIP3    H133187   3.521   1.487  15.717  0.3585  1.3697  0.9364
 3924TIP3    H233188   3.399   1.465  15.804 -0.3644 -0.6731 -0.5072
 3925TIP3   OH233189   3.145   2.253  14.862  0.3082 -0.2694  0.2727
 3925TIP3    H133190   3.205   2.180  14.845  0.4488 -0.0128 -0.3849
 3925TIP3    H233191   3.203   2.327  14.882  0.1632 -0.3665  1.0724
 3926TIP3   OH233192   4.803   5.300  13.268 -0.6517  0.3782  0.0878
 3926TIP3    H133193   4.890   5.273  13.238 -0.4687  2.2121 -1.2265
 3926TIP3    H233194   4.745   5.229  13.240  0.0923  0.2816 -1.3007
 3927TIP3   OH233195   5.645   6.186  16.622  0.8871 -0.1256  0.3509
 3927TIP3    H133196   5.641   6.111  16.683  0.0986 -0.6024 -0.2657
 3927TIP3    H233197   5.571   6.241  16.647  2.0782  1.0316  1.5005
 3928TIP3   OH233198   5.144   2.445  15.437  0.1045 -0.1915 -0.1301
 3928TIP3    H133199   5.065   2.398  15.411 -1.0214  1.5060  0.0369
 3928TIP3    H233200   5.170   2.405  15.520 -0.9674 -0.3625  0.1409
 3929TIP3   OH233201   1.953   6.797   5.096  0.3432  0.4045 -0.7460
 3929TIP3    H133202   2.037   6.788   5.052  0.3118 -2.0878 -0.3979
 3929TIP3    H233203   1.964   6.753   5.180 -0.7032  1.9202  0.2548
 3930TIP3   OH233204   1.814   3.463  16.289 -0.0796  0.2932 -0.1013
 3930TIP3    H133205   1.792   3.497  16.375 -0.3580  1.0585 -0.4638
 3930TIP3    H233206   1.741   3.404  16.267  0.5030 -0.7207  0.6108
 3931TIP3   OH233207   3.435   2.724  16.296 -0.2873  0.7280 -0.4022
 3931TIP3    H133208   3.441   2.662  16.223  0.8104 -0.6625  0.8090
 3931TIP3    H233209   3.426   2.669  16.373  1.6501  2.0184  0.8294
 3932TIP3   OH233210   3.557   3.147   4.205  0.6629 -0.0979  0.0321
 3932TIP3    H133211   3.509   3.199   4.141 -0.3356  0.8529  1.5031
 3932TIP3    H233212   3.506   3.153   4.285  1.6993 -1.5344  0.8624
 3933TIP3   OH233213   3.144   2.486  15.479  0.1128 -0.0221 -0.7879
 3933TIP3    H133214   3.105   2.398  15.481  0.3431 -0.1281 -0.8712
 3933TIP3    H233215   3.071   2.545  15.497  0.3827 -0.3574  1.6297
 3934TIP3   OH233216   2.477   2.419  15.735  0.2504  0.0214 -0.2218
 3934TIP3    H133217   2.569   2.435  15.714  0.1335 -0.6950 -1.3606
 3934TIP3    H233218   2.472   2.324  15.745  0.0306  0.2161  1.8800
 3935TIP3   OH233219   0.381   5.161  13.939  0.3690  0.1187 -0.2875
 3935TIP3    H133220   0.321   5.197  13.874 -0.3302 -1.0180 -0.2856
 3935TIP3    H233221   0.368   5.217  14.016 -1.0454 -0.4032 -0.1299
 3936TIP3   OH233222   0.403   6.768   1.314 -0.5718  0.7999  0.1098
 3936TIP3    H133223   0.381   6.860   1.297  0.8886  1.3408  0.9918
 3936TIP3    H233224   0.405   6.760   1.409  0.5862  0.1905  0.0518
 3937TIP3   OH233225   5.692   4.659   1.163  0.5680  0.1341 -0.4855
 3937TIP3    H133226   5.715   4.567   1.149  0.0575 -0.1939  0.7229
 3937TIP3    H233227   5.601   4.666   1.133  0.4886  0.1594 -0.2403
 3938TIP3   OH233228   0.888   0.741  11.571  0.4716  0.2079  0.6526
 3938TIP3    H133229   0.835   0.680  11.621  0.9618  0.2260  1.1991
 3938TIP3    H233230   0.829   0.774  11.503 -0.0932 -0.0761  1.0018
 3939TIP3   OH233231   3.118   3.678  14.675  0.9384  0.4777  0.3626
 3939TIP3    H133232   3.079   3.751  14.627 -0.2940  0.4078  1.2077
 3939TIP3    H233233   3.127   3.608  14.611  2.2924  1.3965 -0.5027
 3940TIP3   OH233234   3.893   3.749   1.054  0.5410  0.3993 -0.2333
 3940TIP3    H133235   3.928   3.790   0.976  1.3332 -0.6246 -0.4375
 3940TIP3    H233236   3.825   3.809   1.085  1.7841  1.9426 -0.3956
 3941TIP3   OH233237   6.664   3.723  12.420  0.0807  0.3690 -0.2924
 3941TIP3    H133238   6.646   3.788  12.488 -0.1550 -0.7654  0.7721
 3941TIP3    H233239   6.723   3.767  12.359 -1.9619  2.3985 -0.9510
 3942TIP3   OH233240   3.331   5.718   6.074 -0.0370 -0.0686 -0.6395
 3942TIP3    H133241   3.361   5.629   6.052  0.5641 -0.3152  1.0729
 3942TIP3    H233242   3.236   5.713   6.070 -0.0589 -1.1450  0.6557
 3943TIP3   OH233243   5.940   0.902   2.531  0.3847 -0.1326  0.7757
 3943TIP3    H133244   5.969   0.813   2.515  0.5247 -0.2777  1.7758
 3943TIP3    H233245   5.932   0.908   2.626  1.3289  1.2061  0.7973
 3944TIP3   OH233246   0.906   2.347   2.681 -0.1025  0.2282  0.0350
 3944TIP3    H133247   0.854   2.274   2.715  3.2583 -1.4415  2.1058
 3944TIP3    H233248   0.939   2.316   2.596 -0.4005  0.2675 -0.0979
 3945TIP3   OH233249   0.972   3.970  13.668 -0.1369 -0.7167  0.0323
 3945TIP3    H133250   0.919   4.039  13.628 -0.0338 -0.2191  0.7234
 3945TIP3    H233251   1.053   3.968  13.618  0.3993  0.5749  0.7927
 3946TIP3   OH233252   3.915   3.518   1.186  0.1724 -0.0307 -0.0294
 3946TIP3    H133253   3.922   3.602   1.141 -0.0512  0.4781  0.8523
 3946TIP3    H233254   3.913   3.453   1.116  0.2206  0.7056 -0.7305
 3947TIP3   OH233255   2.657   0.529   1.670 -0.5190  0.0235 -0.7724
 3947TIP3    H133256   2.651   0.434   1.677 -0.8630  0.0701 -0.4151
 3947TIP3    H233257   2.703   0.555   1.749 -0.9902  0.2104 -0.5568
 3948TIP3   OH233258   1.432   4.007  14.590  0.4157 -0.8181 -0.1063
 3948TIP3    H133259   1.401   3.967  14.509 -0.4115  1.0793 -0.7953
 3948TIP3    H233260   1.382   3.963  14.659 -1.2919 -0.2248 -0.9192
 3949TIP3   OH233261   2.863   4.679  12.418  0.5167 -0.1718 -0.7529
 3949TIP3    H133262   2.897   4.733  12.346  1.2151 -1.0602 -1.0987
 3949TIP3    H233263   2.930   4.684  12.485  0.0541  0.3109 -0.3144
 3950TIP3   OH233264   2.853   0.991  17.155  0.3985 -0.0666 -0.3076
 3950TIP3    H133265   2.890   0.972  17.241 -2.3487 -0.4778  0.9026
 3950TIP3    H233266   2.848   1.087  17.151 -0.2961 -0.0706  0.3929
 3951TIP3   OH233267   3.922   5.259   4.512  0.4347 -0.0500 -0.1491
 3951TIP3    H133268   4.013   5.264   4.482  0.0630  0.5309 -1.2369
 3951TIP3    H233269   3.923   5.302   4.598  0.8112  2.0474 -1.1239
 3952TIP3   OH233270   1.738   1.016   1.089 -0.2299  0.0874 -0.1364
 3952TIP3    H133271   1.778   0.929   1.083  0.2313  0.3261 -0.5745
 3952TIP3    H233272   1.761   1.047   1.177 -0.0317 -0.0580 -0.1370
 3953TIP3   OH233273   1.337   4.221   3.051 -0.9141 -0.4578  0.1845
 3953TIP3    H133274   1.341   4.287   3.120 -0.6881 -1.8384  1.5278
 3953TIP3    H233275   1.419   4.232   3.003 -0.9011  0.2578  0.3576
 3954TIP3   OH233276   6.663   1.938  15.744  0.0161 -0.1892 -0.1375
 3954TIP3    H133277   6.610   1.863  15.715  0.4272 -0.5694  0.0696
 3954TIP3    H233278   6.652   2.003  15.675 -0.0809 -0.5754 -0.4931
 3955TIP3   OH233279   5.073   3.277   3.777 -0.0745 -0.5991  0.3667
 3955TIP3    H133280   5.073   3.274   3.681  0.3076 -0.3570  0.3593
 3955TIP3    H233281   5.030   3.195   3.803 -0.1187 -0.6984 -0.0075
 3956TIP3   OH233282   5.252   1.197   3.060 -0.1029 -0.4197  0.3853
 3956TIP3    H133283   5.342   1.226   3.077  0.1672 -0.0577 -1.4334
 3956TIP3    H233284   5.257   1.102   3.059  0.3580 -0.3984 -0.0667
 3957TIP3   OH233285   4.923   3.525  15.602  0.1177  0.3132 -0.3859
 3957TIP3    H133286   4.838   3.482  15.611  0.5446 -0.5139 -0.1631
 3957TIP3    H233287   4.903   3.615  15.578 -0.7984 -0.0528 -1.0018
 3958TIP3   OH233288   4.619   4.777   5.611  0.2144  0.7039  0.1078
 3958TIP3    H133289   4.531   4.809   5.589 -0.7204 -2.1723 -0.7624
 3958TIP3    H233290   4.606   4.724   5.689  0.8154 -1.1224 -0.9777
 3959TIP3   OH233291   5.794   1.073   1.366  0.0596 -0.1635  0.0731
 3959TIP3    H133292   5.730   1.019   1.319  0.4011  1.1469 -2.0572
 3959TIP3    H233293   5.741   1.131   1.420 -0.3368 -1.9816  1.7651
 3960TIP3   OH233294   1.325   5.320  11.274 -0.2972  0.0183 -0.2305
 3960TIP3    H133295   1.380   5.360  11.206 -1.3645  0.6071 -0.7745
 3960TIP3    H233296   1.334   5.377  11.349  1.7672 -1.2279  0.5551
 3961TIP3   OH233297   1.847   2.654   2.922 -0.6961  0.1071  0.1845
 3961TIP3    H133298   1.770   2.656   2.865  0.5806 -0.6781 -1.6697
 3961TIP3    H233299   1.903   2.724   2.888  0.2518 -0.6142  0.2269
 3962TIP3   OH233300   6.517   3.138  13.501 -0.4846  0.5410 -0.1543
 3962TIP3    H133301   6.458   3.121  13.575  0.6429 -0.1041  0.6292
 3962TIP3    H233302   6.583   3.197  13.536  0.7596 -0.7356 -0.2558
 3963TIP3   OH233303   2.063   4.710   0.700  0.3146  0.0404  0.0813
 3963TIP3    H133304   2.000   4.688   0.632 -0.6452  1.2663  0.5496
 3963TIP3    H233305   2.148   4.705   0.656 -0.2417  0.2197 -1.0513
 3964TIP3   OH233306   5.303   2.559   1.616 -0.1402  0.1026  0.3020
 3964TIP3    H133307   5.376   2.608   1.576  0.7330 -1.0655  0.4112
 3964TIP3    H233308   5.334   2.537   1.703 -1.0319  0.4307  0.7122
 3965TIP3   OH233309   4.290   5.125   3.759 -0.1330  0.0589  0.0198
 3965TIP3    H133310   4.344   5.182   3.704 -0.6817  1.1143  0.5418
 3965TIP3    H233311   4.322   5.037   3.742 -0.2203  0.3679 -1.9157
 3966TIP3   OH233312   5.309   1.099  16.709  0.0295  0.2857 -0.7774
 3966TIP3    H133313   5.310   1.045  16.789  1.3071  1.8509  0.3270
 3966TIP3    H233314   5.277   1.184  16.739 -1.6937  0.2836 -2.4358
 3967TIP3   OH233315   6.517   3.673   1.705 -0.6053 -0.3261 -0.6272
 3967TIP3    H133316   6.551   3.669   1.616  0.2572 -1.2908 -0.2822
 3967TIP3    H233317   6.586   3.717   1.755 -1.7089  1.5618 -0.6807
 3968TIP3   OH233318   5.055   1.331   4.030  0.2198 -0.0215  0.1255
 3968TIP3    H133319   4.979   1.275   4.049 -0.7023  0.5747 -1.5503
 3968TIP3    H233320   5.108   1.278   3.970 -0.1551  0.5015 -0.6810
 3969TIP3   OH233321   4.888   1.585   2.830 -0.2318 -0.2317  0.1349
 3969TIP3    H133322   4.930   1.624   2.907  0.8529  1.5235 -1.2755
 3969TIP3    H233323   4.959   1.565   2.770 -1.1809  0.6531 -1.3655
 3970TIP3   OH233324   1.331   4.235   5.851  0.1991  0.2828  0.3567
 3970TIP3    H133325   1.243   4.262   5.876  0.6123  0.8915  1.2016
 3970TIP3    H233326   1.371   4.205   5.933  1.0708  0.8490  0.1503
 3971TIP3   OH233327   0.309   4.881  13.192  0.2923  0.0715 -0.0018
 3971TIP3    H133328   0.261   4.906  13.271  0.0140 -0.4601  0.0019
 3971TIP3    H233329   0.262   4.804  13.158  0.9407 -0.2537 -0.1828
 3972TIP3   OH233330   4.944   5.235   2.016  0.2448 -0.1027 -0.2070
 3972TIP3    H133331   5.016   5.175   1.997  1.3205  1.0788 -0.0352
 3972TIP3    H233332   4.949   5.251   2.110 -0.8081 -0.6770 -0.0355
 3973TIP3   OH233333   4.289   3.485   3.177  0.1994 -0.1456 -0.1834
 3973TIP3    H133334   4.195   3.498   3.184  0.0749 -0.3779 -1.2922
 3973TIP3    H233335   4.299   3.392   3.158  0.7375 -0.4074  1.2583
 3974TIP3   OH233336   0.246   5.243  12.027  0.0049 -0.2045  0.2022
 3974TIP3    H133337   0.233   5.208  12.115 -1.1710  0.0017  0.1270
 3974TIP3    H233338   0.295   5.175  11.981 -2.1321 -1.7510  0.0911
 3975TIP3   OH233339   6.782   4.225   4.133 -0.1401 -0.3619  0.1801
 3975TIP3    H133340   6.813   4.239   4.044 -0.4515  2.3844  0.3977
 3975TIP3    H233341   6.856   4.252   4.188 -1.0726  1.2829  0.7017
 3976TIP3   OH233342   5.072   0.258   0.420  0.7585 -0.5456  0.2505
 3976TIP3    H133343   5.111   0.329   0.369  0.3102 -0.7703 -0.4219
 3976TIP3    H233344   4.997   0.298   0.463 -0.4293 -0.9478 -1.3692
 3977TIP3   OH233345   3.543   3.336  15.331  0.5469 -0.2194 -0.1827
 3977TIP3    H133346   3.530   3.247  15.366  1.4352 -0.9880 -1.7254
 3977TIP3    H233347   3.622   3.330  15.278 -0.5964  0.9377 -2.1404
 3978TIP3   OH233348   5.448   0.513   5.541 -0.0500 -0.0861  0.4505
 3978TIP3    H133349   5.489   0.558   5.615 -0.2325 -0.0517  0.5307
 3978TIP3    H233350   5.460   0.420   5.560  2.0712 -0.1104 -0.6621
 3979TIP3   OH233351   2.409   4.594   1.813 -0.2714 -0.2901 -0.6291
 3979TIP3    H133352   2.399   4.588   1.718 -0.7156  0.4412 -0.6329
 3979TIP3    H233353   2.336   4.648   1.842  0.8310  0.9740 -0.0838
 3980TIP3   OH233354   4.504   3.663  13.359 -0.3206  0.2199  0.9177
 3980TIP3    H133355   4.456   3.746  13.362 -2.0629 -0.7387  3.3146
 3980TIP3    H233356   4.488   3.629  13.271  0.2121  2.2431 -0.0179
 3981TIP3   OH233357   2.051   4.534  12.077 -0.3513 -0.2406 -0.5745
 3981TIP3    H133358   1.968   4.498  12.109 -0.9797  1.7545  0.1639
 3981TIP3    H233359   2.081   4.591  12.146 -0.1460  1.7593 -2.2215
 3982TIP3   OH233360   2.782   1.612  17.042  0.2566  0.4530  1.0061
 3982TIP3    H133361   2.804   1.652  17.126  0.7469  1.6003  0.3463
 3982TIP3    H233362   2.706   1.557  17.062  0.4677  0.5690  2.2306
 3983TIP3   OH233363   4.617   4.110   2.336  0.1392  0.1886  0.4947
 3983TIP3    H133364   4.641   4.145   2.250  0.6838 -0.8820  0.1994
 3983TIP3    H233365   4.701   4.090   2.378 -0.1474 -0.3259  0.8375
 3984TIP3   OH233366   4.264   3.110  13.347 -0.0374 -0.2109 -0.6571
 3984TIP3    H133367   4.171   3.131  13.355 -0.3702 -1.0067 -2.1114
 3984TIP3    H233368   4.308   3.194  13.359 -0.9237  0.1647  0.1245
 3985TIP3   OH233369   5.398   3.211  11.184 -0.1404 -0.3005 -0.0878
 3985TIP3    H133370   5.367   3.156  11.256  0.5967 -0.3079  0.2353
 3985TIP3    H233371   5.324   3.269  11.165 -0.1311  0.1538  1.1318
 3986TIP3   OH233372   2.737   1.084   3.716  0.6451  0.1718  0.2595
 3986TIP3    H133373   2.830   1.105   3.725  1.1496 -1.7336 -0.1536
 3986TIP3    H233374   2.734   1.018   3.647 -1.1603  1.0351 -0.5760
 3987TIP3   OH233375   2.928   5.353  16.394 -0.2396 -0.4648  0.4376
 3987TIP3    H133376   2.991   5.288  16.424 -0.4105 -0.8156  0.0388
 3987TIP3    H233377   2.966   5.387  16.313  1.4715  2.2588  2.2010
 3988TIP3   OH233378   5.511   4.912   4.075  0.4986 -0.1241 -0.0949
 3988TIP3    H133379   5.507   4.948   4.164  0.0277 -0.7699  0.1514
 3988TIP3    H233380   5.593   4.863   4.073  0.9567  0.6267 -0.3128
 3989TIP3   OH233381   6.514   3.350  14.851 -0.5124  0.1408  0.6662
 3989TIP3    H133382   6.460   3.376  14.926 -3.0363 -0.5958 -0.7818
 3989TIP3    H233383   6.459   3.288  14.803  1.7460 -0.8023 -0.8519
 3990TIP3   OH233384   4.686   0.689  12.622  0.2663  0.1177  0.2907
 3990TIP3    H133385   4.678   0.594  12.636  1.2390  0.0433  0.4482
 3990TIP3    H233386   4.751   0.717  12.686 -0.0833  0.9096  0.3023
 3991TIP3   OH233387   6.480   4.962  10.436  0.3544  0.2697 -0.7557
 3991TIP3    H133388   6.575   4.970  10.424  0.7020 -0.9683  0.8763
 3991TIP3    H233389   6.469   4.888  10.495 -1.7115 -0.2747 -1.7350
 3992TIP3   OH233390   4.786   3.258   1.397  0.3200 -0.0228 -0.0536
 3992TIP3    H133391   4.879   3.234   1.387  0.6474  1.3001 -0.3512
 3992TIP3    H233392   4.788   3.339   1.448 -0.7154 -0.2916  0.4252
 3993TIP3   OH233393   1.617   3.790   0.805 -0.1531  0.3636 -0.2442
 3993TIP3    H133394   1.547   3.730   0.777 -1.0258  1.2995 -0.1618
 3993TIP3    H233395   1.632   3.845   0.728  0.5014  0.1771 -0.2547
 3994TIP3   OH233396   4.252   2.367   2.583  0.4014  0.1112  0.4917
 3994TIP3    H133397   4.209   2.401   2.662 -2.0221 -1.5083 -0.0168
 3994TIP3    H233398   4.298   2.289   2.613  0.6225  0.2618  0.5436
 3995TIP3   OH233399   3.087   5.792   5.492 -0.1039  0.1710 -0.4456
 3995TIP3    H133400   3.079   5.842   5.573  0.9945 -1.0484  0.4677
 3995TIP3    H233401   3.161   5.832   5.446 -0.5768  0.7163 -0.7310
 3996TIP3   OH233402   1.035   4.206   2.374  0.2559  0.1254 -0.3231
 3996TIP3    H133403   1.077   4.291   2.365 -0.7462  1.2103  3.4317
 3996TIP3    H233404   1.088   4.159   2.438 -2.4061  0.4085  2.2967
 3997TIP3   OH233405   0.251   4.133   5.863 -0.4571  0.7119 -0.3616
 3997TIP3    H133406   0.327   4.161   5.812 -0.5493  1.0513 -0.3193
 3997TIP3    H233407   0.257   4.183   5.944  0.3253 -0.6789  0.4785
 3998TIP3   OH233408   4.874   2.586  16.477 -0.2357  0.3645  0.0010
 3998TIP3    H133409   4.913   2.526  16.414  1.5037  1.2424  0.1980
 3998TIP3    H233410   4.820   2.645  16.424  1.0167  0.9405 -0.6836
 3999TIP3   OH233411   0.700   1.438   0.959 -0.3464  0.3255  0.3616
 3999TIP3    H133412   0.711   1.523   0.916 -0.3869  0.2870  0.2748
 3999TIP3    H233413   0.779   1.427   1.011 -0.8423  0.9426  1.2837
 4000TIP3   OH233414   2.155   0.445  11.888  0.6331 -0.2571  0.4593
 4000TIP3    H133415   2.109   0.528  11.903  0.3490 -0.3783  0.2696
 4000TIP3    H233416   2.173   0.445  11.794 -1.3432 -1.4068  0.0284
 4001TIP3   OH233417   3.910   5.302  12.529  0.1772 -0.2677  0.5699
 4001TIP3    H133418   3.957   5.280  12.609 -0.1891  0.3460  0.9676
 4001TIP3    H233419   3.978   5.307  12.461  0.7951  1.2558  1.2637
 4002TIP3   OH233420   0.547   4.636  15.859  0.8394  0.1977 -0.1742
 4002TIP3    H133421   0.606   4.610  15.788  1.3610  0.9118 -0.0120
 4002TIP3    H233422   0.566   4.573  15.929  0.1616 -0.6518 -0.7294
 4003TIP3   OH233423   4.769   1.611  12.385  0.0161 -0.2046 -0.8409
 4003TIP3    H133424   4.826   1.626  12.460  0.2838 -1.2367 -0.8185
 4003TIP3    H233425   4.817   1.548  12.331 -1.0897 -1.1279 -0.7987
 4004TIP3   OH233426   4.416   6.480  13.611  0.1852  0.0220 -0.0591
 4004TIP3    H133427   4.423   6.575  13.600 -1.7826  0.4005  1.3585
 4004TIP3    H233428   4.369   6.450  13.533 -0.0076  0.3489 -0.0675
 4005TIP3   OH233429   5.483   1.622   3.338  0.3610 -0.3189 -0.1498
 4005TIP3    H133430   5.528   1.694   3.384  0.8252 -1.0237  0.5178
 4005TIP3    H233431   5.436   1.576   3.407  0.8066 -1.2000 -0.4276
 4006TIP3   OH233432   6.051   1.267  16.976  0.8675  0.6466  0.2444
 4006TIP3    H133433   6.043   1.344  16.919 -1.0627  0.6319  0.4514
 4006TIP3    H233434   5.965   1.257  17.016  1.4022 -0.9855  1.0763
 4007TIP3   OH233435   2.840   0.473   6.139 -0.0628 -0.1565  0.7433
 4007TIP3    H133436   2.927   0.451   6.174 -0.8402 -0.8950  2.3000
 4007TIP3    H233437   2.829   0.414   6.064  1.4731  1.1841 -0.6340
 4008TIP3   OH233438   3.894   2.755  12.423  0.1921  0.2583  0.5022
 4008TIP3    H133439   3.811   2.739  12.379  0.1340 -1.1198  1.0747
 4008TIP3    H233440   3.945   2.676  12.410  1.5290  1.1615 -0.0185
 4009TIP3   OH233441   6.579   3.379  16.798 -0.2477 -0.6841 -0.4120
 4009TIP3    H133442   6.592   3.472  16.814 -1.3879 -0.4407 -0.8158
 4009TIP3    H233443   6.667   3.345  16.782  0.2427  0.2072  0.2847
 4010TIP3   OH233444   3.615   0.159   1.474 -0.8920 -0.1223  0.0815
 4010TIP3    H133445   3.598   0.183   1.565 -0.2152  0.1478  0.1382
 4010TIP3    H233446   3.610   0.064   1.472  0.9224 -0.2616  0.7862
 4011TIP3   OH233447   4.426   6.410   1.731  0.4526  0.4048  0.0808
 4011TIP3    H133448   4.380   6.469   1.671  0.5948  0.7306  0.2909
 4011TIP3    H233449   4.443   6.331   1.679 -0.2050  0.3436 -0.0443
 4012TIP3   OH233450   5.655   5.163  14.038  0.0193  0.0370 -0.1517
 4012TIP3    H133451   5.721   5.141  14.104 -2.1019 -1.2443  1.7039
 4012TIP3    H233452   5.604   5.082  14.028 -0.8281  0.7523 -2.0548
 4013TIP3   OH233453   1.664   3.629   1.066  1.4407  0.0541 -0.2610
 4013TIP3    H133454   1.739   3.686   1.078  0.3559  1.8465 -1.4763
 4013TIP3    H233455   1.623   3.660   0.985  1.1497 -2.8895 -1.3556
 4014TIP3   OH233456   5.964   3.731  15.584  0.9446 -0.2213  0.8491
 4014TIP3    H133457   5.876   3.698  15.564  0.8330  1.8979 -3.1792
 4014TIP3    H233458   6.022   3.656  15.571 -0.0158 -0.9214  0.4802
 4015TIP3   OH233459   2.747   3.443  13.068  0.0668  0.1340  0.2170
 4015TIP3    H133460   2.795   3.370  13.105 -2.2883 -2.4429 -1.3981
 4015TIP3    H233461   2.812   3.512  13.056  2.5717 -1.9445  1.1583
 4016TIP3   OH233462   5.714   3.406   3.856  0.2806  0.0572  0.6134
 4016TIP3    H133463   5.678   3.473   3.798  0.6226  0.2512  0.6290
 4016TIP3    H233464   5.674   3.424   3.942 -0.5320 -0.4681  0.3636
 4017TIP3   OH233465   2.112   5.392   3.287 -0.1302 -0.0151 -0.2898
 4017TIP3    H133466   2.019   5.413   3.301  0.3641  3.0254 -0.7911
 4017TIP3    H233467   2.157   5.475   3.301  2.5785 -1.4431  0.0744
 4018TIP3   OH233468   5.782   1.574  13.876 -0.0527 -0.2732  0.4867
 4018TIP3    H133469   5.748   1.575  13.965  1.0461 -0.2860  0.9250
 4018TIP3    H233470   5.742   1.497  13.836 -0.8672 -0.0391  0.8335
 4019TIP3   OH233471   5.810   6.451   3.004  0.2584 -0.1119  0.3404
 4019TIP3    H133472   5.740   6.397   2.968  0.7821  0.2031 -1.2402
 4019TIP3    H233473   5.825   6.518   2.937  1.6402  0.1989  0.9247
 4020TIP3   OH233474   5.037   2.282  16.548  0.4957  0.4932 -0.1318
 4020TIP3    H133475   5.024   2.208  16.488  1.1752  0.0870  0.2091
 4020TIP3    H233476   4.981   2.351  16.513 -0.4812 -0.3179 -0.2182
 4021TIP3   OH233477   2.767   4.936  13.908 -0.3049  0.4560 -0.5972
 4021TIP3    H133478   2.688   4.914  13.860 -1.4739 -1.4231  1.9407
 4021TIP3    H233479   2.839   4.901  13.855 -1.3540 -0.0204 -1.7393
 4022TIP3   OH233480   1.095   3.206   2.790 -0.6773 -0.2327  0.0200
 4022TIP3    H133481   1.075   3.209   2.884  0.4593 -1.8418  0.3627
 4022TIP3    H233482   1.188   3.181   2.787 -0.4198  0.8006 -1.5338
 4023TIP3   OH233483   5.589   0.527  12.358  0.2123 -0.1293 -0.9731
 4023TIP3    H133484   5.520   0.588  12.335  0.8440  1.5284  1.2222
 4023TIP3    H233485   5.560   0.443  12.322 -2.0792  0.8476 -1.5570
 4024TIP3   OH233486   4.235   2.181  12.736  0.2743  0.1851  0.4860
 4024TIP3    H133487   4.154   2.223  12.765  0.6033  1.3481 -0.2160
 4024TIP3    H233488   4.212   2.138  12.653  0.2202 -0.0534  0.6226
 4025TIP3   OH233489   4.982   5.798   2.864 -0.3678  0.3101  0.1973
 4025TIP3    H133490   4.937   5.734   2.809  0.7884  1.8285 -2.7692
 4025TIP3    H233491   5.071   5.764   2.873 -0.6610 -0.1511  1.6254
 4026TIP3   OH233492   5.701   2.205   4.783 -0.4545 -0.0642  0.2323
 4026TIP3    H133493   5.765   2.182   4.716 -1.0262 -1.1651  0.0429
 4026TIP3    H233494   5.675   2.295   4.762 -0.5181 -0.3453 -0.9302
 4027TIP3   OH233495   1.127   4.617   4.505  0.4891  0.1542 -0.1891
 4027TIP3    H133496   1.154   4.708   4.496 -1.0116  0.6019 -0.5611
 4027TIP3    H233497   1.057   4.619   4.571  0.0781 -0.6303 -0.5794
 4028TIP3   OH233498   0.547   6.303   3.100  0.2422 -0.0162 -0.0018
 4028TIP3    H133499   0.619   6.360   3.070 -0.0540  0.9577  1.0839
 4028TIP3    H233500   0.509   6.349   3.174 -2.1575 -0.0271 -1.1309
 4029TIP3   OH233501   1.622   5.328  15.648  0.0813 -0.0757  0.0432
 4029TIP3    H133502   1.663   5.392  15.589  0.1125 -0.0168  0.1293
 4029TIP3    H233503   1.680   5.325  15.724  0.4989 -0.7856 -0.2945
 4030TIP3   OH233504   3.704   5.528   2.326 -0.3855 -0.0298 -0.4816
 4030TIP3    H133505   3.655   5.508   2.406  0.4131 -0.6620 -0.1420
 4030TIP3    H233506   3.717   5.443   2.284  2.1312 -0.1616  0.4375
 4031TIP3   OH233507   5.003   6.623  16.342  0.3720  0.4558  0.0040
 4031TIP3    H133508   4.928   6.654  16.392 -1.3015 -4.0718  0.8604
 4031TIP3    H233509   4.973   6.621  16.251 -0.8439 -1.6578  0.3846
 4032TIP3   OH233510   0.032   4.313  11.265  0.0751  0.8226 -0.3568
 4032TIP3    H133511  -0.003   4.314  11.176 -1.6367 -3.6529  0.0095
 4032TIP3    H233512  -0.044   4.328  11.321  0.5256  0.3852  0.3875
 4033TIP3   OH233513   6.222   1.315   5.094  0.3326  0.8655  0.8777
 4033TIP3    H133514   6.171   1.295   5.016  1.0579 -0.1515  0.6457
 4033TIP3    H233515   6.302   1.356   5.061  0.7694  0.1704  1.0499
 4034TIP3   OH233516   4.951   4.504   3.735 -0.4435  0.0532  0.2433
 4034TIP3    H133517   4.864   4.506   3.775  0.2711  0.3075  1.8662
 4034TIP3    H233518   4.945   4.438   3.667 -2.2526  0.9304 -0.5183
 4035TIP3   OH233519   4.756   0.226  16.157 -0.1396 -0.1693  0.1135
 4035TIP3    H133520   4.775   0.305  16.208 -2.8439 -0.5320  1.9319
 4035TIP3    H233521   4.738   0.259  16.068  0.3969  1.0495  0.4301
 4036TIP3   OH233522   3.706   2.460  16.455 -0.3182 -0.2823 -0.1357
 4036TIP3    H133523   3.620   2.429  16.482 -0.4076 -0.5371 -0.7065
 4036TIP3    H233524   3.747   2.490  16.537  0.1401 -2.7260  0.5913
 4037TIP3   OH233525   2.358   0.637   3.712  0.5169  0.5402  0.4827
 4037TIP3    H133526   2.283   0.668   3.764 -0.9934 -1.7721 -0.1704
 4037TIP3    H233527   2.434   0.669   3.759 -0.8470  1.5808  2.1181
 4038TIP3   OH233528   1.181   4.696  13.366  0.1933  0.2052  0.2453
 4038TIP3    H133529   1.124   4.762  13.404 -1.4783  0.9593 -3.1623
 4038TIP3    H233530   1.265   4.709  13.409 -0.8096  2.6701  1.6734
 4039TIP3   OH233531   4.771   1.755   3.716 -0.3011 -0.0219 -0.0555
 4039TIP3    H133532   4.776   1.819   3.787 -2.2632  0.2362 -0.0985
 4039TIP3    H233533   4.683   1.718   3.722 -0.4414 -0.1889 -2.1888
 4040TIP3   OH233534   1.203   6.042  14.428 -0.2041 -0.4830 -0.0353
 4040TIP3    H133535   1.250   5.999  14.357 -0.3839 -1.3372  0.3493
 4040TIP3    H233536   1.111   6.039  14.401 -0.1461  0.3851 -0.3709
 4041TIP3   OH233537   1.159   6.246   2.011  0.0719  0.0820 -0.4144
 4041TIP3    H133538   1.248   6.256   1.979  0.2172  0.9608  0.2279
 4041TIP3    H233539   1.159   6.288   2.097 -0.4914 -1.5333  0.4260
 4042TIP3   OH233540   6.794   6.591  11.775  0.5003 -0.0250 -0.1881
 4042TIP3    H133541   6.764   6.636  11.854 -0.1321 -0.8066  0.0290
 4042TIP3    H233542   6.886   6.613  11.768  0.1666  1.4471 -0.1860
 4043TIP3   OH233543   0.680   6.542   3.642  0.2540  0.5488 -0.1662
 4043TIP3    H133544   0.647   6.454   3.621 -0.7613  0.4938  1.4502
 4043TIP3    H233545   0.603   6.589   3.673  0.3329  2.7331 -2.8967
 4044TIP3   OH233546   1.658   6.512   2.264 -0.1865  0.1524 -0.0768
 4044TIP3    H133547   1.602   6.589   2.277  0.3326  0.3447  1.1643
 4044TIP3    H233548   1.611   6.441   2.307  0.0605  0.1107  0.1274
 4045TIP3   OH233549   3.541   0.708  12.399 -0.0234 -0.2329  0.9294
 4045TIP3    H133550   3.483   0.637  12.428 -1.6097  0.8156  0.4455
 4045TIP3    H233551   3.490   0.788  12.414  0.7011  0.6300 -0.9003
 4046TIP3   OH233552   1.143   3.768  15.886 -0.3055  0.0686  0.2029
 4046TIP3    H133553   1.199   3.711  15.940 -0.0736  0.5160  0.4375
 4046TIP3    H233554   1.177   3.757  15.797 -0.3848 -0.3077  0.2163
 4047TIP3   OH233555   0.349   3.818  16.011 -0.1724 -0.4021 -0.0358
 4047TIP3    H133556   0.399   3.888  15.970 -1.0368  0.0255 -0.4008
 4047TIP3    H233557   0.258   3.849  16.007 -0.3836 -0.8045  1.2945
 4048TIP3   OH233558   0.939   1.824  17.066  0.2797  0.1083  0.2287
 4048TIP3    H133559   0.901   1.909  17.087 -0.2677  0.1458 -0.8481
 4048TIP3    H233560   0.890   1.761  17.119 -1.4831  0.1335 -1.3027
 4049TIP3   OH233561   2.287   5.203   4.208  0.4015  0.1027  0.7449
 4049TIP3    H133562   2.304   5.120   4.163  0.2706  0.1502  0.6085
 4049TIP3    H233563   2.373   5.245   4.211  0.1150  0.9423 -1.1393
 4050TIP3   OH233564   1.550   1.695  15.866 -0.1317  0.3099 -0.2038
 4050TIP3    H133565   1.535   1.776  15.817  1.8399  0.5837 -0.4467
 4050TIP3    H233566   1.511   1.712  15.952 -1.7103  0.6466 -0.9542
 4051TIP3   OH233567   3.059   2.983  15.707  0.0019 -0.5982 -0.1232
 4051TIP3    H133568   2.995   3.038  15.661 -0.1648 -1.6331 -1.1712
 4051TIP3    H233569   3.122   3.045  15.744 -1.2576  0.4020  0.4030
 4052TIP3   OH233570   1.859   6.086   2.612  0.0498  0.2963 -0.3557
 4052TIP3    H133571   1.874   6.168   2.660  2.1349 -0.5663  0.6166
 4052TIP3    H233572   1.945   6.064   2.576 -0.7409 -0.8604 -1.6354
 4053TIP3   OH233573   4.963   3.109  15.488  0.3072  0.7551  0.7797
 4053TIP3    H133574   4.985   3.017  15.474  1.5311  1.1207  0.1129
 4053TIP3    H233575   4.961   3.148  15.401 -3.3336  0.7770  0.7259
 4054TIP3   OH233576   0.865   0.587  14.131  0.0478 -0.2473  0.8198
 4054TIP3    H133577   0.795   0.595  14.196 -1.4929  1.5432 -0.9235
 4054TIP3    H233578   0.825   0.539  14.059  0.9711 -0.1650  0.2358
 4055TIP3   OH233579   2.361   2.325  10.975  0.0089 -0.1805  1.0669
 4055TIP3    H133580   2.448   2.360  10.959 -0.1831 -0.5389 -0.9951
 4055TIP3    H233581   2.302   2.385  10.930 -0.3988 -2.4699 -1.7084
 4056TIP3   OH233582   1.672   3.328  14.612  0.3175 -0.2159 -0.3462
 4056TIP3    H133583   1.692   3.268  14.540  1.4780  1.7030 -1.7189
 4056TIP3    H233584   1.646   3.271  14.684 -2.2494 -2.2020 -2.6258
 4057TIP3   OH233585   5.333   1.078   0.806 -0.1143 -0.1643  0.2177
 4057TIP3    H133586   5.391   1.002   0.803 -0.4680 -0.4092 -1.0531
 4057TIP3    H233587   5.389   1.153   0.787  0.0805 -0.2134  0.6052
 4058TIP3   OH233588   6.365   1.842  11.120  0.2552 -1.1116  0.3763
 4058TIP3    H133589   6.365   1.936  11.137  2.0677 -1.0234  0.0468
 4058TIP3    H233590   6.340   1.834  11.028  0.7895 -0.8963  0.2098
 4059TIP3   OH233591   3.482   3.856  14.621  0.1837  0.2173 -0.6582
 4059TIP3    H133592   3.491   3.950  14.609  2.2225  0.0336 -0.9138
 4059TIP3    H233593   3.571   3.822  14.619 -0.5477 -1.8911 -1.9195
 4060TIP3   OH233594   0.158   4.429  14.213 -0.4737 -0.6605 -0.2993
 4060TIP3    H133595   0.253   4.435  14.204 -0.4937  1.9046  0.4170
 4060TIP3    H233596   0.124   4.462  14.129 -0.6682  1.1826  0.4538
 4061TIP3   OH233597   1.318   4.464   3.724  0.2955 -0.0721 -0.0977
 4061TIP3    H133598   1.295   4.460   3.631  0.8096 -0.7138 -0.2041
 4061TIP3    H233599   1.348   4.554   3.737 -1.2922  0.5052 -0.1773
 4062TIP3   OH233600   3.305   1.687   5.698  0.1676  0.0981 -0.2482
 4062TIP3    H133601   3.270   1.770   5.666 -0.2222 -0.3562 -1.0491
 4062TIP3    H233602   3.259   1.620   5.646  1.2040 -0.5758 -0.3291
 4063TIP3   OH233603   4.536   0.375   0.532 -0.1728 -0.2545 -0.1684
 4063TIP3    H133604   4.514   0.282   0.522  0.4993 -0.5014  0.5836
 4063TIP3    H233605   4.594   0.378   0.608 -2.0176  1.0557  1.2645
 4064TIP3   OH233606   5.909   3.394  11.933 -0.0054 -0.1763 -0.6823
 4064TIP3    H133607   5.998   3.364  11.915  1.1201  2.1218  0.5479
 4064TIP3    H233608   5.899   3.382  12.027 -0.2758  1.2499 -0.5069
 4065TIP3   OH233609   5.469   4.578  14.006  0.3065 -0.3751 -0.5780
 4065TIP3    H133610   5.501   4.653  13.956  0.0365  0.6638  0.7597
 4065TIP3    H233611   5.541   4.557  14.065 -0.1021 -0.3228 -0.0512
 4066TIP3   OH233612   6.417   2.467   0.555 -0.3277  0.3268  0.3153
 4066TIP3    H133613   6.499   2.511   0.536 -0.9921  0.6722 -2.0158
 4066TIP3    H233614   6.438   2.373   0.554  0.0935  0.4250  0.0557
 4067TIP3   OH233615   4.929   5.813   3.160 -0.7097 -0.3379  0.1529
 4067TIP3    H133616   4.950   5.803   3.067 -0.8929  1.1462 -0.0704
 4067TIP3    H233617   4.947   5.905   3.179 -3.8452  0.2651  0.7688
 4068TIP3   OH233618   4.081   5.547  12.791  0.8164 -0.2901 -0.0088
 4068TIP3    H133619   4.165   5.500  12.797  0.7690 -0.3021  0.6515
 4068TIP3    H233620   4.018   5.480  12.765  0.8405 -0.4846  0.4317
 4069TIP3   OH233621   6.132   3.854  14.354 -0.1426  0.5148  0.1616
 4069TIP3    H133622   6.048   3.808  14.354  0.6831 -1.1315 -1.2503
 4069TIP3    H233623   6.130   3.908  14.433 -2.5692  0.6521  0.0804
 4070TIP3   OH233624   3.326   4.105   3.813  0.4908  0.1856 -0.8199
 4070TIP3    H133625   3.252   4.069   3.862  2.1592 -2.7170 -0.1524
 4070TIP3    H233626   3.347   4.187   3.857 -0.7794 -0.1937  0.5649
 4071TIP3   OH233627   3.281   3.156   5.220  0.5899 -0.3597  0.1486
 4071TIP3    H133628   3.287   3.231   5.279  0.9691 -1.0093  0.9666
 4071TIP3    H233629   3.319   3.187   5.138 -0.9737  0.9133 -0.1513
 4072TIP3   OH233630   0.248   3.575   1.444 -0.0581  0.1465 -0.0850
 4072TIP3    H133631   0.241   3.647   1.382 -3.4033  0.0149 -0.0096
 4072TIP3    H233632   0.253   3.497   1.389  2.8523  0.2516 -0.1493
 4073TIP3   OH233633   2.573   3.378  11.377  0.6419 -0.2250 -0.2768
 4073TIP3    H133634   2.568   3.455  11.433  1.4990 -0.1758 -0.2542
 4073TIP3    H233635   2.666   3.365  11.362  0.6106 -1.9396  0.6697
 4074TIP3   OH233636   1.863   1.609   3.591  0.7718  0.3220 -0.9737
 4074TIP3    H133637   1.907   1.524   3.587 -2.7014 -1.8505  1.3194
 4074TIP3    H233638   1.814   1.614   3.509 -2.4302 -2.2070  0.5746
 4075TIP3   OH233639   1.001   0.184  14.187  0.3809 -0.0673 -0.1712
 4075TIP3    H133640   0.912   0.186  14.224  0.4441  0.0656 -0.0266
 4075TIP3    H233641   1.028   0.092  14.197  1.0694  0.2885  1.7381
 4076TIP3   OH233642   6.344   3.694  14.048 -0.3780 -0.1293  0.2027
 4076TIP3    H133643   6.341   3.694  14.143  0.9384  1.8793  0.3009
 4076TIP3    H233644   6.376   3.606  14.025  0.9244 -0.0963  1.7160
 4077TIP3   OH233645   5.240   1.545   3.555 -0.0567 -0.2173  0.1245
 4077TIP3    H133646   5.198   1.519   3.637  1.0399 -2.6480  0.0220
 4077TIP3    H233647   5.169   1.546   3.491 -0.7156  0.4559  0.8444
 4078TIP3   OH233648   4.549   3.152  16.226  0.6293  0.0456 -0.3204
 4078TIP3    H133649   4.492   3.075  16.234  2.2545 -1.2812 -1.0746
 4078TIP3    H233650   4.488   3.226  16.220 -0.9673 -1.0046  1.7271
 4079TIP3   OH233651   5.794   5.887   1.430  0.1418  0.3353 -0.0693
 4079TIP3    H133652   5.862   5.922   1.488  0.4375 -1.5329  0.7678
 4079TIP3    H233653   5.713   5.895   1.480 -0.2972  2.3191 -0.9687
 4080TIP3   OH233654   0.838   1.374  12.911  0.3775 -0.2582  0.4012
 4080TIP3    H133655   0.865   1.394  13.001  1.2880 -0.0747  0.1069
 4080TIP3    H233656   0.879   1.290  12.892 -0.3165 -0.5922  0.3537
 4081TIP3   OH233657   5.300   1.755   3.172  0.0261  0.1658 -0.9303
 4081TIP3    H133658   5.363   1.698   3.216  0.9258  0.4826 -1.7641
 4081TIP3    H233659   5.239   1.695   3.130  1.0322 -0.2170 -1.8967
 4082TIP3   OH233660   2.645   3.973   3.825 -0.2852  0.0237 -0.0608
 4082TIP3    H133661   2.625   4.059   3.789  0.4131  0.0322 -0.4604
 4082TIP3    H233662   2.567   3.920   3.806 -0.6200  0.5007 -0.0284
 4083TIP3   OH233663   6.343   4.900   4.926 -0.1063  0.3033  0.2960
 4083TIP3    H133664   6.251   4.884   4.947 -0.9319  2.2373 -1.4298
 4083TIP3    H233665   6.365   4.981   4.973  0.4084  0.3867 -0.0739
 4084TIP3   OH233666   2.266   2.850   0.584 -0.0563  0.0311 -0.2192
 4084TIP3    H133667   2.179   2.818   0.559  0.7640 -2.5795 -0.0834
 4084TIP3    H233668   2.251   2.940   0.613 -2.6975 -0.3079 -0.2486
 4085TIP3   OH233669   1.967   2.393   0.518  0.4662 -0.1384 -0.5145
 4085TIP3    H133670   1.996   2.319   0.573 -1.3108 -0.1547  0.4693
 4085TIP3    H233671   1.989   2.366   0.429  2.0230 -0.7994  0.0298
 4086TIP3   OH233672   2.237   5.439   2.937  0.2473 -0.2214  0.3302
 4086TIP3    H133673   2.311   5.486   2.976  1.1239 -0.9464 -0.3885
 4086TIP3    H233674   2.164   5.455   2.997  0.0562  3.2501 -0.6088
 4087TIP3   OH233675   4.873   1.795  14.332  0.0171 -0.4984 -0.3184
 4087TIP3    H133676   4.941   1.852  14.366  0.5821  0.0146 -2.1702
 4087TIP3    H233677   4.920   1.723  14.290 -0.5214  0.0489 -1.9376
 4088TIP3   OH233678   0.200   5.777  16.175 -0.1262  0.2560 -0.0190
 4088TIP3    H133679   0.270   5.820  16.125  1.2874 -0.7586  1.0185
 4088TIP3    H233680   0.127   5.839  16.171 -0.1495  0.2011 -3.3905
 4089TIP3   OH233681   3.493   0.296   1.258  0.8180  0.4171 -0.1345
 4089TIP3    H133682   3.432   0.224   1.243  0.5664  0.7066 -0.5144
 4089TIP3    H233683   3.558   0.261   1.319  0.4050  0.0343  0.0811
 4090TIP3   OH233684   3.076   3.952   1.578  0.8875 -0.2450 -0.0645
 4090TIP3    H133685   3.060   3.965   1.671  1.5180 -1.2212  0.1843
 4090TIP3    H233686   3.171   3.944   1.570  0.7520 -1.3942 -0.6281
 4091TIP3   OH233687   4.400   1.471   3.424  0.4176 -0.8581  0.0375
 4091TIP3    H133688   4.387   1.520   3.343 -0.3183  0.0661  0.6861
 4091TIP3    H233689   4.493   1.483   3.445  0.0375  1.2588  0.7607
 4092TIP3   OH233690   5.838   2.676   1.055 -0.3844 -0.1057 -0.2181
 4092TIP3    H133691   5.895   2.607   1.020 -0.3331  1.1574 -2.8801
 4092TIP3    H233692   5.898   2.749   1.073 -0.6987 -0.0503  0.6457
 4093TIP3   OH233693   5.637   0.054  15.268 -0.4275  0.2320 -0.0825
 4093TIP3    H133694   5.727   0.022  15.267 -0.4669  0.0292  1.3374
 4093TIP3    H233695   5.643   0.142  15.231 -0.0348 -0.6085 -2.2112
 4094TIP3   OH233696   6.380   1.038  12.146  0.1463  0.0995 -0.1852
 4094TIP3    H133697   6.331   1.105  12.098  1.4841  1.6158  0.4667
 4094TIP3    H233698   6.365   1.059  12.239 -1.4074 -2.0397  0.1083
 4095TIP3   OH233699   0.818   6.299  16.821 -0.4099 -0.4839  0.0831
 4095TIP3    H133700   0.789   6.246  16.747 -1.0910 -0.9768  0.6852
 4095TIP3    H233701   0.909   6.271  16.836  0.3882  0.9487 -1.7030
 4096TIP3   OH233702   1.272   1.427  16.614 -0.0023 -0.1298  0.0653
 4096TIP3    H133703   1.342   1.402  16.554  0.2476  0.6545  0.0189
 4096TIP3    H233704   1.261   1.351  16.671  0.9389 -0.2375  0.1186
 4097TIP3   OH233705   3.077   4.465   2.959  0.4575 -0.0296  0.3442
 4097TIP3    H133706   3.151   4.521   2.982  0.1679  0.8232 -0.7136
 4097TIP3    H233707   3.116   4.379   2.943  1.0598  0.1335  0.8720
 4098TIP3   OH233708   0.298   4.292   0.699  0.5796 -0.3963 -0.1573
 4098TIP3    H133709   0.250   4.281   0.781  0.0817 -0.0270 -0.3957
 4098TIP3    H233710   0.293   4.206   0.657  0.3577 -0.4336 -0.0542
 4099TIP3   OH233711   2.522   2.975  13.164 -0.8217  0.1809 -0.3871
 4099TIP3    H133712   2.446   2.919  13.184 -1.1801  0.7456 -0.1268
 4099TIP3    H233713   2.546   2.952  13.075 -0.5828 -0.8204 -0.0732
 4100TIP3   OH233714   1.526   5.995   1.455 -0.7096 -0.1311  0.4577
 4100TIP3    H133715   1.500   5.943   1.531  1.4250 -1.6191  0.2508
 4100TIP3    H233716   1.516   5.935   1.381 -1.1785  0.7761 -0.2296
 4101TIP3   OH233717   2.590   0.672   3.839  0.4150  0.0526  0.5816
 4101TIP3    H133718   2.619   0.583   3.823  0.5085  0.5641 -2.7996
 4101TIP3    H233719   2.670   0.725   3.836  0.2245  0.4108  1.3837
 4102TIP3   OH233720   6.497   5.429  11.623 -0.5300  0.3981  0.3539
 4102TIP3    H133721   6.559   5.405  11.691 -1.1785  1.6438  1.4411
 4102TIP3    H233722   6.550   5.469  11.554  0.1405 -0.9222  0.0809
 4103TIP3   OH233723   3.751   3.848  12.267  0.2162  0.4385 -0.4064
 4103TIP3    H133724   3.748   3.845  12.171  1.3373  0.9264 -0.4781
 4103TIP3    H233725   3.703   3.928  12.290  0.1507  0.4460 -0.5686
 4104TIP3   OH233726   4.576   3.082   2.774  0.2398 -0.4297  0.3069
 4104TIP3    H133727   4.515   3.123   2.713 -1.0528 -0.0114  1.8210
 4104TIP3    H233728   4.637   3.151   2.798  1.2848 -0.8128 -1.1027
 4105TIP3   OH233729   5.264   5.747   0.274 -0.6431  0.2742  0.1959
 4105TIP3    H133730   5.254   5.656   0.245 -1.1993  0.6434 -0.8160
 4105TIP3    H233731   5.346   5.748   0.323  0.8729 -0.2007 -2.1758
 4106TIP3   OH233732   4.357   6.607  13.894 -0.5561  0.2073  0.5978
 4106TIP3    H133733   4.403   6.525  13.910  0.3599  0.6284  0.2067
 4106TIP3    H233734   4.287   6.584  13.833 -1.5583 -0.6388  2.0211
 4107TIP3   OH233735   0.429   4.279   5.678  0.7132 -0.4245 -0.1147
 4107TIP3    H133736   0.425   4.232   5.595  1.4374 -1.2746  0.3093
 4107TIP3    H233737   0.522   4.300   5.689  0.5642  0.0506  0.2793
 4108TIP3   OH233738   3.268   0.320   5.344 -0.0261 -0.1900 -0.5614
 4108TIP3    H133739   3.189   0.295   5.391  0.9141 -2.7393 -0.1994
 4108TIP3    H233740   3.259   0.278   5.258  0.8432 -0.3170 -0.5950
 4109TIP3   OH233741   5.569   1.461  11.058 -0.0909 -0.1140 -0.5423
 4109TIP3    H133742   5.597   1.552  11.068  1.7521 -0.2901 -3.0501
 4109TIP3    H233743   5.567   1.427  11.148  0.8537  1.9311  0.3221
 4110TIP3   OH233744   3.069   0.952  13.419  0.0072  0.0772  0.3611
 4110TIP3    H133745   2.995   0.965  13.478 -3.7229 -2.2033 -3.2964
 4110TIP3    H233746   3.070   1.030  13.363  0.8093  0.3279  0.6989
 4111TIP3   OH233747   2.326   0.343   1.808 -0.2405 -0.0471  0.1310
 4111TIP3    H133748   2.301   0.378   1.894  0.0716 -0.0919  0.2388
 4111TIP3    H233749   2.421   0.344   1.808 -0.2392  0.0182 -0.2436
 4112TIP3   OH233750   0.253   5.040   1.708 -0.2833  0.0343 -0.3916
 4112TIP3    H133751   0.169   5.064   1.746  0.3338 -0.7131  1.5616
 4112TIP3    H233752   0.267   4.950   1.737  0.8028 -0.1561 -1.4292
 4113TIP3   OH233753   5.405   2.503   0.730 -0.0971  0.2377  0.0282
 4113TIP3    H133754   5.483   2.535   0.775 -1.3481 -0.1343  2.6424
 4113TIP3    H233755   5.435   2.484   0.640  2.2966  1.9355  0.3831
 4114TIP3   OH233756   0.538   2.444  12.062  0.2126 -0.0343 -0.7885
 4114TIP3    H133757   0.574   2.526  12.026 -1.4377  0.8714 -0.4593
 4114TIP3    H233758   0.445   2.446  12.040 -0.2404 -0.9074  0.8687
 4115TIP3   OH233759   3.843   5.640   5.946  0.1651  0.1288 -0.2919
 4115TIP3    H133760   3.910   5.708   5.953 -1.5048  1.7280  1.4797
 4115TIP3    H233761   3.791   5.649   6.026 -1.9512 -1.2460 -1.4066
 4116TIP3   OH233762   0.411   6.415  14.853 -0.3030 -0.2172 -0.2435
 4116TIP3    H133763   0.506   6.419  14.841 -0.0991 -2.2098  0.2042
 4116TIP3    H233764   0.398   6.432  14.946  0.0173 -3.0466  0.4329
 4117TIP3   OH233765   6.190   2.299   5.416 -0.2870  0.6673  0.1614
 4117TIP3    H133766   6.127   2.276   5.348  0.5605  1.4700 -0.9228
 4117TIP3    H233767   6.135   2.333   5.488 -1.2002 -0.4373  0.0207
 4118TIP3   OH233768   3.875   6.788   2.587  0.7793 -0.4342  1.1198
 4118TIP3    H133769   3.802   6.832   2.543  0.4897 -0.1029  1.9232
 4118TIP3    H233770   3.868   6.816   2.678  1.5435 -0.8954  1.3212
 4119TIP3   OH233771   3.383   3.869   6.501 -0.5052  0.8173 -0.1924
 4119TIP3    H133772   3.359   3.848   6.591  1.0579  0.8287  0.2636
 4119TIP3    H233773   3.478   3.853   6.497 -0.5451  0.7780 -1.8430
 4120TIP3   OH233774   6.636   5.559  14.099  0.3151  0.3273  0.1833
 4120TIP3    H133775   6.686   5.613  14.038 -0.4334  2.0534  1.0234
 4120TIP3    H233776   6.551   5.603  14.106 -0.8354 -1.7150 -0.0843
 4121TIP3   OH233777   4.381   2.930   3.340  0.0087  0.4132  0.2473
 4121TIP3    H133778   4.406   2.930   3.247 -0.2696  1.2888  0.1541
 4121TIP3    H233779   4.405   3.018   3.370  0.2376  0.0828  1.0508
 4122TIP3   OH233780   6.782   0.367   1.271 -0.5918 -0.2721  0.6497
 4122TIP3    H133781   6.715   0.400   1.212  0.4566 -1.3478 -1.2145
 4122TIP3    H233782   6.797   0.439   1.333 -2.1454  0.6464  0.0040
 4123TIP3   OH233783   1.450   0.732   3.163  0.2298  0.6525 -0.6491
 4123TIP3    H133784   1.465   0.640   3.142 -0.5960  0.6526 -1.2796
 4123TIP3    H233785   1.530   0.760   3.207  0.7899 -0.1605 -1.1305
 4124TIP3   OH233786   1.334   3.161   0.704  0.1819 -0.2009  0.4539
 4124TIP3    H133787   1.326   3.119   0.789 -0.2302  0.2752  0.6549
 4124TIP3    H233788   1.249   3.201   0.688  0.4969  0.3753  0.1746
 4125TIP3   OH233789   2.198   5.307  14.809  0.2514 -0.1836 -0.1482
 4125TIP3    H133790   2.103   5.302  14.817  0.2832 -0.4377  0.1023
 4125TIP3    H233791   2.218   5.251  14.734  0.2009 -0.1276 -0.2033
 4126TIP3   OH233792   3.752   0.539   2.776  0.4821  1.1447 -0.2350
 4126TIP3    H133793   3.665   0.499   2.787  1.0123  0.1662  0.6366
 4126TIP3    H233794   3.766   0.541   2.681  1.3364 -2.9126 -0.3647
 4127TIP3   OH233795   3.156   1.371   2.778  0.0449  0.0121 -0.2441
 4127TIP3    H133796   3.147   1.385   2.873  0.9617 -0.2788 -0.1018
 4127TIP3    H233797   3.203   1.448   2.747  3.8220 -1.8362  0.3132
 4128TIP3   OH233798   4.910   1.190   3.372 -0.2754 -0.1892 -0.2990
 4128TIP3    H133799   4.856   1.233   3.306  2.4982  1.8333 -1.4656
 4128TIP3    H233800   4.865   1.206   3.455 -1.5019  1.3135 -1.2126
 4129TIP3   OH233801   6.585   1.623   2.983 -0.6674  0.2781 -0.3291
 4129TIP3    H133802   6.543   1.553   3.033  0.4125 -1.2113 -1.4124
 4129TIP3    H233803   6.564   1.703   3.032 -2.6370 -0.6687  0.5069
 4130TIP3   OH233804   1.680   4.139  12.731  0.4613 -0.1325  0.5575
 4130TIP3    H133805   1.620   4.161  12.802  0.0463  1.6716 -0.2934
 4130TIP3    H233806   1.738   4.216  12.724  1.5106 -0.9514 -0.0245
 4131TIP3   OH233807   0.958   4.498  15.668  0.0088  0.3797  0.2641
 4131TIP3    H133808   1.014   4.437  15.621  0.9480  0.6755  0.9826
 4131TIP3    H233809   0.964   4.580  15.619 -1.8488 -0.2499 -1.1440
 4132TIP3   OH233810   6.296   5.338  13.607  0.1750  0.1765 -0.6330
 4132TIP3    H133811   6.371   5.375  13.653  1.0815  0.5841 -2.3311
 4132TIP3    H233812   6.300   5.377  13.520 -0.9131 -1.2370 -1.3671
 4133TIP3   OH233813   0.673   5.957  12.226  0.1186  0.2309 -0.1042
 4133TIP3    H133814   0.643   5.888  12.167  1.6014 -0.4761 -0.0729
 4133TIP3    H233815   0.640   6.038  12.186  0.5490 -0.2768 -1.5732
 4134TIP3   OH233816   6.289   6.549  15.616  0.2593  0.1308 -0.3147
 4134TIP3    H133817   6.254   6.621  15.669 -1.8546 -1.0563  0.0054
 4134TIP3    H233818   6.232   6.544  15.540  0.6380 -0.9274 -0.5510
 4135TIP3   OH233819   5.320   4.036  10.336  0.1648 -0.6341  0.0794
 4135TIP3    H133820   5.344   3.956  10.289  1.8868  0.0430 -0.2488
 4135TIP3    H233821   5.319   4.010  10.428 -1.2676 -1.4836 -0.1430
 4136TIP3   OH233822   3.404   5.882  14.224  0.1116  0.5867 -0.3063
 4136TIP3    H133823   3.359   5.800  14.247  0.7556  0.4901  0.6696
 4136TIP3    H233824   3.424   5.922  14.308  3.8521 -0.4560 -0.5433
 4137TIP3   OH233825   6.068   3.390  13.506  0.1610 -0.0576  0.1539
 4137TIP3    H133826   6.046   3.460  13.444 -2.1833  1.0089  2.0208
 4137TIP3    H233827   6.123   3.433  13.572 -2.0024  0.4212  1.7888
 4138TIP3   OH233828   0.182   6.234   6.078  0.4911  0.1115 -0.0408
 4138TIP3    H133829   0.191   6.179   6.155  0.5658 -0.5776 -0.5258
 4138TIP3    H233830   0.168   6.322   6.112  1.6101  0.0075  0.7575
 4139TIP3   OH233831   2.069   6.679  12.674 -0.6804  0.1701 -0.6342
 4139TIP3    H133832   2.022   6.748  12.721 -2.2007 -0.8609 -0.5841
 4139TIP3    H233833   2.065   6.705  12.582  0.9097  1.3718 -0.4088
 4140TIP3   OH233834   2.404   4.576   5.217 -0.3326 -0.5419  0.5754
 4140TIP3    H133835   2.365   4.492   5.193 -1.3730  0.1397 -0.2219
 4140TIP3    H233836   2.332   4.639   5.207  0.7073  0.6036  0.1178
 4141TIP3   OH233837   3.845   2.471  15.152  0.1824  0.0158  0.0559
 4141TIP3    H133838   3.822   2.537  15.217  2.1208  0.2712  0.5285
 4141TIP3    H233839   3.791   2.396  15.174  0.8980  0.0476  2.0801
 4142TIP3   OH233840   0.582   1.516   3.704  0.4011  0.3326  0.1761
 4142TIP3    H133841   0.523   1.553   3.639  0.0917 -0.0231  0.2509
 4142TIP3    H233842   0.598   1.426   3.675  1.4948  0.6409 -0.2419
 4143TIP3   OH233843   6.105   1.429   0.669  0.1576  0.1912 -0.2680
 4143TIP3    H133844   6.127   1.469   0.753  1.9403 -0.1649 -0.5143
 4143TIP3    H233845   6.171   1.463   0.608 -1.1604  0.5254 -1.5719
 4144TIP3   OH233846   0.692   1.393  14.893 -0.2813  0.3446  0.2672
 4144TIP3    H133847   0.642   1.451  14.835 -2.2657  0.5584  2.0432
 4144TIP3    H233848   0.655   1.306  14.876  0.1840  0.1742  0.1360
 4145TIP3   OH233849   1.878   0.965  16.115  0.4057  0.8633 -0.7516
 4145TIP3    H133850   1.844   0.893  16.168 -0.7896  0.9228 -1.4119
 4145TIP3    H233851   1.944   0.925  16.059  1.1635  0.6667  0.2496
 4146TIP3   OH233852   5.594   4.847  12.168 -0.1355 -0.2968  0.0715
 4146TIP3    H133853   5.560   4.890  12.091 -1.0201 -1.1039 -0.0049
 4146TIP3    H233854   5.687   4.834  12.149  0.2353  1.7906  0.2266
 4147TIP3   OH233855   5.059   1.633   2.073 -0.2408  0.3941 -0.0629
 4147TIP3    H133856   5.144   1.601   2.042  0.1041  0.1241  1.1027
 4147TIP3    H233857   5.075   1.723   2.099 -0.1220  0.1084  0.8702
 4148TIP3   OH233858   1.933   0.109   6.223 -0.4109 -0.0906  0.3609
 4148TIP3    H133859   1.851   0.089   6.179 -0.2268  1.1404 -0.6229
 4148TIP3    H233860   1.951   0.033   6.277 -0.8150 -1.5709 -1.4919
 4149TIP3   OH233861   3.373   6.374  10.445  0.2552 -0.5743  0.2394
 4149TIP3    H133862   3.445   6.317  10.418  1.1216  0.7193 -0.2754
 4149TIP3    H233863   3.366   6.361  10.540  1.4973 -0.3569  0.3703
 4150TIP3   OH233864   1.899   1.746  15.724  0.1507 -0.4762 -0.3460
 4150TIP3    H133865   1.988   1.783  15.722  0.4806 -1.0930  1.1834
 4150TIP3    H233866   1.852   1.802  15.785 -0.5318 -0.1551 -1.1506
 4151TIP3   OH233867   0.386   4.957  15.622 -0.0659 -0.6318  0.6669
 4151TIP3    H133868   0.310   4.944  15.680 -1.4545 -0.1601 -0.9593
 4151TIP3    H233869   0.453   4.993  15.679 -1.2825 -0.4287  2.0463
 4152TIP3   OH233870   2.225   0.409  14.804 -0.6626 -0.0512  0.4548
 4152TIP3    H133871   2.312   0.430  14.769 -0.7769 -1.1667 -0.5855
 4152TIP3    H233872   2.217   0.464  14.882  0.5844  0.7794  0.0421
 4153TIP3   OH233873   6.173   5.256  12.966 -0.2797 -0.1222 -0.3679
 4153TIP3    H133874   6.264   5.284  12.967 -0.1304 -0.2554 -3.0407
 4153TIP3    H233875   6.170   5.178  13.022  1.0013  0.4685  0.5515
 4154TIP3   OH233876   1.408   3.517   0.432  0.3595 -0.3086  0.4336
 4154TIP3    H133877   1.343   3.485   0.494  0.2739 -1.6398 -0.3155
 4154TIP3    H233878   1.492   3.489   0.468  0.5429  1.1092  1.2181
 4155TIP3   OH233879   4.431   2.251  12.902  0.3320  0.1477  0.4059
 4155TIP3    H133880   4.359   2.220  12.847 -0.1489  1.5691  0.1872
 4155TIP3    H233881   4.470   2.172  12.937 -1.2620 -0.6705  0.4285
 4156TIP3   OH233882   5.362   5.907   5.022 -0.2081 -0.0087  0.0467
 4156TIP3    H133883   5.429   5.865   5.076 -0.7092  0.9922  1.5147
 4156TIP3    H233884   5.367   6.000   5.045 -1.6579  0.1799 -0.2867
 4157TIP3   OH233885   1.274   4.816   6.164 -0.2672  0.0000 -0.2118
 4157TIP3    H133886   1.186   4.791   6.137 -0.0769  0.4116 -1.2800
 4157TIP3    H233887   1.315   4.849   6.084  1.5704 -2.1332 -0.2725
 4158TIP3   OH233888   2.216   0.745   2.067 -0.5748  0.5052  0.4677
 4158TIP3    H133889   2.202   0.790   2.151  0.9391 -0.1738  1.1307
 4158TIP3    H233890   2.213   0.814   2.001 -0.8310  1.1944  1.1864
 4159TIP3   OH233891   6.286   0.837  14.975  0.0571  0.6588  0.0399
 4159TIP3    H133892   6.345   0.788  15.031  0.2809  0.4973 -0.3376
 4159TIP3    H233893   6.342   0.898  14.928 -0.0088  0.1835 -0.6700
 4160TIP3   OH233894   3.471   0.806   4.867  0.0036 -0.3635  0.4184
 4160TIP3    H133895   3.493   0.718   4.895  0.4594 -0.5296 -0.4337
 4160TIP3    H233896   3.555   0.851   4.858 -0.2555  0.3420  1.4192
 4161TIP3   OH233897   2.867   2.484  15.016  0.1556  0.2869  0.1530
 4161TIP3    H133898   2.828   2.571  15.028 -0.7172 -0.1452  0.5191
 4161TIP3    H233899   2.792   2.425  15.010  0.7280 -0.3744 -0.6711
 4162TIP3   OH233900   5.371   0.726   4.676 -0.5546 -0.7824 -0.2625
 4162TIP3    H133901   5.389   0.817   4.650 -1.8123  0.0266  1.4672
 4162TIP3    H233902   5.453   0.695   4.714 -0.5427  0.1912  0.5577
 4163TIP3   OH233903   2.767   4.421   2.494  0.2084 -0.4985 -0.1127
 4163TIP3    H133904   2.743   4.455   2.407  2.5661 -0.0566 -0.6432
 4163TIP3    H233905   2.795   4.331   2.478  1.4695 -0.1481  0.0140
 4164TIP3   OH233906   2.639   5.479  11.647 -0.0117  0.3558  0.4305
 4164TIP3    H133907   2.705   5.412  11.666 -0.8145 -0.2260  1.2931
 4164TIP3    H233908   2.601   5.452  11.564 -0.6955 -0.5802  1.0297
 4165TIP3   OH233909   0.807   5.658   5.973  0.3624  0.4408 -0.2319
 4165TIP3    H133910   0.776   5.658   6.064  1.5546 -1.3962  0.2189
 4165TIP3    H233911   0.861   5.737   5.967 -0.2245  0.9142  0.4459
 4166TIP3   OH233912   5.546   3.999  12.957  0.3558 -0.5446  0.1163
 4166TIP3    H133913   5.553   3.978  12.864 -0.5587 -2.1179  0.3623
 4166TIP3    H233914   5.456   4.032  12.968 -0.2977 -2.4253  0.7623
 4167TIP3   OH233915   5.485   0.132  13.382 -0.1405  0.6770 -0.3467
 4167TIP3    H133916   5.526   0.130  13.296 -0.1687 -0.7663 -0.3479
 4167TIP3    H233917   5.534   0.199  13.430  0.3724  0.9607 -1.2346
 4168TIP3   OH233918   2.613   5.751  12.262 -0.1779 -0.7248  0.0799
 4168TIP3    H133919   2.606   5.658  12.284 -0.0163 -0.5118  1.0437
 4168TIP3    H233920   2.553   5.762  12.188  0.0690 -1.6676 -0.2691
 4169TIP3   OH233921   4.785   6.033   5.871  0.9300  0.2232  0.4860
 4169TIP3    H133922   4.695   6.064   5.869 -0.1732 -2.7129 -0.3915
 4169TIP3    H233923   4.801   6.012   5.963 -0.4051 -1.9727  0.2886
 4170TIP3   OH233924   3.783   3.269  16.630 -0.1306 -0.1051 -0.3035
 4170TIP3    H133925   3.866   3.239  16.593  0.5274  0.9737  0.2403
 4170TIP3    H233926   3.733   3.189  16.645  0.0378 -0.6621 -2.3805
 4171TIP3   OH233927   0.208   4.505  11.134 -0.3287 -0.2410 -0.0445
 4171TIP3    H133928   0.133   4.449  11.153  0.6775 -1.3247  0.9213
 4171TIP3    H233929   0.262   4.453  11.074  0.1715  0.0802  0.1200
 4172TIP3   OH233930   5.768   4.776  14.013  0.5115 -0.1523  0.1412
 4172TIP3    H133931   5.746   4.772  14.106 -0.6850  1.3297 -0.0421
 4172TIP3    H233932   5.803   4.865  14.001 -0.4762  0.1056 -1.0293
 4173TIP3   OH233933   0.908   4.434  12.783  0.0904 -0.2917 -0.6677
 4173TIP3    H133934   0.838   4.421  12.846 -0.3438  0.8224 -0.8849
 4173TIP3    H233935   0.887   4.374  12.711  0.6887 -1.6948  0.2975
 4174TIP3   OH233936   3.001   3.827   2.995 -0.4191  0.2121  0.3807
 4174TIP3    H133937   2.925   3.874   3.027  1.0646  1.7874  1.8152
 4174TIP3    H233938   3.032   3.778   3.070 -0.8397 -1.6469 -0.5978
 4175TIP3   OH233939   0.855   1.867  14.749  0.1993 -0.3978 -0.2459
 4175TIP3    H133940   0.850   1.921  14.670  1.1366  0.0167 -0.0338
 4175TIP3    H233941   0.764   1.859  14.778  0.0744  1.7685  0.1707
 4176TIP3   OH233942   3.214   5.939   2.625  0.3023 -0.2999 -0.4043
 4176TIP3    H133943   3.252   5.875   2.685  1.2136  1.2366  0.7488
 4176TIP3    H233944   3.262   5.926   2.543 -0.0734 -1.5781 -0.4454
 4177TIP3   OH233945   2.541   2.621   1.523  0.3798  0.5851 -0.0694
 4177TIP3    H133946   2.592   2.554   1.478 -0.9549  0.4510 -1.4936
 4177TIP3    H233947   2.602   2.663   1.583  1.2992 -1.8294  0.8096
 4178TIP3   OH233948   2.631   0.161   4.731 -0.0429  0.3692  0.5600
 4178TIP3    H133949   2.550   0.198   4.698  0.2868  0.1658 -0.5234
 4178TIP3    H233950   2.682   0.140   4.652  1.1196  0.6394  1.2106
 4179TIP3   OH233951   6.675   3.676   4.925  0.2256  0.7143  0.2891
 4179TIP3    H133952   6.708   3.693   5.013 -1.4243 -1.8220  1.5423
 4179TIP3    H233953   6.725   3.600   4.895 -0.4464  0.4454 -0.1724
 4180TIP3   OH233954   4.826   0.067   1.011  0.2714  0.2082  0.4120
 4180TIP3    H133955   4.807  -0.021   0.981  0.6218  0.1617  0.3189
 4180TIP3    H233956   4.915   0.085   0.979  0.8225  0.0045  1.7680
 4181TIP3   OH233957   2.411   3.134  11.426 -0.7203  0.2012  0.2053
 4181TIP3    H133958   2.436   3.083  11.349 -0.8696 -0.5204  0.6255
 4181TIP3    H233959   2.434   3.224  11.404  0.4736 -0.1723 -0.1770
 4182TIP3   OH233960   2.391   3.013  17.191  0.3228  0.1979 -0.0403
 4182TIP3    H133961   2.453   3.078  17.159  1.1468 -0.2414  0.6451
 4182TIP3    H233962   2.351   3.054  17.268  0.6384  0.0048  0.2265
 4183TIP3   OH233963   4.318   1.320  13.155  0.2593  0.0612  0.1840
 4183TIP3    H133964   4.408   1.321  13.187  0.2600  0.7461  0.1769
 4183TIP3    H233965   4.269   1.268  13.219  0.6704 -0.3878  0.1409
 4184TIP3   OH233966   2.723   3.954   5.401  0.6045 -0.3612  0.2027
 4184TIP3    H133967   2.657   4.017   5.374  1.6306  0.0392 -1.5114
 4184TIP3    H233968   2.749   3.982   5.489 -1.2679 -0.3827  0.8090
 4185TIP3   OH233969   2.324   2.680   2.362 -0.0821 -0.3507 -0.0265
 4185TIP3    H133970   2.291   2.601   2.406 -0.7115 -0.6430 -0.9834
 4185TIP3    H233971   2.400   2.649   2.312  0.0491 -0.2177  0.0907
 4186TIP3   OH233972   3.544   5.412  11.688  0.0946  0.7285  0.0507
 4186TIP3    H133973   3.607   5.469  11.731 -0.4459  1.5000 -0.1377
 4186TIP3    H233974   3.557   5.428  11.594 -0.6693  1.2587  0.0164
 4187TIP3   OH233975   2.856   3.237  11.168 -0.0732 -0.0888  0.4023
 4187TIP3    H133976   2.771   3.249  11.125 -0.1936 -2.3447 -0.0749
 4187TIP3    H233977   2.917   3.287  11.113 -0.8116  0.0706 -0.2988
 4188TIP3   OH233978   1.452   2.261   2.926 -0.0234  0.9041 -0.4143
 4188TIP3    H133979   1.380   2.283   2.985  0.0061 -0.4813  0.1902
 4188TIP3    H233980   1.429   2.174   2.891  2.2742 -0.5665  1.4146
 4189TIP3   OH233981   3.078   2.333  13.587 -0.4432 -0.1256  0.4025
 4189TIP3    H133982   3.050   2.330  13.679 -3.3375 -3.2142 -0.3883
 4189TIP3    H233983   3.138   2.258  13.578  0.8821  0.9401 -0.0213
 4190TIP3   OH233984   4.038   0.331   3.630  0.0353 -0.5606  0.3088
 4190TIP3    H133985   4.034   0.276   3.552 -0.7698 -1.3048  0.8543
 4190TIP3    H233986   4.127   0.367   3.629  1.3871 -3.5654  1.0513
 4191TIP3   OH233987   1.038   1.702  13.286  0.2041 -0.3047  0.6069
 4191TIP3    H133988   1.005   1.752  13.360 -1.6262  0.3614 -0.5878
 4191TIP3    H233989   0.968   1.640  13.264  0.4375 -0.0807 -0.9158
 4192TIP3   OH233990   5.519   5.488   5.797 -0.1907  0.3473  0.0979
 4192TIP3    H133991   5.536   5.409   5.849 -0.0001  0.6424  0.4946
 4192TIP3    H233992   5.606   5.525   5.781 -0.3597  1.5942  1.7117
 4193TIP3   OH233993   0.032   0.091   2.684 -0.5991 -0.2612 -0.1347
 4193TIP3    H133994  -0.012   0.014   2.720 -1.2652 -0.0653 -0.5113
 4193TIP3    H233995   0.052   0.145   2.761  0.0305 -0.8768  0.1480
 4194TIP3   OH233996   6.168   2.685   1.867  0.4733  0.2977  0.1205
 4194TIP3    H133997   6.202   2.768   1.835  1.6870 -0.7566 -1.5166
 4194TIP3    H233998   6.082   2.676   1.825  0.2030  0.8503  0.5480
 4195TIP3   OH233999   5.215   4.843   5.003 -0.1817 -0.3023  0.4004
 4195TIP3    H134000   5.237   4.869   4.914  0.0926  0.3633  0.6520
 4195TIP3    H234001   5.186   4.752   4.996  2.6677 -1.2780  0.0332
 4196TIP3   OH234002   3.720   3.276  14.435 -0.1690  0.0807 -0.2321
 4196TIP3    H134003   3.814   3.280  14.453 -0.4708  0.3380  1.4794
 4196TIP3    H234004   3.696   3.366  14.410 -0.2656  0.4911  1.2207
 4197TIP3   OH234005   5.678   2.050   4.451 -0.1876 -0.6631  0.1216
 4197TIP3    H134006   5.588   2.029   4.424  0.5501 -2.1889 -1.3718
 4197TIP3    H234007   5.689   2.004   4.535 -0.7638 -0.5389  0.2701
 4198TIP3   OH234008   1.812   0.358   1.235  0.1852  0.3602  0.0799
 4198TIP3    H134009   1.842   0.395   1.318 -0.1170 -0.1164  0.4068
 4198TIP3    H234010   1.773   0.432   1.188 -1.0208  0.3356  0.9993
 4199TIP3   OH234011   6.581   2.669  12.591  0.4755 -0.1461 -0.0424
 4199TIP3    H134012   6.567   2.714  12.675  0.5241 -0.3431  0.0721
 4199TIP3    H234013   6.538   2.725  12.526  1.1694  0.4618 -0.0007
 4200TIP3   OH234014   2.637   1.990  11.562  0.5853  0.7047  0.1006
 4200TIP3    H134015   2.577   1.943  11.621  0.8755  0.4423  0.1928
 4200TIP3    H234016   2.638   1.937  11.482  1.6080  0.0565  0.5324
 4201TIP3   OH234017   5.112   5.412   6.200  0.2369  0.4419 -0.7396
 4201TIP3    H134018   5.043   5.397   6.264  0.3819 -0.8853 -0.8733
 4201TIP3    H234019   5.193   5.410   6.250  0.2988  0.2113 -0.8509
 4202TIP3   OH234020   2.492   4.631   4.460  0.6498  0.4637 -0.0150
 4202TIP3    H134021   2.416   4.590   4.502  2.1808 -2.1059  0.4902
 4202TIP3    H234022   2.459   4.660   4.375 -1.9877  3.7709  1.8639
 4203TIP3   OH234023   6.177   3.364   3.150 -0.0139  0.0487 -0.8743
 4203TIP3    H134024   6.248   3.299   3.145  0.6335  0.6225  0.4353
 4203TIP3    H234025   6.104   3.316   3.190  0.1662 -0.1203 -0.7435
 4204TIP3   OH234026   4.791   4.356  16.225 -0.3220 -0.6665 -0.4735
 4204TIP3    H134027   4.830   4.326  16.143 -1.0286 -0.0191 -1.0545
 4204TIP3    H234028   4.831   4.300  16.292 -0.1774 -1.6078 -1.3191
 4205TIP3   OH234029   3.400   5.768  15.700 -0.0288 -0.1180 -0.0336
 4205TIP3    H134030   3.481   5.798  15.659 -0.2574  2.6621  1.3314
 4205TIP3    H234031   3.421   5.757  15.792 -0.7025 -1.5734 -0.0211
 4206TIP3   OH234032   3.593   1.055   4.561 -0.1501 -0.2784  0.3054
 4206TIP3    H134033   3.578   1.004   4.481  2.2081 -1.1061  0.3061
 4206TIP3    H234034   3.687   1.046   4.577 -0.5763 -0.2657  3.2760
 4207TIP3   OH234035   5.735   3.050  14.473 -0.3094  0.3862  0.0005
 4207TIP3    H134036   5.752   2.956  14.469 -0.3592  0.3851 -0.2122
 4207TIP3    H234037   5.676   3.067  14.399 -2.2263  0.1849  1.3982
 4208TIP3   OH234038   5.830   3.715   0.482  0.5533 -0.7165 -0.0494
 4208TIP3    H134039   5.815   3.641   0.422  2.1488 -0.0419 -1.3394
 4208TIP3    H234040   5.743   3.751   0.496 -0.2325 -2.6177  0.3447
 4209TIP3   OH234041   2.691   2.979   2.821  0.2271 -0.2559  0.2204
 4209TIP3    H134042   2.783   2.993   2.799  0.4481 -0.7576  0.8027
 4209TIP3    H234043   2.676   3.034   2.898  0.4286 -1.2424  0.9865
 4210TIP3   OH234044   0.233   2.375  10.820 -0.4813  0.3500 -0.0274
 4210TIP3    H134045   0.178   2.445  10.856 -1.3703  0.4615 -1.4990
 4210TIP3    H234046   0.202   2.364  10.730  1.2163 -0.3340 -0.5776
 4211TIP3   OH234047   6.707   5.580   3.001  0.2686 -0.0500  0.1537
 4211TIP3    H134048   6.758   5.527   2.939 -0.8227 -1.6227  0.5249
 4211TIP3    H234049   6.753   5.664   3.005  0.6009 -0.0134 -2.4942
 4212TIP3   OH234050   6.425   1.041  14.217 -0.3658 -0.6708 -0.1340
 4212TIP3    H134051   6.483   0.995  14.156 -0.8217 -0.7683 -0.4973
 4212TIP3    H234052   6.382   1.108  14.163 -2.4704 -2.2006 -0.4654
 4213TIP3   OH234053   0.207   4.249   4.593 -0.0468  0.4452  0.0808
 4213TIP3    H134054   0.137   4.255   4.658  0.0373 -0.4198  0.2594
 4213TIP3    H234055   0.259   4.329   4.607 -0.7525  0.8889  0.2180
 4214TIP3   OH234056   6.474   4.708  15.127  0.0523 -0.0143  0.2795
 4214TIP3    H134057   6.468   4.617  15.157 -0.2567 -0.1101 -0.0755
 4214TIP3    H234058   6.423   4.758  15.192 -2.8291 -0.5333 -1.4399
 4215TIP3   OH234059   5.418   5.613   2.247  0.1160 -0.9755  0.3334
 4215TIP3    H134060   5.354   5.674   2.212 -0.9672 -1.7104  0.9562
 4215TIP3    H234061   5.489   5.668   2.279 -0.9063 -0.0298  1.0350
 4216TIP3   OH234062   4.101   6.647  14.511 -0.1713  0.5101 -0.6578
 4216TIP3    H134063   4.182   6.652  14.563  0.6644  0.3856 -1.8944
 4216TIP3    H234064   4.046   6.717  14.545  0.4066  0.5194  0.2940
 4217TIP3   OH234065   3.959   4.746  15.140 -0.3269 -0.0269  0.4521
 4217TIP3    H134066   3.883   4.690  15.158 -0.8019  0.3807 -0.2139
 4217TIP3    H234067   3.922   4.823  15.095  0.6240 -0.4821 -1.2139
 4218TIP3   OH234068   6.626   0.628  17.013 -0.6873 -0.2526 -0.3002
 4218TIP3    H134069   6.669   0.591  17.090 -1.0812  1.1243  0.6136
 4218TIP3    H234070   6.666   0.582  16.939  1.2728 -0.0941  0.5975
 4219TIP3   OH234071   6.363   5.094   0.063 -0.2843 -0.1222  0.0257
 4219TIP3    H134072   6.364   4.999   0.075  1.1161 -0.2186 -0.6781
 4219TIP3    H234073   6.371   5.107  -0.031  2.1458  0.6656  0.2563
 4220TIP3   OH234074   4.539   4.662  14.522 -0.0258 -0.7299  0.1280
 4220TIP3    H134075   4.584   4.747  14.513  0.1489 -0.8383 -0.0384
 4220TIP3    H234076   4.461   4.682  14.573 -0.2282 -0.3812 -0.3127
 4221TIP3   OH234077   6.107   4.498   0.516 -0.7893 -0.2368  0.1582
 4221TIP3    H134078   6.054   4.518   0.593  0.9724 -0.2976  1.4431
 4221TIP3    H234079   6.183   4.453   0.550 -0.7921 -1.8916 -1.8401
 4222TIP3   OH234080   6.707   1.786   2.255 -0.5159  0.5581 -0.4281
 4222TIP3    H134081   6.745   1.749   2.335  0.8349 -0.2044 -1.3738
 4222TIP3    H234082   6.649   1.718   2.223  1.2184 -0.4427 -1.6391
 4223TIP3   OH234083   2.672   3.442  12.662  0.2579  0.5067  0.2014
 4223TIP3    H134084   2.643   3.532  12.679  1.0472  0.8687 -0.2950
 4223TIP3    H234085   2.620   3.415  12.586  1.9403  1.5714 -1.4241
 4224TIP3   OH234086   1.418   2.228   5.383  0.2082 -0.6925 -0.0479
 4224TIP3    H134087   1.501   2.271   5.362  0.3243 -1.1247 -0.4935
 4224TIP3    H234088   1.358   2.300   5.400 -0.0259 -0.2518 -2.3604
 4225TIP3   OH234089   0.769   4.527   0.854 -0.0883  0.4776 -1.0204
 4225TIP3    H134090   0.824   4.605   0.866 -1.9062  1.4348  2.8216
 4225TIP3    H234091   0.825   4.454   0.879  0.3333  1.1220 -0.0011
 4226TIP3   OH234092   1.238   4.688   4.775 -0.3448 -0.7350  0.1100
 4226TIP3    H134093   1.159   4.642   4.748 -0.0296 -1.2145  0.0039
 4226TIP3    H234094   1.205   4.768   4.818 -0.8648 -0.5533 -0.6081
 4227TIP3   OH234095   1.771   3.123   2.686  0.0364  0.3961 -0.6597
 4227TIP3    H134096   1.854   3.114   2.638 -0.7677  1.7970 -2.4277
 4227TIP3    H234097   1.726   3.196   2.643 -2.0300 -0.1751  0.3986
 4228TIP3   OH234098   4.390   0.836  15.218 -0.2291 -0.0176 -0.1846
 4228TIP3    H134099   4.478   0.833  15.256  0.4418  0.3591 -1.6399
 4228TIP3    H234100   4.356   0.922  15.241  0.4218  0.4532 -0.9233
 4229TIP3   OH234101   2.000   6.247   3.368 -0.1758 -0.1676  0.2093
 4229TIP3    H134102   2.050   6.197   3.432  0.9917  0.0673 -0.5084
 4229TIP3    H234103   1.937   6.296   3.421 -0.2469 -1.1303  1.0491
 4230TIP3   OH234104   5.627   3.044  14.778  0.1034  0.5576 -0.4000
 4230TIP3    H134105   5.566   3.040  14.704 -0.6134  0.0015  0.2080
 4230TIP3    H234106   5.698   2.984  14.754 -1.0933 -1.1832  0.1896
 4231TIP3   OH234107   5.648   1.940  11.998 -0.2071  0.3233 -0.3271
 4231TIP3    H134108   5.587   2.013  11.990 -0.6392  0.0635  0.4330
 4231TIP3    H234109   5.660   1.930  12.093  1.7902  0.9928 -0.4756
 4232TIP3   OH234110   3.872   4.873   3.123 -0.2817  0.5751  0.2340
 4232TIP3    H134111   3.788   4.851   3.082 -1.7220  1.8608  2.3027
 4232TIP3    H234112   3.922   4.791   3.120 -0.8131  0.2431 -2.7030
 4233TIP3   OH234113   1.049   1.545   0.396  0.2868 -0.9355 -0.1979
 4233TIP3    H134114   1.039   1.454   0.368  1.3685 -1.0957 -0.0968
 4233TIP3    H234115   1.083   1.538   0.486 -0.7905 -0.4232  0.2666
 4234TIP3   OH234116   1.322   6.799  14.741 -0.3480 -0.1753 -0.2740
 4234TIP3    H134117   1.317   6.875  14.683 -1.9827 -0.0095  0.0405
 4234TIP3    H234118   1.235   6.760  14.737  0.5121 -2.2240 -0.6501
 4235TIP3   OH234119   4.367   0.402   4.037 -0.0091 -0.4943  0.4301
 4235TIP3    H134120   4.273   0.391   4.031 -0.3818  1.5294  1.5698
 4235TIP3    H234121   4.380   0.497   4.040  2.1894 -0.6793 -1.2214
 4236TIP3   OH234122   4.962   2.956  17.023  0.0787  0.6551 -0.6702
 4236TIP3    H134123   4.916   2.973  17.105  0.4099  1.0585 -0.5665
 4236TIP3    H234124   4.957   2.860  17.013 -1.1512  0.7271 -0.8897
 4237TIP3   OH234125   5.995   4.839   0.179 -0.6539 -0.1311 -0.0898
 4237TIP3    H134126   5.909   4.876   0.157 -0.5923 -0.7413 -1.4504
 4237TIP3    H234127   5.987   4.746   0.158  0.4631 -0.1197 -0.6226
 4238TIP3   OH234128   4.851   2.083   6.284  0.0923 -0.0232 -0.3549
 4238TIP3    H134129   4.943   2.078   6.310  0.0236 -0.0147 -0.0993
 4238TIP3    H234130   4.834   2.176   6.273  0.7978 -0.1381 -2.9704
 4239TIP3   OH234131   2.129   1.208   1.252  0.6034  0.0808 -0.0433
 4239TIP3    H134132   2.090   1.207   1.165  0.0989 -0.2619  0.1800
 4239TIP3    H234133   2.124   1.117   1.281  1.5268  0.0419  0.0118
 4240TIP3   OH234134   3.365   1.153   3.183 -0.0851  0.3889  0.4700
 4240TIP3    H134135   3.438   1.128   3.126 -0.8354 -1.3433  0.2241
 4240TIP3    H234136   3.399   1.142   3.271  0.0608 -0.0531  0.3597
 4241TIP3   OH234137   1.841   2.964   1.756 -0.0430 -0.3238  0.7922
 4241TIP3    H134138   1.932   2.971   1.727 -0.5676  1.3698 -0.6719
 4241TIP3    H234139   1.836   3.021   1.832  0.1416 -0.4731  0.9169
 4242TIP3   OH234140   6.802   3.146   2.208  0.1483 -0.2369 -0.2843
 4242TIP3    H134141   6.842   3.226   2.241 -0.6016 -0.3455  0.9436
 4242TIP3    H234142   6.847   3.129   2.125  0.6283  1.1989 -0.3399
 4243TIP3   OH234143   0.446   4.122   3.094 -0.3235  0.7368 -0.1047
 4243TIP3    H134144   0.382   4.076   3.149 -0.3802  2.1602  1.0906
 4243TIP3    H234145   0.497   4.052   3.053 -3.7169 -0.5821 -2.5651
 4244TIP3   OH234146   1.628   6.417   3.307  0.1790 -0.4338  0.7379
 4244TIP3    H134147   1.598   6.431   3.397 -0.6920 -0.5893  0.4838
 4244TIP3    H234148   1.550   6.389   3.260  0.5820 -0.1603 -0.1176
 4245TIP3   OH234149   3.687   0.159  13.144  0.1398 -0.0400 -0.2021
 4245TIP3    H134150   3.594   0.181  13.146  0.3276  0.7481  1.5427
 4245TIP3    H234151   3.693   0.085  13.084 -1.1846  1.7552 -2.7438
 4246TIP3   OH234152   2.489   6.059  13.753  0.8659  0.0141  0.1308
 4246TIP3    H134153   2.440   5.991  13.800  2.2339  0.6136  2.6143
 4246TIP3    H234154   2.551   6.011  13.699 -0.3598 -0.7084 -0.6918
 4247TIP3   OH234155   0.636   2.588  11.704  0.1155  0.3061  0.2794
 4247TIP3    H134156   0.625   2.505  11.656 -3.4626  0.1235  1.1624
 4247TIP3    H234157   0.704   2.569  11.769  1.0636 -1.1509 -1.0473
 4248TIP3   OH234158   0.869   4.036   2.853  0.0373 -0.2064  0.3911
 4248TIP3    H134159   0.914   4.060   2.934  1.3163  2.7437 -1.0253
 4248TIP3    H234160   0.932   3.982   2.806  0.0604 -0.3346  0.5695
 4249TIP3   OH234161   3.018   1.425  14.176  0.1105  0.3272 -0.1713
 4249TIP3    H134162   2.964   1.366  14.228 -1.4875  2.2223  0.4654
 4249TIP3    H234163   3.099   1.434  14.226  0.8097 -2.0341 -0.7922
 4250TIP3   OH234164   4.799   5.240   0.958  0.0297  0.0583 -0.0926
 4250TIP3    H134165   4.832   5.163   1.005 -0.2420 -0.4680 -0.7338
 4250TIP3    H234166   4.878   5.284   0.927  0.2024  0.2747  0.6308
 4251TIP3   OH234167   1.918   4.866  13.387 -0.2906  0.0002 -0.4385
 4251TIP3    H134168   1.860   4.819  13.447 -0.3351 -0.7140 -1.0183
 4251TIP3    H234169   1.990   4.897  13.443 -1.0224  0.5425  0.2096
 4252TIP3   OH234170   5.834   5.021   1.378  0.4620 -0.2950 -0.2981
 4252TIP3    H134171   5.812   5.112   1.397  1.5590 -0.1634  0.4475
 4252TIP3    H234172   5.823   5.012   1.283  0.2190  0.5709 -0.3541
 4253TIP3   OH234173   6.617   1.336   2.881 -0.2601  0.6002  0.0098
 4253TIP3    H134174   6.531   1.293   2.884 -0.3543  0.8217  0.5425
 4253TIP3    H234175   6.608   1.401   2.811 -0.5317  0.6322  0.0714
 4254TIP3   OH234176   2.973   5.873   1.909 -0.3333  0.1394 -0.0756
 4254TIP3    H134177   2.883   5.841   1.924 -0.4669  1.3528  2.0862
 4254TIP3    H234178   3.029   5.805   1.947 -0.2055 -1.0551 -2.2048
 4255TIP3   OH234179   2.537   5.128   0.234 -0.0856 -0.2723 -0.1867
 4255TIP3    H134180   2.557   5.083   0.152 -2.0357  1.1674 -1.5639
 4255TIP3    H234181   2.617   5.121   0.286  2.3185  1.1658 -3.3306
 4256TIP3   OH234182   1.562   0.852  16.324 -0.9290  0.5132  0.8674
 4256TIP3    H134183   1.550   0.946  16.334  0.4035  0.7394  0.5732
 4256TIP3    H234184   1.657   0.839  16.333 -1.2023 -0.9631  2.2060
 4257TIP3   OH234185   2.618   0.568   2.728 -0.1559  0.1095  0.6718
 4257TIP3    H134186   2.560   0.494   2.748 -0.5318  0.1995 -0.0415
 4257TIP3    H234187   2.597   0.590   2.638  1.9526 -0.7124 -0.0604
 4258TIP3   OH234188   3.583   6.154  11.535  0.0538  0.4757  0.5028
 4258TIP3    H134189   3.511   6.108  11.493 -0.6084  1.1077  0.9276
 4258TIP3    H234190   3.552   6.171  11.624  0.9925  0.1496  0.9039
 4259TIP3   OH234191   6.433   0.578   5.445 -0.0557  0.2074  0.4868
 4259TIP3    H134192   6.349   0.580   5.491  0.3435 -1.3258  1.3335
 4259TIP3    H234193   6.497   0.606   5.510  0.3744 -0.9380  0.5807
 4260TIP3   OH234194   3.016   6.212  17.161  0.2819  0.1217 -0.1793
 4260TIP3    H134195   2.962   6.134  17.151  1.1363 -0.3662 -1.2407
 4260TIP3    H234196   2.994   6.267  17.085 -1.4948  1.7132  1.3694
 4261TIP3   OH234197   5.636   5.697   6.005 -0.0017 -0.1119  0.0017
 4261TIP3    H134198   5.721   5.657   6.022  0.2983 -0.1853 -1.5165
 4261TIP3    H234199   5.607   5.728   6.091  2.2735  1.3318  0.3648
 4262TIP3   OH234200   6.205   2.112  13.691 -0.3773  0.5323 -0.1485
 4262TIP3    H134201   6.205   2.137  13.783 -0.5427  1.0702 -0.2898
 4262TIP3    H234202   6.118   2.074  13.676 -0.2433  0.1740 -0.0106
 4263TIP3   OH234203   6.237   5.619   4.883  0.3671 -0.3476 -0.1669
 4263TIP3    H134204   6.281   5.606   4.799  0.8104 -3.2057  0.4248
 4263TIP3    H234205   6.306   5.643   4.944  0.6108 -1.5767  0.0603
 4264TIP3   OH234206   4.204   6.748  16.523 -0.3223  0.0109 -0.2183
 4264TIP3    H134207   4.259   6.826  16.536 -0.2240 -0.2556  1.0368
 4264TIP3    H234208   4.130   6.780  16.471  0.8011  0.4511 -1.6179
 4265TIP3   OH234209   1.169   3.742   4.525 -0.3323 -0.2317 -0.0328
 4265TIP3    H134210   1.229   3.743   4.600  2.5018  0.2658 -2.1326
 4265TIP3    H234211   1.123   3.826   4.530 -0.0556 -0.1262  1.0238
 4266TIP3   OH234212   5.350   4.252  15.817  0.0084  0.3537  0.2174
 4266TIP3    H134213   5.318   4.162  15.821 -0.1113  0.2012 -2.4059
 4266TIP3    H234214   5.416   4.251  15.747  1.2417  1.9591  1.2869
 4267TIP3   OH234215   0.423   0.469   0.947 -0.1145  0.1496  0.0436
 4267TIP3    H134216   0.518   0.479   0.945  0.0157 -0.8737 -1.9132
 4267TIP3    H234217   0.390   0.554   0.975  1.3643  0.6862  0.2093
 4268TIP3   OH234218   2.946   4.243  15.728  0.1407 -0.2518 -0.3360
 4268TIP3    H134219   2.890   4.269  15.655  1.5468  2.3372 -0.6069
 4268TIP3    H234220   2.897   4.268  15.807 -0.4184 -0.9787 -0.4414
 4269TIP3   OH234221   3.426   2.878   1.248 -0.3643  0.0057  0.0748
 4269TIP3    H134222   3.477   2.902   1.170  0.0860 -2.8840 -0.6210
 4269TIP3    H234223   3.470   2.924   1.320  0.0589  1.6308 -1.1653
 4270TIP3   OH234224   5.891   0.526   1.029 -0.1705  0.1358 -0.5509
 4270TIP3    H134225   5.852   0.472   0.960 -1.7982 -0.7697  0.9831
 4270TIP3    H234226   5.816   0.569   1.071  0.9517  2.3588 -0.6682
 4271TIP3   OH234227   5.588   2.876   0.446 -0.3826  0.2901  0.6605
 4271TIP3    H134228   5.637   2.813   0.499  0.2942  0.5874  0.3945
 4271TIP3    H234229   5.562   2.827   0.368  0.9524  0.5823  0.0160
 4272TIP3   OH234230   0.904   3.556   1.404  0.0635 -0.2493  0.6990
 4272TIP3    H134231   0.900   3.646   1.371 -0.3385 -0.8563 -1.0216
 4272TIP3    H234232   0.944   3.564   1.491  1.1802  1.4674  0.0820
 4273TIP3   OH234233   4.685   5.585  14.328  0.2235  0.2560 -0.4438
 4273TIP3    H134234   4.590   5.584  14.343  0.2853 -1.6927  0.1494
 4273TIP3    H234235   4.722   5.558  14.413  1.4480  2.7426 -0.1106
 4274TIP3   OH234236   2.208   3.858  15.940  0.1487  0.4702 -0.1997
 4274TIP3    H134237   2.263   3.934  15.920  0.5364  0.0785 -0.6347
 4274TIP3    H234238   2.123   3.879  15.902 -0.4356  1.6823  1.6425
 4275TIP3   OH234239   5.535   6.211  14.339 -0.1680  0.1025 -0.0409
 4275TIP3    H134240   5.469   6.280  14.331  0.6013  0.8232 -0.3910
 4275TIP3    H234241   5.567   6.199  14.249 -1.3449 -1.8052 -0.2647
 4276TIP3   OH234242   0.008   1.407   1.956 -0.2917  0.5223  0.4211
 4276TIP3    H134243   0.003   1.367   1.870  0.3776 -0.6744  0.9103
 4276TIP3    H234244   0.092   1.453   1.957  0.0478 -0.0959  0.6857
 4277TIP3   OH234245   3.696   2.398   5.760  0.4928 -0.4095 -0.1625
 4277TIP3    H134246   3.629   2.358   5.816  0.0473  0.0354 -0.3849
 4277TIP3    H234247   3.667   2.380   5.671  0.6281 -0.1465 -0.2591
 4278TIP3   OH234248   6.089   2.789   4.661 -0.4577  0.3671  0.8457
 4278TIP3    H134249   6.061   2.704   4.626 -0.2173  0.1141  1.2686
 4278TIP3    H234250   6.126   2.835   4.585 -1.5628  0.5235  0.3721
 4279TIP3   OH234251   2.871   5.968   5.778 -0.4161  0.7409 -0.0939
 4279TIP3    H134252   2.886   5.888   5.729 -0.1156 -0.3631  1.7327
 4279TIP3    H234253   2.876   6.038   5.712  1.1503 -0.5575 -1.4329
 4280TIP3   OH234254   2.140   5.198   1.965 -0.1755 -0.5972 -0.2956
 4280TIP3    H134255   2.049   5.170   1.954 -0.6153  0.6844 -0.0266
 4280TIP3    H234256   2.142   5.289   1.937  0.2829  0.4470  2.7419
 4281TIP3   OH234257   5.260   2.630  12.352  0.2799  0.2215  0.0143
 4281TIP3    H134258   5.212   2.646  12.270 -0.3628  1.3057  0.5868
 4281TIP3    H234259   5.351   2.651  12.330  0.0421  0.9735 -0.3065
 4282TIP3   OH234260   2.567   0.599  13.476  0.5466  0.0212 -0.7380
 4282TIP3    H134261   2.596   0.516  13.438 -0.6041 -0.6662 -0.1646
 4282TIP3    H234262   2.647   0.642  13.504  1.1298 -1.1014 -0.6449
 4283TIP3   OH234263   2.663   1.910  12.256 -0.6202  0.5060 -0.1475
 4283TIP3    H134264   2.705   1.830  12.228  0.7206  1.0514  0.2341
 4283TIP3    H234265   2.721   1.947  12.323 -1.5988  1.3914  0.2614
 4284TIP3   OH234266   5.231   6.170   0.142  0.0161  0.2440 -0.2670
 4284TIP3    H134267   5.209   6.085   0.103 -0.4327  0.8977 -1.4641
 4284TIP3    H234268   5.324   6.163   0.163 -0.0579 -0.6103 -0.1607
 4285TIP3   OH234269   5.846   3.159   4.854  0.3759  0.5352 -0.3164
 4285TIP3    H134270   5.894   3.157   4.937  0.3437 -2.8713 -0.2292
 4285TIP3    H234271   5.907   3.122   4.790 -0.8238 -0.2689 -1.0191
 4286TIP3   OH234272   2.503   3.805  16.333 -0.2329 -0.1075  0.0546
 4286TIP3    H134273   2.411   3.798  16.307 -0.1638 -3.0424  0.3097
 4286TIP3    H234274   2.517   3.731  16.392  3.1670 -2.0732 -2.8228
 4287TIP3   OH234275   5.786   4.179   4.741 -0.1412  0.1977 -0.0380
 4287TIP3    H134276   5.694   4.168   4.719 -0.5574 -1.5466  2.2028
 4287TIP3    H234277   5.833   4.146   4.664 -1.3888  0.4100 -0.9082
 4288TIP3   OH234278   6.449   0.328   5.128 -0.0321 -0.4621  0.6377
 4288TIP3    H134279   6.422   0.271   5.055  0.3001  0.2309 -0.0407
 4288TIP3    H234280   6.368   0.348   5.174 -0.5499  0.7106 -0.7317
 4289TIP3   OH234281   0.238   4.052  13.165 -0.0285 -0.2321 -0.1605
 4289TIP3    H134282   0.179   4.010  13.102 -0.4134 -1.0612  0.7486
 4289TIP3    H234283   0.304   3.986  13.184 -0.6701 -0.4636  1.3229
 4290TIP3   OH234284   3.170   3.002  13.953  0.0251 -0.8560  0.2496
 4290TIP3    H134285   3.205   3.066  13.891  1.9912 -1.3217  0.7871
 4290TIP3    H234286   3.100   2.958  13.906  1.3298 -1.0839 -1.6196
 4291TIP3   OH234287   1.849   3.425   4.510 -0.1439  0.1368 -0.4435
 4291TIP3    H134288   1.776   3.464   4.461 -0.4215  0.8170  0.4953
 4291TIP3    H234289   1.928   3.460   4.468 -0.3851  1.0639 -0.1477
 4292TIP3   OH234290   3.890   3.157   1.789 -0.1031  0.1684 -0.1457
 4292TIP3    H134291   3.927   3.111   1.713  0.9531 -1.4960  1.2825
 4292TIP3    H234292   3.933   3.243   1.788 -0.7706  0.5230 -1.8900
 4293TIP3   OH234293   5.018   1.664   4.032 -0.1765  0.2293 -0.0140
 4293TIP3    H134294   4.933   1.622   4.044  0.5256 -1.8136 -1.6094
 4293TIP3    H234295   5.082   1.597   4.055  0.9961  0.9508 -1.0285
 4294TIP3   OH234296   5.250   0.380  10.665  0.1012 -0.8575 -0.0688
 4294TIP3    H134297   5.284   0.434  10.594  0.5846 -1.8993 -0.6547
 4294TIP3    H234298   5.174   0.427  10.697  1.6087  1.1604  0.7414
 4295TIP3   OH234299   3.616   2.151  14.136  0.6026  0.5366  0.0177
 4295TIP3    H134300   3.697   2.134  14.089  0.6278  0.2209  0.1716
 4295TIP3    H234301   3.585   2.234  14.101  0.0114 -0.2483 -1.4057
 4296TIP3   OH234302   1.143   4.463  10.741 -0.3048 -0.3170 -0.3464
 4296TIP3    H134303   1.148   4.553  10.709  0.4869 -0.4451 -0.6064
 4296TIP3    H234304   1.086   4.418  10.678 -0.2378 -0.1334 -0.5395
 4297TIP3   OH234305   0.827   3.115   3.980 -0.7830  0.1152  0.2103
 4297TIP3    H134306   0.901   3.088   4.034  0.3516 -0.7624 -1.6579
 4297TIP3    H234307   0.768   3.040   3.980 -1.4098  0.5836  1.1926
 4298TIP3   OH234308   6.082   4.083   0.133 -0.2752  0.2069  0.1556
 4298TIP3    H134309   6.066   4.174   0.158  2.7647  0.6326  0.9324
 4298TIP3    H234310   6.119   4.088   0.045 -1.1324 -0.4288 -0.2669
 4299TIP3   OH234311   4.553   3.392  11.840  0.0785  0.5425 -0.1251
 4299TIP3    H134312   4.469   3.388  11.886 -1.0544  0.3066 -2.0805
 4299TIP3    H234313   4.535   3.446  11.763  1.0619 -1.3843 -1.7938
 4300TIP3   OH234314   3.727   1.154   6.075  0.1424  0.3937  0.4086
 4300TIP3    H134315   3.808   1.103   6.071  0.8112  1.0048  3.8007
 4300TIP3    H234316   3.660   1.090   6.100 -0.0038  0.3234 -0.1391
 4301TIP3   OH234317   0.575   0.146  12.061 -0.3852 -0.3046 -0.2187
 4301TIP3    H134318   0.597   0.096  12.140 -1.1558 -0.4297 -0.0732
 4301TIP3    H234319   0.653   0.198  12.043 -0.1907 -0.2933  0.6136
 4302TIP3   OH234320   0.008   2.419  13.439 -0.3083 -0.0831 -0.1038
 4302TIP3    H134321   0.036   2.504  13.406 -1.0834  0.3662  0.3439
 4302TIP3    H234322  -0.084   2.413  13.414 -1.0857  0.5033  2.3052
 4303TIP3   OH234323   4.002   1.455   6.189  0.7539  0.8351  0.5013
 4303TIP3    H134324   3.981   1.412   6.273 -0.2187  0.5419  0.1184
 4303TIP3    H234325   3.917   1.479   6.153  1.1726  0.9744 -0.4001
 4304TIP3   OH234326   1.426   5.278   6.579 -0.0889 -0.5292  0.2310
 4304TIP3    H134327   1.390   5.262   6.492  1.8304  0.2105 -0.7424
 4304TIP3    H234328   1.396   5.367   6.601  1.3246  0.2055 -0.7073
 4305TIP3   OH234329   2.348   0.375   2.959  0.0775 -0.4068  0.1510
 4305TIP3    H134330   2.341   0.291   3.004 -0.8108 -0.4352 -0.0218
 4305TIP3    H234331   2.258   0.397   2.934  0.6231 -0.8708 -2.4765
 4306TIP3   OH234332   6.213   5.472  16.900  0.2678  0.3110 -0.0181
 4306TIP3    H134333   6.274   5.460  16.828  0.2805  3.0003 -0.5553
 4306TIP3    H234334   6.253   5.425  16.973  0.5045 -2.0356 -1.5468
 4307TIP3   OH234335   1.228   0.150   5.217  0.6049  0.4354 -0.1547
 4307TIP3    H134336   1.301   0.166   5.276  0.1255 -1.0182  0.8855
 4307TIP3    H234337   1.171   0.090   5.265 -0.7182  0.6571 -1.3844
 4308TIP3   OH234338   2.195   6.563   0.661 -0.2574  0.4537 -0.0633
 4308TIP3    H134339   2.277   6.596   0.697  0.1860 -1.1295  0.4532
 4308TIP3    H234340   2.146   6.533   0.738 -0.4944 -0.3666 -0.5163
 4309TIP3   OH234341   2.929   5.889  16.811 -0.2234 -0.1997  0.0966
 4309TIP3    H134342   2.892   5.804  16.788  0.0540 -0.2485 -0.1772
 4309TIP3    H234343   2.974   5.874  16.894 -0.2856 -0.2892  0.1137
 4310TIP3   OH234344   5.374   3.830  15.495 -0.4910 -0.5590 -0.3295
 4310TIP3    H134345   5.420   3.781  15.427  1.6298  0.7514  0.0675
 4310TIP3    H234346   5.425   3.816  15.574 -1.4279  0.0631  0.4179
 4311TIP3   OH234347   4.680   4.008  12.800 -0.1205 -0.0612 -0.2008
 4311TIP3    H134348   4.696   3.993  12.893 -0.9497  0.8019  0.0966
 4311TIP3    H234349   4.634   3.930  12.770 -0.8474  0.1235  0.3933
 4312TIP3   OH234350   2.882   4.371   1.646  0.0369 -0.2482 -0.4324
 4312TIP3    H134351   2.971   4.353   1.616  0.3286  1.0723 -0.4165
 4312TIP3    H234352   2.891   4.388   1.739 -0.3835 -1.0058 -0.2431
 4313TIP3   OH234353   0.237   6.569   0.419 -0.2637  0.0983  0.5853
 4313TIP3    H134354   0.252   6.598   0.329 -3.6595 -2.1647 -0.9064
 4313TIP3    H234355   0.182   6.637   0.458 -0.1136  0.3128  0.4240
 4314TIP3   OH234356   4.186   3.308   3.555  0.3122 -0.3770  0.4060
 4314TIP3    H134357   4.263   3.365   3.551 -0.1894  0.2792 -0.3007
 4314TIP3    H234358   4.221   3.221   3.574  0.9645  0.3983  3.1321
 4315TIP3   OH234359   5.457   5.634  14.780  0.2287  0.4278 -0.0061
 4315TIP3    H134360   5.453   5.539  14.774 -1.0914  0.4904 -0.4629
 4315TIP3    H234361   5.378   5.659  14.828 -0.8804  1.4367 -2.2030
 4316TIP3   OH234362   6.780   3.932  16.785 -0.2807  0.2311  0.1692
 4316TIP3    H134363   6.820   3.887  16.710  0.3383  1.3796 -0.2192
 4316TIP3    H234364   6.699   3.969  16.750 -2.0935 -2.5105  1.0704
 4317TIP3   OH234365   4.609   5.055   3.641 -0.4148 -0.2325  0.0365
 4317TIP3    H134366   4.536   5.001   3.670 -0.3186 -0.3323  0.0954
 4317TIP3    H234367   4.687   5.001   3.659 -0.3603 -0.3372 -0.4959
 4318TIP3   OH234368   0.293   2.380  11.406 -0.0595 -0.4295  0.0441
 4318TIP3    H134369   0.305   2.417  11.318 -1.6387  0.1015  0.0262
 4318TIP3    H234370   0.286   2.285  11.391  0.2992 -0.3988 -0.3309
 4319TIP3   OH234371   3.042   4.942  15.704 -0.0001  0.0202  0.2952
 4319TIP3    H134372   3.035   4.935  15.609 -0.8273 -2.3604  0.4623
 4319TIP3    H234373   3.132   4.916  15.723  0.3317  1.0262  0.1494
 4320TIP3   OH234374   2.528   2.628  11.125 -0.3957  0.2276  0.1218
 4320TIP3    H134375   2.559   2.540  11.147  1.4206  0.9882  0.8153
 4320TIP3    H234376   2.591   2.660  11.062 -1.3109  0.8839 -0.4784
 4321TIP3   OH234377   6.449   6.614   6.078  0.4842 -0.0764 -0.1271
 4321TIP3    H134378   6.520   6.574   6.128  0.4887 -2.3030 -1.7513
 4321TIP3    H234379   6.492   6.672   6.017  1.3042 -3.0360 -2.6166
 4322TIP3   OH234380   2.806   0.279  10.465 -0.1588 -0.3282  0.3770
 4322TIP3    H134381   2.780   0.192  10.434  0.5491 -0.2493 -0.4507
 4322TIP3    H234382   2.901   0.274  10.472 -0.0689  0.5325 -0.1558
 4323TIP3   OH234383   4.946   0.114  15.137 -0.1029  0.2759  0.2450
 4323TIP3    H134384   5.025   0.071  15.170 -0.7377 -1.5826 -0.5314
 4323TIP3    H234385   4.935   0.190  15.194  2.9525  1.3692 -0.4482
 4324TIP3   OH234386   3.653   4.153  16.072 -0.1234 -0.0186  0.6228
 4324TIP3    H134387   3.610   4.072  16.098 -0.3052 -0.5041 -1.0673
 4324TIP3    H234388   3.723   4.164  16.136  1.2372 -2.6487 -0.2410
 4325TIP3   OH234389   2.858   5.969  11.580  0.1287  0.2524  0.0897
 4325TIP3    H134390   2.939   5.924  11.556  0.1530 -0.0189  0.6515
 4325TIP3    H234391   2.803   5.901  11.618 -0.4552  0.3933 -0.4967
 4326TIP3   OH234392   0.290   2.279   2.966  0.0033 -0.6065  0.1397
 4326TIP3    H134393   0.288   2.369   2.935 -1.0999  0.0220  1.8791
 4326TIP3    H234394   0.382   2.261   2.985  0.1566  0.3305  0.2996
 4327TIP3   OH234395   5.679   6.221   4.992 -0.5173 -0.3631 -0.1034
 4327TIP3    H134396   5.757   6.237   4.940 -0.7872 -1.6569 -0.9661
 4327TIP3    H234397   5.615   6.285   4.961  0.1731  0.7072  0.6141
 4328TIP3   OH234398   0.080   1.250  15.335  1.1566  0.0389 -0.2962
 4328TIP3    H134399   0.174   1.268  15.342  1.1668 -0.0937 -0.0942
 4328TIP3    H234400   0.067   1.169  15.384  0.6623  0.9607  1.1478
 4329TIP3   OH234401   2.865   5.394  15.436 -0.2578 -0.3347 -0.3586
 4329TIP3    H134402   2.815   5.423  15.512 -1.1019  1.6745 -1.5695
 4329TIP3    H234403   2.831   5.448  15.364  1.8255 -0.8125 -1.7836
 4330TIP3   OH234404   6.409   3.240   3.825  0.4312  0.6600  0.5234
 4330TIP3    H134405   6.395   3.296   3.748  1.4156 -0.4531 -0.5186
 4330TIP3    H234406   6.501   3.255   3.848  0.9530 -1.1057 -0.2919
 4331TIP3   OH234407   3.869   1.875   2.769 -0.1077  0.1050 -1.0167
 4331TIP3    H134408   3.929   1.931   2.720 -0.3438  0.9040 -0.4080
 4331TIP3    H234409   3.915   1.791   2.776  1.0483  0.7722 -0.3564
 4332TIP3   OH234410   1.492   0.711  11.210 -0.1780  0.3138  0.1274
 4332TIP3    H134411   1.554   0.675  11.273 -0.2166 -0.3227 -0.1841
 4332TIP3    H234412   1.542   0.777  11.162 -0.0153  0.4705  0.5124
 4333TIP3   OH234413   1.850   2.319   4.455 -0.2800 -0.4408  0.2231
 4333TIP3    H134414   1.813   2.252   4.513 -1.0772  0.0997  0.3681
 4333TIP3    H234415   1.872   2.392   4.514  0.8821 -0.6803  0.1124
 4334TIP3   OH234416   2.168   4.375  14.851 -0.5100 -0.3937 -0.1584
 4334TIP3    H134417   2.136   4.293  14.812 -0.0778 -1.2381  1.1788
 4334TIP3    H234418   2.091   4.433  14.850 -0.4287 -0.2469 -2.4938
 4335TIP3   OH234419   2.933   6.427   4.673 -0.2392  0.2759  0.0625
 4335TIP3    H134420   3.008   6.421   4.733  1.3150  2.7577 -1.4186
 4335TIP3    H234421   2.870   6.482   4.719  0.7457  1.7706 -0.2809
 4336TIP3   OH234422   5.100   2.091   6.731  0.7120  0.2505  0.2872
 4336TIP3    H134423   5.039   2.157   6.698 -0.7173 -0.4826  1.3619
 4336TIP3    H234424   5.131   2.126   6.814  2.0772  0.7784 -0.4135
 4337TIP3   OH234425   4.565   2.925  12.873  0.2092 -0.4621  0.2171
 4337TIP3    H134426   4.612   2.973  12.805 -0.3968 -1.2780 -0.7851
 4337TIP3    H234427   4.606   2.954  12.955  0.3664  1.1911 -0.4072
 4338TIP3   OH234428   3.626   5.013  14.525 -0.1667 -0.2587  0.3906
 4338TIP3    H134429   3.655   5.085  14.469  0.2416  0.6771  1.7617
 4338TIP3    H234430   3.661   4.934  14.482  0.3278  0.4451 -0.5364
 4339TIP3   OH234431   4.565   1.069   3.313 -0.1684 -0.2573 -0.3504
 4339TIP3    H134432   4.503   1.131   3.276 -1.2542 -0.6473  0.7607
 4339TIP3    H234433   4.545   0.986   3.270 -0.9688 -0.5592  0.5861
 4340TIP3   OH234434   1.601   4.370  10.990 -0.1048 -0.0344 -0.5217
 4340TIP3    H134435   1.610   4.281  11.024 -0.1986  0.1438 -0.0100
 4340TIP3    H234436   1.507   4.385  10.985 -0.1590  0.8409  1.6601
 4341TIP3   OH234437   3.966   0.956   0.178 -0.6739 -0.4651  0.1670
 4341TIP3    H134438   3.959   0.998   0.264  1.4906  0.7561 -0.1781
 4341TIP3    H234439   3.904   1.003   0.123 -1.1424 -0.3954  0.7419
 4342TIP3   OH234440   3.092   4.799   1.130 -0.8296  0.6300  0.1303
 4342TIP3    H134441   3.153   4.870   1.150 -0.6913  0.9095 -1.1922
 4342TIP3    H234442   3.069   4.813   1.038 -0.5041 -1.2571 -0.2753
 4343TIP3   OH234443   4.601   2.248  14.281 -0.7519  0.7631  0.4123
 4343TIP3    H134444   4.598   2.238  14.376  0.6914 -0.7453  0.3305
 4343TIP3    H234445   4.619   2.160  14.248  2.1035  1.7800 -1.0450
 4344TIP3   OH234446   2.839   2.653  11.569  0.3756 -0.2252  0.2385
 4344TIP3    H134447   2.867   2.571  11.527 -0.6956  0.9616 -3.1397
 4344TIP3    H234448   2.743   2.648  11.569  0.2606  1.3849 -0.9291
 4345TIP3   OH234449   4.486   4.599   5.212 -1.0154 -0.3046  0.2532
 4345TIP3    H134450   4.429   4.660   5.258 -1.1473  2.5088 -3.2100
 4345TIP3    H234451   4.574   4.635   5.224 -1.0681  0.5783 -1.6416
 4346TIP3   OH234452   0.799   5.215  16.037 -0.4845 -0.7139 -0.0024
 4346TIP3    H134453   0.790   5.247  15.947 -0.1095 -0.5171  0.0261
 4346TIP3    H234454   0.871   5.152  16.033 -1.9862 -2.4923 -0.2935
 4347TIP3   OH234455   1.635   5.915   5.207 -0.2938 -0.0545 -0.1178
 4347TIP3    H134456   1.659   5.918   5.300  0.5618 -0.5615 -0.3110
 4347TIP3    H234457   1.581   5.993   5.193  0.7507  0.7920  0.4874
 4348TIP3   OH234458   1.505   1.412  16.238 -0.7913  0.0584  0.2917
 4348TIP3    H134459   1.592   1.400  16.277  0.7595 -2.3730 -3.3364
 4348TIP3    H234460   1.457   1.333  16.263 -0.8543 -0.0714 -0.2388
 4349TIP3   OH234461   4.730   6.418   1.682  0.3665 -1.0161  0.5790
 4349TIP3    H134462   4.648   6.401   1.729  0.0717  0.6696  0.7087
 4349TIP3    H234463   4.788   6.455   1.748 -0.5833  3.0026 -0.5619
 4350TIP3   OH234464   6.007   2.539   4.513 -0.0284  0.0174 -0.1124
 4350TIP3    H134465   5.971   2.519   4.426  1.6968 -1.4552 -0.5606
 4350TIP3    H234466   6.069   2.468   4.529  0.1081  0.5781  2.1014
 4351TIP3   OH234467   6.206   0.389   5.338 -0.3055 -0.3386 -0.0273
 4351TIP3    H134468   6.192   0.479   5.307 -2.4321 -0.2840  0.9669
 4351TIP3    H234469   6.122   0.363   5.375  0.8013 -2.0968  1.3797
 4352TIP3   OH234470   4.249   1.129  13.938  0.3122  0.3611  0.4913
 4352TIP3    H134471   4.227   1.055  13.881 -0.8963  1.1561 -0.1291
 4352TIP3    H234472   4.247   1.092  14.027 -0.0881 -0.3863  0.1842
 4353TIP3   OH234473   0.712   0.333   5.079  0.1731  0.0681 -0.2406
 4353TIP3    H134474   0.712   0.387   5.158  0.7525 -0.2536 -0.0148
 4353TIP3    H234475   0.793   0.282   5.085  0.4286  0.3359 -1.2459
 4354TIP3   OH234476   6.491   2.036  13.145  0.2884 -0.4907 -0.1857
 4354TIP3    H134477   6.568   2.001  13.190 -1.3752 -1.6337  1.9007
 4354TIP3    H234478   6.469   1.969  13.080  0.4982 -0.5663 -0.1804
 4355TIP3   OH234479   0.639   6.764  15.421  0.1237 -0.0546 -0.1635
 4355TIP3    H134480   0.646   6.712  15.501  2.0707  0.9965  0.4248
 4355TIP3    H234481   0.697   6.721  15.359  0.0407  0.1648 -0.3984
 4356TIP3   OH234482   0.611   3.439   2.103 -0.4731 -0.2309  0.2381
 4356TIP3    H134483   0.669   3.375   2.146  0.3063  1.0402  1.1380
 4356TIP3    H234484   0.644   3.445   2.014 -0.5624 -1.0867  0.1383
 4357TIP3   OH234485   2.576   0.805  13.183  0.1487  0.7512 -0.4660
 4357TIP3    H134486   2.505   0.826  13.122 -1.4596 -0.7756  0.7730
 4357TIP3    H234487   2.550   0.847  13.265  0.2917 -0.3852  0.1804
 4358TIP3   OH234488   6.740   1.406   1.151 -0.0197  0.5382 -0.5732
 4358TIP3    H134489   6.785   1.473   1.202 -0.2038  0.6158 -0.5116
 4358TIP3    H234490   6.785   1.405   1.067 -0.1408  0.8757 -0.6445
 4359TIP3   OH234491   5.220   0.777   5.802  0.2675  0.4757 -0.3801
 4359TIP3    H134492   5.264   0.827   5.872 -1.3296  3.4617 -1.3443
 4359TIP3    H234493   5.127   0.797   5.813 -0.2063 -0.5055 -2.2583
 4360TIP3   OH234494   6.133   5.969   1.905 -0.1366  0.1394 -0.3814
 4360TIP3    H134495   6.043   5.995   1.923 -0.3391 -0.7812 -0.0382
 4360TIP3    H234496   6.183   6.001   1.980 -0.2089  0.4496 -0.4639
 4361TIP3   OH234497   5.938   0.787  10.479 -0.4244  0.2650 -0.3955
 4361TIP3    H134498   6.015   0.797  10.535  0.7412  2.3428 -2.2075
 4361TIP3    H234499   5.913   0.695  10.489  2.2904 -0.5005  0.2893
 4362TIP3   OH234500   4.603   6.470   3.577 -0.5098  0.1222 -1.0722
 4362TIP3    H134501   4.602   6.424   3.661 -3.7409  1.4033 -0.2193
 4362TIP3    H234502   4.636   6.557   3.598  0.4655 -0.1274 -1.5452
 4363TIP3   OH234503   0.070   0.462  14.506  0.1076 -0.4094  0.2230
 4363TIP3    H134504   0.156   0.459  14.550 -0.0513 -0.6481  0.5202
 4363TIP3    H234505   0.007   0.450  14.577 -0.1248 -1.9248 -0.2103
 4364TIP3   OH234506   1.030   5.579  16.164 -0.0729 -0.1968 -0.3375
 4364TIP3    H134507   1.092   5.644  16.198 -0.0298 -0.1798 -0.4503
 4364TIP3    H234508   1.065   5.555  16.078  0.3989 -1.0235  0.0690
 4365TIP3   OH234509   2.460   4.859   1.223  0.5531 -0.0615 -0.2434
 4365TIP3    H134510   2.520   4.913   1.173  0.3323  3.4237  2.8580
 4365TIP3    H234511   2.512   4.827   1.297 -0.0197 -1.9660 -0.6059
 4366TIP3   OH234512   4.186   3.497   5.035  0.1769 -0.2285 -0.3942
 4366TIP3    H134513   4.217   3.440   4.965 -0.5350  1.9695 -2.6709
 4366TIP3    H234514   4.247   3.571   5.035 -0.1376  0.0704  1.0121
 4367TIP3   OH234515   4.869   4.622  16.766  0.2978  0.1622  0.2225
 4367TIP3    H134516   4.887   4.601  16.674 -1.5480  0.6305 -0.2743
 4367TIP3    H234517   4.818   4.548  16.798  1.1169 -0.1019  0.9611
 4368TIP3   OH234518   3.852   6.374  15.791  0.2765  0.3715 -0.4314
 4368TIP3    H134519   3.855   6.413  15.878  0.5543  0.5251 -0.5095
 4368TIP3    H234520   3.911   6.428  15.738  0.9033 -0.3237 -0.4635
 4369TIP3   OH234521   0.667   4.432  11.586  0.1107  0.0359 -0.2085
 4369TIP3    H134522   0.658   4.467  11.674 -0.1110  1.0830 -0.6243
 4369TIP3    H234523   0.620   4.349  11.587 -1.0027  0.6453  0.3347
 4370TIP3   OH234524   3.407   5.350  16.062 -0.2120 -0.5277  0.1187
 4370TIP3    H134525   3.467   5.399  16.005  0.5589 -0.8502  0.6399
 4370TIP3    H234526   3.406   5.399  16.144  2.6773 -2.6908  1.6398
 4371TIP3   OH234527   1.031   2.441  11.717  0.2420 -0.8105 -0.1311
 4371TIP3    H134528   1.103   2.493  11.751 -1.0166  0.4475  0.6998
 4371TIP3    H234529   1.044   2.441  11.622  1.1135 -0.2841 -0.0241
 4372TIP3   OH234530   2.598   4.999   1.021  0.1690  0.0861 -0.0336
 4372TIP3    H134531   2.551   5.001   0.938  0.6807  0.5072 -0.3192
 4372TIP3    H234532   2.671   4.939   1.006  0.0131 -0.1835  0.2571
 4373TIP3   OH234533   3.596   4.114  16.725  0.0023  0.3496  0.0424
 4373TIP3    H134534   3.516   4.067  16.703 -0.9612  2.0972 -0.3560
 4373TIP3    H234535   3.652   4.103  16.648  0.4606 -1.4349  0.5843
 4374TIP3   OH234536   5.810   1.478   2.493  0.1038  0.5304 -0.5967
 4374TIP3    H134537   5.744   1.473   2.562 -0.0095  0.6284 -0.6964
 4374TIP3    H234538   5.887   1.435   2.530  0.4880  1.7697  0.1157
 4375TIP3   OH234539   4.245   3.611   4.149  0.3262 -0.0011 -0.4636
 4375TIP3    H134540   4.211   3.549   4.214  2.1147 -0.7398 -0.1856
 4375TIP3    H234541   4.226   3.570   4.064  1.9632 -1.2392 -0.2738
 4376TIP3   OH234542   1.581   0.948  15.893 -0.1936  0.0014  0.2178
 4376TIP3    H134543   1.533   0.915  15.969 -0.9996  0.7071  0.0304
 4376TIP3    H234544   1.671   0.959  15.924 -0.3900 -0.2846  0.9000
 4377TIP3   OH234545   6.517   1.846   0.331  0.6005 -0.3863 -0.8945
 4377TIP3    H134546   6.495   1.760   0.295 -1.8410  0.2815 -1.1745
 4377TIP3    H234547   6.457   1.907   0.287 -1.4590  0.7195  3.0032
 4378TIP3   OH234548   6.078   2.216  16.414  0.1648 -0.0876  0.4744
 4378TIP3    H134549   6.024   2.226  16.492 -4.4049 -1.3613 -2.1172
 4378TIP3    H234550   6.067   2.298  16.366  1.4658  0.0325  0.3596
 4379TIP3   OH234551   5.352   3.602  15.920 -0.3815 -0.3524  0.4349
 4379TIP3    H134552   5.323   3.621  16.009 -2.4764 -0.6369 -0.1382
 4379TIP3    H234553   5.299   3.526  15.893  0.0674 -0.1470 -1.1063
 4380TIP3   OH234554   5.839   4.484   4.827 -0.1178 -0.1690 -0.3732
 4380TIP3    H134555   5.785   4.414   4.792  0.2214 -0.1145 -1.0132
 4380TIP3    H234556   5.827   4.557   4.766 -1.6733  0.8906  1.0721
 4381TIP3   OH234557   1.748   4.540  14.239 -0.5565  1.0980  0.3321
 4381TIP3    H134558   1.666   4.582  14.211  1.1026  3.5240 -1.2777
 4381TIP3    H234559   1.806   4.613  14.260  2.2365 -0.3540 -1.6980
 4382TIP3   OH234560   6.769   4.455  12.044  0.2510 -0.7944 -0.4723
 4382TIP3    H134561   6.685   4.461  12.090  0.7098 -2.3376  0.6399
 4382TIP3    H234562   6.746   4.461  11.951 -1.0269 -0.6942 -0.1673
 4383TIP3   OH234563   3.541   1.128  16.661  0.3122 -0.0098  0.4789
 4383TIP3    H134564   3.608   1.177  16.709  0.0580 -0.5010  1.3590
 4383TIP3    H234565   3.511   1.062  16.724  0.2040 -0.8820 -0.4744
 4384TIP3   OH234566   4.892   1.843  15.128 -0.3952  0.2809  0.0976
 4384TIP3    H134567   4.816   1.826  15.183 -2.1488 -0.6130 -2.4145
 4384TIP3    H234568   4.962   1.789  15.165 -1.1769  0.4684  1.9545
 4385TIP3   OH234569   6.568   4.147   1.572  0.7137 -0.6786 -0.0226
 4385TIP3    H134570   6.659   4.174   1.566  0.4892  0.8668  2.0877
 4385TIP3    H234571   6.520   4.210   1.518  0.8157 -0.8702 -0.3325
 4386TIP3   OH234572   1.043   4.989   1.521  0.0978  0.1405  0.1800
 4386TIP3    H134573   1.116   5.051   1.524  0.7218 -0.4504 -1.4196
 4386TIP3    H234574   1.028   4.966   1.612  2.4320 -0.2621  0.5418
 4387TIP3   OH234575   5.507   3.050  15.067  0.0492 -0.1484 -0.5178
 4387TIP3    H134576   5.489   2.961  15.036  1.2044 -0.1916 -1.1130
 4387TIP3    H234577   5.562   3.089  15.000  0.6060  0.5956  0.3363
 4388TIP3   OH234578   2.780   3.477   1.635 -0.1827  0.1215 -0.0281
 4388TIP3    H134579   2.739   3.454   1.552 -1.3420 -0.1295  0.5957
 4388TIP3    H234580   2.747   3.565   1.655  0.3022  0.2908  0.0412
 4389TIP3   OH234581   2.423   0.142  13.629 -0.2111  0.2635 -0.4831
 4389TIP3    H134582   2.506   0.184  13.650  0.4658 -0.9357 -0.6424
 4389TIP3    H234583   2.402   0.091  13.707 -0.9550  0.7829 -0.3341
 4390TIP3   OH234584   3.182   0.136  16.641 -0.0215  0.0933  0.5886
 4390TIP3    H134585   3.237   0.057  16.646 -2.1196 -1.6244 -1.2580
 4390TIP3    H234586   3.228   0.192  16.578  0.5431 -0.5197  0.4321
 4391TIP3   OH234587   4.851   1.918  17.086  0.2151 -0.1536 -0.2190
 4391TIP3    H134588   4.934   1.875  17.064  0.0379 -0.9367  0.5949
 4391TIP3    H234589   4.795   1.848  17.119 -1.3004  0.0765 -2.0815
 4392TIP3   OH234590   4.936   3.005  13.799  0.0049 -0.2447 -0.3975
 4392TIP3    H134591   4.868   2.942  13.775  0.0013  0.0660 -1.2184
 4392TIP3    H234592   5.017   2.967  13.765  0.0378  0.0751 -0.6773
 4393TIP3   OH234593   4.997   2.663  17.037  0.0586 -0.2853  0.2928
 4393TIP3    H134594   4.959   2.602  16.974 -0.4960  0.9284 -0.5714
 4393TIP3    H234595   4.946   2.649  17.117 -0.3245 -0.6718 -0.0142
 4394TIP3   OH234596   0.418   5.448  13.128  0.3577  0.4173 -0.1324
 4394TIP3    H134597   0.470   5.388  13.181 -0.6507 -0.9312 -0.6203
 4394TIP3    H234598   0.474   5.467  13.052  1.0254  0.8157  0.4421
 4395TIP3   OH234599   0.910   4.433  11.973 -0.6941  0.6187 -0.1634
 4395TIP3    H134600   0.899   4.515  11.925  1.6824 -0.7123 -3.3492
 4395TIP3    H234601   1.005   4.425  11.984 -0.8350 -1.8645 -0.2725
 4396TIP3   OH234602   1.556   4.391   4.793  0.3286 -0.1865  0.4470
 4396TIP3    H134603   1.479   4.426   4.837  0.3439  1.1490 -0.5283
 4396TIP3    H234604   1.549   4.296   4.803 -0.8497 -0.0164  1.3255
 4397TIP3   OH234605   4.213   0.647  11.719 -0.3639  0.2770  0.4515
 4397TIP3    H134606   4.210   0.743  11.721  0.3957  0.2877  1.9834
 4397TIP3    H234607   4.162   0.620  11.795 -1.0375 -0.5685 -0.2799
 4398TIP3   OH234608   3.600   1.715   2.780  0.0419  0.1792 -0.2303
 4398TIP3    H134609   3.656   1.641   2.760  2.3145  1.6796  0.1852
 4398TIP3    H234610   3.542   1.684   2.849  0.6443 -1.3230 -0.3762
 4399TIP3   OH234611   6.580   4.673  14.734  0.3978  0.3014 -0.2712
 4399TIP3    H134612   6.543   4.741  14.678  0.5926  1.0734  0.5301
 4399TIP3    H234613   6.574   4.708  14.823  0.5041 -0.7251  0.1543
 4400TIP3   OH234614   5.646   6.415   0.440  0.3674 -0.1027 -0.2007
 4400TIP3    H134615   5.655   6.426   0.346  2.5847  2.6676  0.2107
 4400TIP3    H234616   5.734   6.397   0.472 -0.7270 -4.0617  1.1888
 4401TIP3   OH234617   2.376   5.528  16.145  0.2914 -0.9702  0.6770
 4401TIP3    H134618   2.445   5.465  16.168  1.2102  0.6143  2.5337
 4401TIP3    H234619   2.311   5.518  16.215  0.5238  0.2155  1.0811
 4402TIP3   OH234620   1.956   4.837  12.845 -0.0032  0.2484  0.1621
 4402TIP3    H134621   1.877   4.889  12.860 -0.0198  0.0261  0.9394
 4402TIP3    H234622   2.004   4.884  12.777 -0.0326  1.2687  0.8223
 4403TIP3   OH234623   5.435   1.747   2.678  0.4821 -0.2353 -0.3347
 4403TIP3    H134624   5.404   1.660   2.700 -0.1391 -0.1438 -0.8349
 4403TIP3    H234625   5.443   1.747   2.582 -0.0963  0.4380 -0.3957
 4404TIP3   OH234626   3.290   2.262   3.044  0.2259 -0.0518  0.1854
 4404TIP3    H134627   3.335   2.181   3.021 -1.5011 -0.9432 -0.2404
 4404TIP3    H234628   3.292   2.265   3.140 -0.1556 -0.8852  0.2239
 4405TIP3   OH234629   4.614   3.773  11.508 -0.3270 -0.1780  0.6724
 4405TIP3    H134630   4.580   3.824  11.434 -0.1294 -1.7472 -0.5524
 4405TIP3    H234631   4.536   3.736  11.548 -0.3045 -3.0622 -1.6089
 4406TIP3   OH234632   3.036   1.781   3.886  0.0224  0.2585  0.1242
 4406TIP3    H134633   3.029   1.687   3.868  0.6174  0.1090  0.6213
 4406TIP3    H234634   2.989   1.793   3.969  3.5429 -0.4172  2.4476
 4407TIP3   OH234635   0.284   3.799  15.644 -0.0943 -0.2015  0.2613
 4407TIP3    H134636   0.279   3.863  15.714 -0.9577 -0.7336  0.7098
 4407TIP3    H234637   0.377   3.782  15.632  0.0291 -1.0832  2.1980
 4408TIP3   OH234638   5.482   6.381  15.962 -0.1347  0.1101  0.1958
 4408TIP3    H134639   5.559   6.337  15.998 -1.6061 -1.1033  2.0626
 4408TIP3    H234640   5.423   6.310  15.937 -1.5964  0.9789  1.0172
 4409TIP3   OH234641   2.580   2.536  12.131  0.0778  0.5489  0.5062
 4409TIP3    H134642   2.630   2.469  12.178 -0.3070 -1.4434 -1.7548
 4409TIP3    H234643   2.514   2.487  12.082  1.1917  2.2617 -3.0678
 4410TIP3   OH234644   2.715   4.699   2.230 -0.3195  0.8585 -0.0897
 4410TIP3    H134645   2.681   4.677   2.143  0.7806 -0.7476 -0.1608
 4410TIP3    H234646   2.797   4.746   2.212 -0.3812  1.0257  0.0739
 4411TIP3   OH234647   1.612   0.716  10.644 -0.1790 -0.2240 -0.1008
 4411TIP3    H134648   1.612   0.671  10.728 -2.5584 -0.9848 -0.4191
 4411TIP3    H234649   1.684   0.675  10.595  0.5954 -0.4651  1.1990
 4412TIP3   OH234650   0.630   4.476  13.314  0.1036 -0.5039  0.1398
 4412TIP3    H134651   0.670   4.417  13.250 -0.6208 -0.9300  0.0631
 4412TIP3    H234652   0.556   4.515  13.268 -0.2063 -0.5364  0.6004
 4413TIP3   OH234653   6.714   6.391   1.611  0.4142 -0.5269  0.4243
 4413TIP3    H134654   6.759   6.438   1.542 -0.8040  1.3619  0.8243
 4413TIP3    H234655   6.646   6.341   1.566 -0.3356  0.6445  0.1969
 4414TIP3   OH234656   3.442   6.176   3.142 -0.0359  0.2962 -0.0184
 4414TIP3    H134657   3.447   6.139   3.053 -1.2857 -0.6737  0.2981
 4414TIP3    H234658   3.512   6.132   3.190  0.7375  0.9249 -0.5325
 4415TIP3   OH234659   5.494   6.641  12.974 -0.2547  0.3311 -0.0374
 4415TIP3    H134660   5.584   6.627  12.946  0.2261  0.8439  1.1911
 4415TIP3    H234661   5.446   6.659  12.892  0.7025 -0.1582 -0.7219
 4416TIP3   OH234662   2.877   1.867  11.662  0.6185  0.3235  0.1617
 4416TIP3    H134663   2.812   1.918  11.614 -1.7561 -0.4749  2.2750
 4416TIP3    H234664   2.931   1.932  11.707  0.1223  1.0045 -0.2121
 4417TIP3   OH234665   0.489   5.998  17.148 -0.1564  0.4138  0.2818
 4417TIP3    H134666   0.567   6.038  17.108 -0.6629  0.5421 -0.5970
 4417TIP3    H234667   0.524   5.942  17.217  0.6242  1.6682  0.9382
 4418TIP3   OH234668   2.436   4.226  16.434 -0.6033 -0.3922  0.7461
 4418TIP3    H134669   2.497   4.275  16.379 -0.0731  0.5406  2.1060
 4418TIP3    H234670   2.353   4.272  16.426 -0.3739  0.1041  1.1850
 4419TIP3   OH234671   6.594   0.835  11.722  0.3160 -0.5119  0.1184
 4419TIP3    H134672   6.530   0.767  11.701  0.8103 -0.8312 -0.3823
 4419TIP3    H234673   6.672   0.811  11.672  0.0675  1.1744 -1.1602
 4420TIP3   OH234674   3.672   4.635  12.863  0.0168 -0.3810 -0.4499
 4420TIP3    H134675   3.709   4.585  12.935  0.0222  0.2606  0.0026
 4420TIP3    H234676   3.658   4.571  12.793  0.3841 -0.9329 -0.0201
 4421TIP3   OH234677   3.400   4.626  17.109 -0.0459 -0.2177 -0.2202
 4421TIP3    H134678   3.346   4.575  17.047 -1.4704 -1.3338  1.8269
 4421TIP3    H234679   3.490   4.602  17.088 -0.6361 -3.0097  0.1127
 4422TIP3   OH234680   1.329   2.267  10.774  0.4746  0.3094 -0.3054
 4422TIP3    H134681   1.421   2.286  10.789  0.9029 -0.9067 -1.2551
 4422TIP3    H234682   1.316   2.279  10.680 -0.2006 -0.0430 -0.2697
 4423TIP3   OH234683   4.491   3.468   5.156 -0.0374 -0.4135 -0.8190
 4423TIP3    H134684   4.466   3.388   5.110  0.0732 -0.2007 -1.2549
 4423TIP3    H234685   4.551   3.438   5.225 -0.0755 -0.7170 -0.9165
 4424TIP3   OH234686   0.983   0.257  11.910  0.2069 -0.4475 -0.3239
 4424TIP3    H134687   1.051   0.265  11.843 -0.0521 -0.0862 -0.5495
 4424TIP3    H234688   0.901   0.274  11.862 -0.0813 -1.2601 -0.1421
 4425TIP3   OH234689   5.354   0.314   0.015 -0.4699  0.5506  0.4193
 4425TIP3    H134690   5.260   0.303   0.002 -0.4342 -0.5893  1.0143
 4425TIP3    H234691   5.385   0.356  -0.066 -1.7674  2.7698  0.9850
 4426TIP3   OH234692   3.673   5.705   4.446  0.5466 -0.1546 -0.2008
 4426TIP3    H134693   3.747   5.754   4.482  0.3009  0.2942 -0.2934
 4426TIP3    H234694   3.707   5.617   4.433  1.8014  0.5673 -2.4061
 4427TIP3   OH234695   3.537   1.062   3.006 -0.2894 -0.6367 -0.1059
 4427TIP3    H134696   3.568   1.101   2.925 -0.3209  0.1551  0.2524
 4427TIP3    H234697   3.519   0.971   2.984 -1.4390 -0.1494 -1.2929
 4428TIP3   OH234698   4.239   0.888  12.619 -0.0039 -0.2063  0.6753
 4428TIP3    H134699   4.294   0.810  12.605  0.4663  0.1919  0.2625
 4428TIP3    H234700   4.290   0.960  12.582 -0.6932  0.2146  0.5283
 4429TIP3   OH234701   1.315   2.376  13.548  0.2732 -0.2357 -0.2511
 4429TIP3    H134702   1.240   2.333  13.508  0.6009 -0.0871 -1.0287
 4429TIP3    H234703   1.345   2.314  13.614  1.2896 -1.6216 -1.9502
 4430TIP3   OH234704   4.898   2.607   4.759 -0.2219  0.1121  0.0456
 4430TIP3    H134705   4.971   2.622   4.819  0.4279  1.0563 -0.9512
 4430TIP3    H234706   4.925   2.529   4.709  1.0388  1.5386 -1.6276
 4431TIP3   OH234707   1.563   4.484  15.994  0.1468 -0.1176  0.5494
 4431TIP3    H134708   1.555   4.515  16.084 -0.4067 -2.8420  1.5406
 4431TIP3    H234709   1.473   4.470  15.965  0.3660 -2.2258  0.7552
 4432TIP3   OH234710   6.520   4.364   1.428 -0.1467 -0.6399  0.0366
 4432TIP3    H134711   6.597   4.396   1.474 -0.3276 -0.5028  0.2472
 4432TIP3    H234712   6.453   4.431   1.444  0.1870  0.1395 -1.6120
 4433TIP3   OH234713   0.216   1.317  11.921  0.5075 -0.0063  0.4422
 4433TIP3    H134714   0.233   1.385  11.985 -1.0534  0.0583  0.8078
 4433TIP3    H234715   0.192   1.240  11.973 -0.2678 -0.0992 -0.0462
 4434TIP3   OH234716   4.628   2.784  13.988 -0.1344 -0.6212 -0.3126
 4434TIP3    H134717   4.558   2.773  14.052  1.1450 -1.9572  0.9205
 4434TIP3    H234718   4.683   2.853  14.025 -0.5592  0.1624 -1.0980
 4435TIP3   OH234719   2.684   3.009  16.555  0.6914 -0.1710  0.1722
 4435TIP3    H134720   2.619   3.050  16.498  0.4344  1.3951  1.5264
 4435TIP3    H234721   2.756   3.072  16.558  1.9342 -1.4952 -0.6113
 4436TIP3   OH234722   3.513   3.931  16.136  0.2587  0.0402 -0.2206
 4436TIP3    H134723   3.528   3.900  16.226 -0.6690  1.2785  0.3944
 4436TIP3    H234724   3.420   3.918  16.121  0.1658  1.0069 -0.5318
 4437TIP3   OH234725   4.976   4.700   1.918  0.2981 -0.0767 -0.5538
 4437TIP3    H134726   5.049   4.732   1.865 -0.8671  1.2510 -1.4330
 4437TIP3    H234727   4.982   4.605   1.913  0.7495  0.0229 -2.3301
 4438TIP3   OH234728   5.502   5.986  11.529 -0.0999 -0.3731 -0.4513
 4438TIP3    H134729   5.469   6.055  11.586  0.9698 -0.0231 -0.2471
 4438TIP3    H234730   5.567   6.028  11.474  0.8447 -1.2833 -0.0640
 4439TIP3   OH234731   5.116   5.082  13.400 -0.6777  0.6365  0.2835
 4439TIP3    H134732   5.112   5.123  13.487  0.7856 -1.7264  1.5823
 4439TIP3    H234733   5.032   5.037  13.391 -0.5706  0.3192  0.8142
 4440TIP3   OH234734   5.182   6.501  16.501  0.1036  0.0996 -0.3225
 4440TIP3    H134735   5.111   6.533  16.445 -2.3171  2.3577  3.6044
 4440TIP3    H234736   5.153   6.416  16.532 -1.3824  1.3169  1.8194
 4441TIP3   OH234737   3.650   4.978   3.522 -0.2480 -0.2637 -0.5827
 4441TIP3    H134738   3.597   4.995   3.445  0.0261  0.6896 -0.5786
 4441TIP3    H234739   3.740   4.982   3.491 -0.1456 -0.3829 -0.3079
 4442TIP3   OH234740   3.954   1.336  15.128  0.1127 -0.4779  0.0912
 4442TIP3    H134741   3.967   1.422  15.167  1.2000 -0.2931 -0.6313
 4442TIP3    H234742   3.933   1.279  15.202  0.1790  0.2442  0.6756
 4443TIP3   OH234743   1.735   1.640   0.971 -0.3526  0.4808  0.0486
 4443TIP3    H134744   1.772   1.641   0.882 -0.8326 -0.5496 -0.1763
 4443TIP3    H234745   1.801   1.684   1.024  0.6317 -0.1904 -0.5665
 4444TIP3   OH234746   5.530   4.560   1.405  0.6095 -0.2814  0.8234
 4444TIP3    H134747   5.468   4.548   1.477  0.7698 -1.7451  0.7499
 4444TIP3    H234748   5.517   4.483   1.349  1.5423  0.0744  0.0889
 4445TIP3   OH234749   5.116   0.704  17.085 -0.6309 -0.5584 -0.5860
 4445TIP3    H134750   5.171   0.744  17.152 -0.0305 -0.6633 -1.0049
 4445TIP3    H234751   5.161   0.622  17.063 -0.1030  0.0833 -2.0395
 4446TIP3   OH234752   5.878   6.747   4.288  0.0001 -0.0905  0.1972
 4446TIP3    H134753   5.951   6.804   4.266  0.5443 -1.2421 -1.1408
 4446TIP3    H234754   5.807   6.775   4.230  0.2270 -0.6484 -0.3688
 4447TIP3   OH234755   4.292   5.180   2.245 -0.1702 -0.1006 -0.4070
 4447TIP3    H134756   4.331   5.266   2.263  1.1241 -0.5961 -0.7193
 4447TIP3    H234757   4.274   5.143   2.331 -1.7065  0.8808 -0.2707
 4448TIP3   OH234758   5.722   2.845   5.185  0.0078  0.0706 -0.5958
 4448TIP3    H134759   5.792   2.795   5.142  0.9326  0.6331  0.2119
 4448TIP3    H234760   5.762   2.876   5.267 -1.2648  0.2199 -0.0130
 4449TIP3   OH234761   4.859   3.863  13.354 -0.1596 -0.2733 -0.2324
 4449TIP3    H134762   4.800   3.817  13.413  0.5827 -0.7338  0.1725
 4449TIP3    H234763   4.825   3.953  13.351  0.0292 -0.1145  1.2727
 4450TIP3   OH234764   6.618   3.681  15.745 -0.3485 -0.8344 -0.1045
 4450TIP3    H134765   6.660   3.726  15.672 -1.1957 -0.5347 -0.4223
 4450TIP3    H234766   6.686   3.674  15.811 -0.1469  0.8327 -0.0829
 4451TIP3   OH234767   3.565   3.767  11.766 -0.0324 -0.4524  0.8289
 4451TIP3    H134768   3.490   3.708  11.771 -0.9305  0.1916 -2.7994
 4451TIP3    H234769   3.529   3.852  11.743  1.6757  0.4009  1.0815
 4452TIP3   OH234770   0.097   1.277  11.659  0.6348 -0.3815 -0.8585
 4452TIP3    H134771   0.112   1.296  11.752 -0.5796  1.3377 -0.9703
 4452TIP3    H234772   0.051   1.192  11.659 -4.2391  1.9071  0.6261
 4453TIP3   OH234773   3.524   4.256   1.183  0.4872 -0.1644  0.5637
 4453TIP3    H134774   3.445   4.237   1.233 -1.0002 -0.1823 -1.6639
 4453TIP3    H234775   3.493   4.280   1.096  2.8359  2.1250  0.2176
 4454TIP3   OH234776   2.039   0.789  14.214 -0.3426  0.6633  0.3356
 4454TIP3    H134777   2.056   0.772  14.307 -0.0137  0.1359  0.1837
 4454TIP3    H234778   2.094   0.725  14.168 -0.7301  0.7263 -0.2156
 4455TIP3   OH234779   0.431   2.847   5.755 -0.7353 -0.0081  0.1787
 4455TIP3    H134780   0.469   2.760   5.765 -2.3310 -0.6201  1.1781
 4455TIP3    H234781   0.344   2.841   5.795 -0.8939  2.0369  0.2649
 4456TIP3   OH234782   1.991   0.225  13.168 -0.3520 -0.3633 -0.5932
 4456TIP3    H134783   1.915   0.283  13.173 -0.4650 -0.5176 -0.5161
 4456TIP3    H234784   2.060   0.280  13.130 -0.3459 -0.0658 -0.1679
 4457TIP3   OH234785   2.704   0.029  10.381  0.2501  0.2856  0.1221
 4457TIP3    H134786   2.706  -0.009  10.469 -1.1077 -0.4062 -0.1337
 4457TIP3    H234787   2.711  -0.046  10.322 -2.4661  0.3513 -0.3843
 4458TIP3   OH234788   3.223   3.462   4.645  0.1742 -0.0593 -0.0343
 4458TIP3    H134789   3.131   3.484   4.658 -0.1000 -1.3915  0.4684
 4458TIP3    H234790   3.269   3.546   4.648 -1.0958  0.7181 -1.1131
 4459TIP3   OH234791   1.161   1.642   4.799  0.2185 -0.1373 -0.2569
 4459TIP3    H134792   1.071   1.608   4.795  1.1541 -2.7011 -2.4506
 4459TIP3    H234793   1.180   1.672   4.710  1.4911  0.4712  0.1984
 4460TIP3   OH234794   0.597   1.533  13.108 -0.0613  0.4346 -0.3029
 4460TIP3    H134795   0.568   1.490  13.188 -0.7021 -0.5948 -1.0664
 4460TIP3    H234796   0.692   1.523  13.108  0.2043  2.4038  1.4095
 4461TIP3   OH234797   3.927   2.229   0.472  0.0139  1.0213 -0.1396
 4461TIP3    H134798   3.974   2.153   0.437 -0.8958 -0.1663  1.0980
 4461TIP3    H234799   3.868   2.255   0.401 -0.6620 -0.3401 -0.1224
 4462TIP3   OH234800   0.718   1.605  16.261  0.0188 -0.2972 -0.0487
 4462TIP3    H134801   0.805   1.585  16.228 -0.2885 -1.6449 -0.1206
 4462TIP3    H234802   0.722   1.581  16.354  0.6177  2.6161  0.7605
 4463TIP3   OH234803   2.106   6.086   6.478  0.5640 -0.2469  0.1221
 4463TIP3    H134804   2.087   6.139   6.400  0.7569 -0.0847  0.1853
 4463TIP3    H234805   2.037   6.020   6.479 -1.2353  1.5458  1.4849
 4464TIP3   OH234806   6.745   5.843   0.654  0.1842  0.7994  0.0480
 4464TIP3    H134807   6.783   5.927   0.678 -0.5704  1.6334 -1.5122
 4464TIP3    H234808   6.750   5.841   0.558  0.0103 -0.8497  0.0465
 4465TIP3   OH234809   3.099   5.353  11.992  0.2485  0.6756  0.5597
 4465TIP3    H134810   3.166   5.346  11.924 -0.9890  0.3751 -0.6791
 4465TIP3    H234811   3.102   5.445  12.020  2.0025  0.3921  1.4566
 4466TIP3   OH234812   1.916   0.667   2.042  0.4508 -0.6260 -0.0488
 4466TIP3    H134813   1.987   0.725   2.014 -0.5637  1.0002  0.5455
 4466TIP3    H234814   1.836   0.711   2.011 -0.3912 -1.4684  0.8532
 4467TIP3   OH234815   2.115   1.448  13.164  0.1452 -0.1223  0.3105
 4467TIP3    H134816   2.178   1.430  13.094  0.1456 -2.3254  0.7846
 4467TIP3    H234817   2.103   1.542  13.162  0.2849 -0.0808 -2.5158
 4468TIP3   OH234818   5.453   0.229  11.743  0.1256 -0.4116 -0.0501
 4468TIP3    H134819   5.406   0.312  11.754  1.3992  0.3431 -0.1049
 4468TIP3    H234820   5.469   0.223  11.649 -0.8662 -1.2665 -0.1898
 4469TIP3   OH234821   4.230   5.237  15.434 -0.6183  0.1614  0.0132
 4469TIP3    H134822   4.249   5.184  15.512  0.1443  1.0054  0.4194
 4469TIP3    H234823   4.138   5.221  15.415 -1.0210  0.5451  1.5550
 4470TIP3   OH234824   6.761   0.804   2.461  0.0084 -0.6549 -0.7249
 4470TIP3    H134825   6.846   0.847   2.451 -0.7261  0.9528 -0.2273
 4470TIP3    H234826   6.759   0.777   2.553  0.2339 -1.2691 -0.8959
 4471TIP3   OH234827   5.854   0.926   2.803 -0.3574  0.2951 -0.2932
 4471TIP3    H134828   5.805   0.847   2.823 -1.2216  1.2031  1.3644
 4471TIP3    H234829   5.788   0.989   2.774  0.2453  0.6048 -1.0416
 4472TIP3   OH234830   5.256   5.879  11.614  0.6468 -0.3704 -0.2559
 4472TIP3    H134831   5.197   5.954  11.617 -1.4894 -1.9497  2.5554
 4472TIP3    H234832   5.336   5.910  11.655 -0.7067  0.1383  2.2101
 4473TIP3   OH234833   6.084   4.504   1.958 -0.1122  0.4242 -0.0543
 4473TIP3    H134834   6.128   4.562   2.021 -0.0398 -0.2003  0.4738
 4473TIP3    H234835   6.045   4.436   2.012 -1.1738  0.6048 -0.5801
 4474TIP3   OH234836   5.237   1.760   0.441  0.1418 -0.2440 -0.1957
 4474TIP3    H134837   5.203   1.809   0.366 -0.7457 -2.4013 -1.2881
 4474TIP3    H234838   5.332   1.767   0.432  0.0427  1.3077 -0.2631
 4475TIP3   OH234839   0.872   1.047   5.963  0.4244  0.4097 -0.7578
 4475TIP3    H134840   0.884   1.095   6.045  0.4604 -0.8538 -0.0144
 4475TIP3    H234841   0.955   1.003   5.948 -0.4865 -1.7150  0.0863
 4476TIP3   OH234842   6.658   3.646   2.654 -0.0301  0.2103 -0.0842
 4476TIP3    H134843   6.619   3.563   2.681 -1.1868  0.4904 -0.8317
 4476TIP3    H234844   6.692   3.630   2.566  0.7940  0.2007  0.2367
 4477TIP3   OH234845   0.614   1.178   5.342  0.1686  0.4206  0.3474
 4477TIP3    H134846   0.678   1.107   5.351  0.2167  0.4608  0.3189
 4477TIP3    H234847   0.573   1.183   5.428  0.8389  1.0027  0.6506
 4478TIP3   OH234848   0.772   2.498   5.518  0.1036 -0.1538 -0.1683
 4478TIP3    H134849   0.726   2.551   5.453  0.8268  1.8127  0.8462
 4478TIP3    H234850   0.729   2.412   5.514 -2.1810  0.9425 -0.7817
 4479TIP3   OH234851   0.343   4.772  11.406  0.8498 -0.0631  0.1928
 4479TIP3    H134852   0.321   4.684  11.436 -1.3989  0.1144 -0.7708
 4479TIP3    H234853   0.259   4.810  11.380  2.0108  1.7148 -1.1344
 4480TIP3   OH234854   6.230   5.467   2.734 -0.6885 -0.8952  0.4576
 4480TIP3    H134855   6.194   5.526   2.800 -2.9619 -4.4187  2.6625
 4480TIP3    H234856   6.306   5.428   2.776 -0.8133 -1.5251  0.1063
 4481TIP3   OH234857   0.658   3.725   0.968 -0.1546  0.1812 -0.7938
 4481TIP3    H134858   0.751   3.705   0.955 -0.1635 -0.1891 -0.2973
 4481TIP3    H234859   0.643   3.802   0.913  0.3450 -0.0053 -1.2055
 4482TIP3   OH234860   5.313   6.143  15.942  0.6125 -0.3346 -0.5922
 4482TIP3    H134861   5.274   6.079  16.002  1.1486 -0.7697 -0.7042
 4482TIP3    H234862   5.239   6.173  15.889  0.3329 -0.7830 -0.4678
 4483TIP3   OH234863   4.373   1.759   5.834  0.3176  0.1843 -0.0690
 4483TIP3    H134864   4.379   1.700   5.910 -0.2297  0.7471  0.4173
 4483TIP3    H234865   4.379   1.700   5.759 -2.7178 -0.8479  0.3634
 4484TIP3   OH234866   2.932   3.971   0.050 -0.1762 -0.7186 -0.3807
 4484TIP3    H134867   2.874   4.028   0.100  1.4026  1.7741 -1.2159
 4484TIP3    H234868   2.894   3.969  -0.038 -0.7053 -1.7370 -0.1459
 4485TIP3   OH234869   4.086   0.585   4.586  0.0059  0.2003  0.3210
 4485TIP3    H134870   4.062   0.575   4.494 -0.3660  0.8072  0.3492
 4485TIP3    H234871   4.154   0.652   4.586  1.2035 -0.9639  0.3254
 4486TIP3   OH234872   2.491   2.761   1.298  0.5356  0.1563  0.0177
 4486TIP3    H134873   2.477   2.699   1.226  3.6675  0.4656 -1.0135
 4486TIP3    H234874   2.509   2.705   1.374 -2.3859 -0.1667  0.5570
 4487TIP3   OH234875   5.487   3.409   0.387  0.2994  0.1457 -0.1187
 4487TIP3    H134876   5.573   3.423   0.426  1.2067 -1.1233 -1.5314
 4487TIP3    H234877   5.454   3.497   0.369  2.8824  0.7666 -2.7685
 4488TIP3   OH234878   5.187   0.991   3.454 -0.2548 -0.2753 -0.4795
 4488TIP3    H134879   5.138   0.983   3.536 -0.4519 -2.4302 -0.7480
 4488TIP3    H234880   5.124   0.964   3.387  0.4351 -0.2070 -1.1564
 4489TIP3   OH234881   3.861   0.944  14.786  0.1124  0.1556  0.2147
 4489TIP3    H134882   3.908   1.008  14.839 -1.7862  1.2521  0.6633
 4489TIP3    H234883   3.918   0.927  14.711  0.1614  3.3879 -0.6236
 4490TIP3   OH234884   4.621   3.792   5.510  0.1199 -0.1253 -0.5618
 4490TIP3    H134885   4.673   3.871   5.523 -0.8182  0.3068  0.7387
 4490TIP3    H234886   4.624   3.748   5.595  1.5070 -2.0605 -1.5335
 4491TIP3   OH234887   3.479   3.673   0.690  0.0321  0.4322 -0.2188
 4491TIP3    H134888   3.468   3.580   0.709 -1.4108  0.4290 -1.0304
 4491TIP3    H234889   3.422   3.717   0.753  1.9565  0.9090  1.3034
 4492TIP3   OH234890   0.292   1.108   3.529 -0.1869  0.5062 -0.4691
 4492TIP3    H134891   0.260   1.187   3.487  0.8055  1.4395  0.4764
 4492TIP3    H234892   0.379   1.130   3.560 -0.2605 -0.6515  0.6671
 4493TIP3   OH234893   6.272   6.370  13.487 -0.1783  0.6889  0.0677
 4493TIP3    H134894   6.251   6.277  13.500  1.4758  0.3889  0.8199
 4493TIP3    H234895   6.263   6.383  13.392  1.6420 -0.8193 -0.3693
 4494TIP3   OH234896   4.375   2.323  13.402 -0.0004 -0.2436  0.3286
 4494TIP3    H134897   4.305   2.377  13.440 -1.7139 -1.7331 -0.5765
 4494TIP3    H234898   4.445   2.326  13.468 -1.3425  0.3863  1.7994
 4495TIP3   OH234899   0.658   1.451  16.866  0.3912  0.4289  0.3896
 4495TIP3    H134900   0.717   1.395  16.816 -1.3058 -1.0737  0.0130
 4495TIP3    H234901   0.597   1.391  16.908 -0.6333  1.9238  1.1230
 4496TIP3   OH234902   2.719   1.472   0.132 -0.0825  0.1201 -0.2362
 4496TIP3    H134903   2.651   1.480   0.065 -0.4330 -1.7674 -0.1680
 4496TIP3    H234904   2.724   1.378   0.150  0.2371  0.5281  2.1637
 4497TIP3   OH234905   2.219   3.441   1.134  0.0155  0.0449 -0.1340
 4497TIP3    H134906   2.286   3.377   1.108 -1.1733 -0.4398 -2.2366
 4497TIP3    H234907   2.159   3.391   1.189  0.6372  0.1561  0.6782
 4498TIP3   OH234908   5.417   6.640  13.413  0.1621 -0.7416 -0.3190
 4498TIP3    H134909   5.401   6.731  13.387  1.7329 -0.6231 -0.9300
 4498TIP3    H234910   5.397   6.638  13.507 -1.6831 -0.2355 -0.6461
 4499TIP3   OH234911   0.635   4.606   2.243  0.0787  0.6435  0.0178
 4499TIP3    H134912   0.695   4.610   2.168 -2.0507 -1.5651 -1.9782
 4499TIP3    H234913   0.692   4.620   2.319  2.9134 -0.0016 -1.8058
 4500TIP3   OH234914   4.527   1.391   1.774 -0.4587 -0.5286  0.0425
 4500TIP3    H134915   4.509   1.485   1.779 -0.4229 -0.3558 -2.0966
 4500TIP3    H234916   4.441   1.351   1.757 -0.7043 -1.0815  2.2348
 4501TIP3   OH234917   6.139   4.332  13.340  0.8298 -0.1841 -0.2180
 4501TIP3    H134918   6.155   4.423  13.314  0.2305 -0.0292 -0.0812
 4501TIP3    H234919   6.045   4.330  13.358  0.9105 -0.7422  0.1390
 4502TIP3   OH234920   6.779   0.668  16.058  0.1666  0.0803 -0.0554
 4502TIP3    H134921   6.872   0.672  16.036  0.5071  0.5379  1.4028
 4502TIP3    H234922   6.763   0.576  16.079 -0.0429 -0.2617 -1.5326
 4503TIP3   OH234923   3.668   6.360   3.902  0.2265 -0.0496  0.2793
 4503TIP3    H134924   3.587   6.385   3.857 -0.3263 -0.5641  0.9631
 4503TIP3    H234925   3.687   6.433   3.960  0.5441  0.3015 -0.2619
 4504TIP3   OH234926   4.659   0.264  12.517 -0.0015 -0.1390 -0.5786
 4504TIP3    H134927   4.630   0.220  12.597 -0.6655  1.2737 -0.0067
 4504TIP3    H234928   4.691   0.194  12.461  0.4960 -1.1618  0.9308
 4505TIP3   OH234929   2.168   6.784  12.949  0.5615  0.2189 -0.1790
 4505TIP3    H134930   2.240   6.723  12.935  1.5650  1.7687 -2.2704
 4505TIP3    H234931   2.091   6.738  12.917  1.2437 -0.1275 -1.3974
 4506TIP3   OH234932   2.326   5.859  14.978  0.4046  0.1849  0.2142
 4506TIP3    H134933   2.285   5.793  15.035  0.0148  0.1253 -0.1293
 4506TIP3    H234934   2.341   5.813  14.895  1.3626  0.1455  0.3943
 4507TIP3   OH234935   5.075   5.268   1.041 -0.1385  0.1276 -0.4753
 4507TIP3    H134936   5.150   5.321   1.015  1.1226 -2.5109 -2.8289
 4507TIP3    H234937   5.108   5.214   1.113 -0.4925  0.4914 -0.0364
 4508TIP3   OH234938   5.549   2.781  13.767  0.0840  0.2059 -0.2524
 4508TIP3    H134939   5.554   2.875  13.750  0.2188  0.0849 -0.9057
 4508TIP3    H234940   5.639   2.750  13.761  0.0935  0.0975  0.3652
 4509TIP3   OH234941   4.587   1.269   5.187 -0.3331 -0.1042 -0.1493
 4509TIP3    H134942   4.593   1.177   5.212  4.0625 -0.2319 -0.9402
 4509TIP3    H234943   4.633   1.316   5.257  0.3165  1.0932 -1.3448
 4510TIP3   OH234944   3.062   4.829  11.607 -0.4859 -0.6630 -0.2281
 4510TIP3    H134945   3.140   4.783  11.636 -0.7080  0.3277  2.2669
 4510TIP3    H234946   3.086   4.867  11.523  1.5110 -0.8922  0.1884
 4511TIP3   OH234947   1.558   2.412  16.679 -0.0979 -0.1998  0.4077
 4511TIP3    H134948   1.508   2.397  16.760 -1.4384 -3.1877 -0.8230
 4511TIP3    H234949   1.500   2.465  16.625  0.1481  0.4926  0.8171
 4512TIP3   OH234950   3.218   3.831  14.130  0.1932 -1.1407  0.6051
 4512TIP3    H134951   3.246   3.749  14.088  1.6842 -0.4756  0.2123
 4512TIP3    H234952   3.263   3.832  14.214 -0.2949 -1.0117  0.8637
 4513TIP3   OH234953   2.225   6.548  13.528 -0.5727 -0.3344 -0.0838
 4513TIP3    H134954   2.266   6.532  13.612 -0.9569 -0.0760  0.1583
 4513TIP3    H234955   2.147   6.492  13.528 -1.7756  1.2505  0.6533
 4514TIP3   OH234956   6.545   2.432  16.770 -0.4446 -0.1828  0.3594
 4514TIP3    H134957   6.562   2.358  16.712 -1.0428 -0.2098  0.2142
 4514TIP3    H234958   6.466   2.408  16.817 -0.9253  0.5641 -0.0420
 4515TIP3   OH234959   6.639   4.547  16.337 -0.1658  0.4214 -0.2015
 4515TIP3    H134960   6.639   4.461  16.380 -2.9889 -0.7919 -2.2611
 4515TIP3    H234961   6.730   4.563  16.315  0.9764 -0.2414  3.4093
 4516TIP3   OH234962   2.326   6.646  14.487  0.4513 -0.1451  0.4037
 4516TIP3    H134963   2.393   6.714  14.495 -0.0960  0.8680 -2.4183
 4516TIP3    H234964   2.367   6.577  14.436  0.3073 -0.9771  1.3825
 4517TIP3   OH234965   1.453   5.734   0.468  0.2247  0.1281 -0.1582
 4517TIP3    H134966   1.462   5.798   0.539 -0.1011 -0.0057  0.0052
 4517TIP3    H234967   1.486   5.779   0.391  1.5109 -0.0517  0.2554
 4518TIP3   OH234968   1.167   5.139   0.880 -0.0718  0.1836  0.0964
 4518TIP3    H134969   1.145   5.226   0.849  0.9207  0.9383  1.4185
 4518TIP3    H234970   1.179   5.148   0.974  1.7835 -0.9719  0.0425
 4519TIP3   OH234971   5.525   4.891  13.933  0.1538  0.7803 -0.1898
 4519TIP3    H134972   5.597   4.843  13.972 -2.1174 -1.2357  1.8693
 4519TIP3    H234973   5.535   4.877  13.839  3.1342  1.7895 -0.1287
 4520TIP3   OH234974   2.933   1.890   4.571  0.1331 -0.2889  0.0306
 4520TIP3    H134975   2.923   1.972   4.522  1.3094 -0.2429 -0.1539
 4520TIP3    H234976   2.968   1.917   4.655 -1.3249 -0.4305  0.7193
 4521TIP3   OH234977   6.107   2.564  16.575 -0.5206 -0.4653  0.7067
 4521TIP3    H134978   6.082   2.648  16.537  1.0038  0.6469  2.0315
 4521TIP3    H234979   6.122   2.507  16.499  2.2806  1.6232 -0.4696
 4522TIP3   OH234980   4.557   4.616   2.864 -0.2398 -0.8043  0.2651
 4522TIP3    H134981   4.646   4.650   2.881 -0.4483  0.7211 -1.4101
 4522TIP3    H234982   4.499   4.684   2.900 -0.7488 -1.5245  0.8352
 4523TIP3   OH234983   1.442   1.387   4.377  0.0290  0.0241 -0.1592
 4523TIP3    H134984   1.469   1.479   4.385  1.6960 -0.5533  1.7065
 4523TIP3    H234985   1.519   1.343   4.342 -1.7641 -0.2788 -4.2142
 4524TIP3   OH234986   1.121   4.660   2.021 -0.1034  0.1306 -0.0144
 4524TIP3    H134987   1.156   4.720   1.956  0.0378 -0.7744 -0.8055
 4524TIP3    H234988   1.047   4.618   1.978  0.2290 -0.7655  0.2415
 4525TIP3   OH234989   1.813   4.783  14.021 -0.3167  0.2502  0.4667
 4525TIP3    H134990   1.867   4.831  13.958  0.6702  0.9136  1.7614
 4525TIP3    H234991   1.876   4.745  14.082 -1.1729 -1.5333  0.2965
 4526TIP3   OH234992   6.199   3.800   6.115 -1.1221  0.0660 -1.1394
 4526TIP3    H134993   6.224   3.885   6.151 -1.1098  0.0422 -1.0919
 4526TIP3    H234994   6.231   3.736   6.179 -1.9393  0.0691 -0.7091
 4527TIP3   OH234995   1.955   3.847   3.083  0.1132 -0.0936 -0.2152
 4527TIP3    H134996   2.048   3.830   3.072  0.0340 -0.8767  0.2447
 4527TIP3    H234997   1.934   3.811   3.169 -0.5792  0.2384 -0.2336
 4528TIP3   OH234998   6.049   5.849   0.929  0.0658 -1.0891 -0.3712
 4528TIP3    H134999   6.113   5.863   0.998  0.1974  2.3096 -0.9880
 4528TIP3    H235000   5.976   5.805   0.972  1.4013 -1.9432  1.1301
 4529TIP3   OH235001   0.085   2.305   1.824  0.2464 -0.4996  0.6383
 4529TIP3    H135002   0.025   2.254   1.770 -0.2621  0.6090  0.1188
 4529TIP3    H235003   0.169   2.297   1.780  0.9497 -3.4259  2.2601
 4530TIP3   OH235004   0.534   6.056   5.103 -0.0182  0.6641 -0.0580
 4530TIP3    H135005   0.459   6.072   5.160  0.5854  2.4043  0.2968
 4530TIP3    H235006   0.519   5.968   5.068 -0.6639 -0.2547  2.3771
 4531TIP3   OH235007   5.885   0.897   4.256 -0.4880 -0.2404  0.1030
 4531TIP3    H135008   5.900   0.894   4.161 -1.6279 -0.9142 -0.0779
 4531TIP3    H235009   5.806   0.951   4.265 -0.2308  0.0420  0.6952
 4532TIP3   OH235010   2.238   6.111   1.253 -0.1045  0.2485 -0.3868
 4532TIP3    H135011   2.161   6.150   1.294  0.1115 -0.3689  0.6352
 4532TIP3    H235012   2.208   6.025   1.224  0.4269 -0.3917  0.8856
 4533TIP3   OH235013   0.579   1.685  16.032  0.2021 -0.2884 -0.5090
 4533TIP3    H135014   0.486   1.660  16.034 -0.0251  0.5515 -0.4218
 4533TIP3    H235015   0.604   1.694  16.123 -0.3096  1.9092 -0.5403
 4534TIP3   OH235016   4.982   0.579  12.946 -0.0568 -0.3965  0.7121
 4534TIP3    H135017   5.070   0.578  12.982  0.6835 -4.0066 -0.7599
 4534TIP3    H235018   4.936   0.510  12.993 -0.6148 -1.7136 -1.6040
 4535TIP3   OH235019   1.384   3.950  14.008  0.4400 -0.3786  0.2969
 4535TIP3    H135020   1.474   3.982  13.996 -0.2805  1.4406 -0.4849
 4535TIP3    H235021   1.376   3.878  13.946  1.3637 -0.5781  0.3937
 4536TIP3   OH235022   0.947   3.760   4.023 -0.0137  0.6067 -0.5372
 4536TIP3    H135023   0.968   3.843   4.065 -0.1747 -0.0548  0.9113
 4536TIP3    H235024   1.021   3.742   3.966 -0.4245  2.2097 -1.6334
 4537TIP3   OH235025   1.855   5.939   5.741  0.0567  0.2358 -0.0340
 4537TIP3    H135026   1.796   5.946   5.817  1.5856 -1.0383  1.3524
 4537TIP3    H235027   1.933   5.895   5.776  0.6920 -0.6787 -2.4399
 4538TIP3   OH235028   1.878   2.513   5.060  0.1658  0.1719  0.4416
 4538TIP3    H135029   1.926   2.476   4.986 -0.9546 -2.4160  0.8848
 4538TIP3    H235030   1.943   2.520   5.130  0.4733 -0.7981  0.2684
 4539TIP3   OH235031   0.337   6.068   2.214  0.0499 -0.0565 -0.8341
 4539TIP3    H135032   0.332   6.088   2.121  1.4998 -1.6029 -1.2865
 4539TIP3    H235033   0.426   6.034   2.227 -0.4832 -0.9109  0.9090
 4540TIP3   OH235034   4.188   2.743  16.776 -0.2415 -0.4096 -0.7652
 4540TIP3    H135035   4.180   2.677  16.845 -0.9563  0.1504 -0.2931
 4540TIP3    H235036   4.218   2.694  16.699  0.7295 -1.0133 -0.0218
 4541TIP3   OH235037   5.344   3.110   2.096 -0.4078 -0.2559  0.2100
 4541TIP3    H135038   5.375   3.200   2.100  1.3347 -0.8400  0.9799
 4541TIP3    H235039   5.410   3.065   2.042 -0.3222 -1.3855  1.2049
 4542TIP3   OH235040   3.130   4.724   6.063 -0.4954  0.4216  0.5403
 4542TIP3    H135041   3.165   4.715   5.974 -1.5834  0.8238  0.0438
 4542TIP3    H235042   3.207   4.734   6.119  0.3161 -1.7729 -0.0931
 4543TIP3   OH235043   0.641   4.467  12.509 -0.5486  1.1234 -0.1210
 4543TIP3    H135044   0.558   4.463  12.556 -1.5058 -1.1915 -1.8060
 4543TIP3    H235045   0.637   4.551  12.462 -1.3712  1.5835  0.7322
 4544TIP3   OH235046   1.690   4.309  15.081 -0.1246 -0.3224 -0.2227
 4544TIP3    H135047   1.724   4.399  15.084 -1.5545  0.3044 -1.3167
 4544TIP3    H235048   1.631   4.309  15.005 -0.4404 -2.0839 -0.0026
 4545TIP3   OH235049   3.413   1.684   3.651  0.3160 -0.1851 -0.5252
 4545TIP3    H135050   3.364   1.607   3.680  0.3569  0.0391  0.1587
 4545TIP3    H235051   3.502   1.651   3.636  0.4913 -0.1693  0.3658
 4546TIP3   OH235052   2.269   0.349   5.414  0.2894 -0.1393 -0.3324
 4546TIP3    H135053   2.257   0.308   5.328 -0.5172 -0.4288 -0.0983
 4546TIP3    H235054   2.288   0.441   5.394  2.6123 -0.6733 -0.8747
 4547TIP3   OH235055   3.576   3.795   4.808 -0.5021 -0.9474 -0.2049
 4547TIP3    H135056   3.529   3.840   4.738  0.5846  0.6856  0.0651
 4547TIP3    H235057   3.668   3.818   4.794 -0.1334 -1.5374  1.0850
 4548TIP3   OH235058   1.430   1.178  12.973 -0.4972 -0.7825  0.5612
 4548TIP3    H135059   1.361   1.227  12.928  1.2200  0.1925 -1.1528
 4548TIP3    H235060   1.464   1.118  12.906 -0.5427 -2.2286  1.7751
 4549TIP3   OH235061   2.391   6.016   3.932 -0.0212 -0.0609 -0.2311
 4549TIP3    H135062   2.454   6.032   4.003  0.7710 -0.7980 -0.7466
 4549TIP3    H235063   2.422   6.070   3.860 -0.0772 -0.2940 -0.4310
 4550TIP3   OH235064   4.297   1.086   2.826 -0.3001 -0.1024  0.5050
 4550TIP3    H135065   4.287   1.181   2.836 -1.4276 -0.3601  2.3694
 4550TIP3    H235066   4.392   1.073   2.821 -0.1814  1.2499 -1.9876
 4551TIP3   OH235067   3.721   6.489   2.330 -0.4586 -0.5319  0.1229
 4551TIP3    H135068   3.678   6.423   2.385 -0.2681 -0.9873 -0.2644
 4551TIP3    H235069   3.676   6.483   2.246  0.4064 -1.0877 -0.3227
 4552TIP3   OH235070   0.060   5.627  12.218  0.5840 -0.3478  0.3871
 4552TIP3    H135071   0.080   5.600  12.128  2.0283  1.8666 -0.0324
 4552TIP3    H235072   0.040   5.546  12.264  1.9739 -1.7807 -1.4127
 4553TIP3   OH235073   6.735   0.754   2.725  0.0619 -0.4596  0.1831
 4553TIP3    H135074   6.818   0.773   2.770  1.2417 -0.4317 -1.8903
 4553TIP3    H235075   6.668   0.783   2.786  1.5904  0.3322  1.5753
 4554TIP3   OH235076   4.867   0.427   2.907  0.0829  0.0590  0.0125
 4554TIP3    H135077   4.889   0.409   2.816  0.5666  1.5372 -0.1969
 4554TIP3    H235078   4.943   0.396   2.956 -0.1692 -0.7186 -0.0696
 4555TIP3   OH235079   4.065   2.963  14.727  0.9569 -0.3738 -0.4145
 4555TIP3    H135080   4.025   2.987  14.643 -0.1670 -1.6840 -0.2925
 4555TIP3    H235081   4.140   3.022  14.736  0.6888  0.2563 -2.0038
 4556TIP3   OH235082   6.217   2.366   0.266  0.1250 -0.1132  0.4124
 4556TIP3    H135083   6.232   2.450   0.309 -0.9640  0.5525 -0.4447
 4556TIP3    H235084   6.293   2.353   0.210 -0.7246  1.4532 -1.1946
 4557TIP3   OH235085   4.495   0.730   3.547 -0.3912 -0.2719  0.3051
 4557TIP3    H135086   4.406   0.729   3.580 -0.8120 -0.9548 -0.7869
 4557TIP3    H235087   4.503   0.650   3.495 -0.6248  1.8126 -3.3073
 4558TIP3   OH235088   5.257   1.624   4.878 -0.2253  0.2834  0.0321
 4558TIP3    H135089   5.332   1.577   4.842  0.1350 -0.9138  2.1722
 4558TIP3    H235090   5.181   1.574   4.850 -0.0744  0.2682 -0.3550
 4559TIP3   OH235091   5.464   2.569  11.672 -0.1146  0.3404  0.2536
 4559TIP3    H135092   5.461   2.550  11.578 -0.8231  0.9784  0.1361
 4559TIP3    H235093   5.552   2.542  11.699 -0.6415 -1.8924 -0.1232
 4560TIP3   OH235094   2.080   0.085  10.606  0.1006  0.1719  0.1532
 4560TIP3    H135095   2.060   0.012  10.665  0.3290  0.3193  0.4117
 4560TIP3    H235096   2.142   0.138  10.654 -0.4321  0.7974  0.1607
 4561TIP3   OH235097   4.325   2.658   2.969  0.0454  0.2588 -0.0127
 4561TIP3    H135098   4.231   2.662   2.987 -0.5497 -1.4645 -2.2883
 4561TIP3    H235099   4.338   2.722   2.899  0.5328  0.3277  0.1430
 4562TIP3   OH235100   0.344   0.259   4.074  0.1292 -0.1846  0.2736
 4562TIP3    H135101   0.371   0.350   4.062  0.1685 -0.2507 -0.1278
 4562TIP3    H235102   0.289   0.239   3.998 -0.2492 -0.3589  0.5844
 4563TIP3   OH235103   3.818   5.287   1.944 -0.0370  0.2688  0.5556
 4563TIP3    H135104   3.901   5.275   1.992  0.2158 -0.6032 -0.0633
 4563TIP3    H235105   3.820   5.218   1.878 -2.0801 -0.9206  1.6528
 4564TIP3   OH235106   0.867   5.006   2.631  0.1742  0.3320  0.0409
 4564TIP3    H135107   0.866   5.099   2.607  0.8690  0.0156 -1.2560
 4564TIP3    H235108   0.927   4.965   2.570 -0.5197 -1.0831  0.2541
 4565TIP3   OH235109   4.467   2.252   4.646  0.0613 -0.1934 -0.2012
 4565TIP3    H135110   4.556   2.269   4.676  0.6620 -1.9701 -0.8492
 4565TIP3    H235111   4.456   2.310   4.571  0.9724 -0.5356 -0.6130
 4566TIP3   OH235112   4.565   3.430   2.070  0.1514 -0.5242  0.2409
 4566TIP3    H135113   4.626   3.358   2.085 -0.7163 -1.3000  0.1915
 4566TIP3    H235114   4.565   3.443   1.976  0.8121 -0.0044  0.3133
 4567TIP3   OH235115   6.661   5.114  13.040 -0.0427 -0.2223  0.5590
 4567TIP3    H135116   6.744   5.156  13.062  0.7925 -0.3911 -1.9683
 4567TIP3    H235117   6.678   5.021  13.048  1.0296 -0.4389 -2.6838
 4568TIP3   OH235118   6.339   0.742  12.864 -0.4543  0.3983  0.4280
 4568TIP3    H135119   6.423   0.780  12.836 -0.4358  0.6430  0.8085
 4568TIP3    H235120   6.284   0.748  12.787 -0.8250  2.2836  0.7775
 4569TIP3   OH235121   5.210   5.672  14.913 -0.1584  0.1986  0.0512
 4569TIP3    H135122   5.178   5.728  14.842 -2.3432 -2.0093 -0.8685
 4569TIP3    H235123   5.206   5.727  14.991 -3.3060  1.1246 -0.6061
 4570TIP3   OH235124   1.473   4.848   3.218 -0.1189 -0.8191  0.1217
 4570TIP3    H135125   1.400   4.910   3.224  0.4502 -0.1842  0.7897
 4570TIP3    H235126   1.551   4.901   3.238  0.8135 -0.9906 -2.6165
 4571TIP3   OH235127   0.455   4.926  14.253  0.5063  0.0084  0.3439
 4571TIP3    H135128   0.408   4.931  14.170 -0.2197  5.2737  0.7026
 4571TIP3    H235129   0.417   4.851  14.298 -1.9585 -0.6128 -2.4788
 4572TIP3   OH235130   2.780   5.678  16.749  0.1019 -0.5743  0.6898
 4572TIP3    H135131   2.699   5.716  16.783  0.0257 -1.3608  1.4178
 4572TIP3    H235132   2.750   5.612  16.687  0.1630 -1.1994  1.3153
 4573TIP3   OH235133   6.705   4.851  15.641 -0.0120 -0.0320 -0.1653
 4573TIP3    H135134   6.694   4.844  15.546 -2.5579  1.2776 -0.0501
 4573TIP3    H235135   6.687   4.942  15.661  1.9921  0.0873  1.4773
 4574TIP3   OH235136   4.530   5.043  12.806 -0.4710 -0.3520 -0.2061
 4574TIP3    H135137   4.553   5.092  12.727 -0.1699  0.2360  0.2462
 4574TIP3    H235138   4.515   5.110  12.872 -0.0274 -0.8734  0.4273
 4575TIP3   OH235139   0.064   3.188  15.775  0.1079 -0.1389 -0.2169
 4575TIP3    H135140   0.068   3.263  15.834 -0.1970  0.2792 -0.7233
 4575TIP3    H235141   0.031   3.117  15.830 -0.4161  0.3086  0.0533
 4576TIP3   OH235142   2.693   0.419  16.245  0.0545  0.1576  0.0533
 4576TIP3    H135143   2.725   0.329  16.251 -2.6571 -0.8928  0.0656
 4576TIP3    H235144   2.650   0.423  16.159 -0.0205  1.3927  0.1317
 4577TIP3   OH235145   4.195   5.707   6.672  0.5377 -0.4615  0.6771
 4577TIP3    H135146   4.211   5.613   6.674 -0.7774 -0.7073  1.5603
 4577TIP3    H235147   4.141   5.720   6.595 -0.5017 -0.6840  1.3443
 4578TIP3   OH235148   1.153   6.347  15.213 -0.3401  0.0336  0.0405
 4578TIP3    H135149   1.211   6.296  15.269  0.9294  0.8369 -0.5161
 4578TIP3    H235150   1.177   6.321  15.124 -0.8871  0.3245 -0.1973
 4579TIP3   OH235151   0.906   4.817   0.535  0.2331 -0.1385 -0.1099
 4579TIP3    H135152   0.820   4.795   0.497  0.5280 -0.7514 -0.4323
 4579TIP3    H235153   0.967   4.807   0.462  0.6704 -0.3517  0.2870
 4580TIP3   OH235154   2.165   1.633  12.661  0.2167 -0.5736 -0.5812
 4580TIP3    H135155   2.113   1.712  12.648  0.8704 -0.1975 -0.9743
 4580TIP3    H235156   2.246   1.664  12.702  0.1101 -1.1619  0.0981
 4581TIP3   OH235157   0.075   1.228  15.053  0.5901 -0.1231  0.2870
 4581TIP3    H135158  -0.014   1.198  15.034  1.0742 -2.1166  0.8862
 4581TIP3    H235159   0.071   1.254  15.145  0.4168  0.6425  0.0625
 4582TIP3   OH235160   1.986   3.395   2.020  0.2157  0.7578  0.2287
 4582TIP3    H135161   2.012   3.487   2.018  0.1417  0.7979  0.9188
 4582TIP3    H235162   2.050   3.354   2.078  1.4133 -0.0022 -1.5531
 4583TIP3   OH235163   4.949   2.338   2.015  0.3028 -0.0683 -0.4054
 4583TIP3    H135164   4.887   2.271   2.045 -0.9499  1.9434  1.7973
 4583TIP3    H235165   4.920   2.360   1.927 -1.4539  0.0032  0.1518
 4584TIP3   OH235166   2.952   4.079   3.315  0.9512  0.5541 -0.0474
 4584TIP3    H135167   2.903   4.104   3.394  0.6312  1.3455 -0.4790
 4584TIP3    H235168   2.901   4.116   3.243  0.4398 -1.4313 -0.7561
 4585TIP3   OH235169   3.409   4.329   2.538 -0.3227  0.2769 -0.2554
 4585TIP3    H135170   3.335   4.386   2.562 -0.0135  0.8046 -0.5402
 4585TIP3    H235171   3.428   4.352   2.447  0.5277  0.5056 -0.0193
 4586TIP3   OH235172   3.602   4.607   5.592  0.5260 -0.5012  0.2173
 4586TIP3    H135173   3.570   4.679   5.537 -1.7461 -0.6838  1.1893
 4586TIP3    H235174   3.696   4.605   5.576  0.7751  2.9075  0.3693
 4587TIP3   OH235175   3.710   1.832   3.024 -0.3338 -0.2606  0.3842
 4587TIP3    H135176   3.728   1.794   2.938 -1.0734 -1.0765  0.5707
 4587TIP3    H235177   3.615   1.843   3.026 -0.5661 -1.9459  1.7499
 4588TIP3   OH235178   3.736   1.295   4.293  0.1899 -0.9887 -0.1993
 4588TIP3    H135179   3.711   1.381   4.329  0.9664 -0.5620 -0.6548
 4588TIP3    H235180   3.663   1.238   4.317 -2.2466  0.6170 -3.1022
 4589TIP3   OH235181   6.053   1.935  11.100 -0.1832 -0.6259 -0.6710
 4589TIP3    H135182   6.116   2.004  11.078  0.0503 -0.3073  0.9036
 4589TIP3    H235183   6.031   1.896  11.016  2.0928 -0.7313 -1.2937
 4590TIP3   OH235184   5.053   1.750   3.741 -0.3097 -0.1169 -0.0720
 4590TIP3    H135185   5.055   1.735   3.835 -3.3009  2.3675  0.5221
 4590TIP3    H235186   4.963   1.733   3.715  0.3031 -0.2149 -2.4475
 4591TIP3   OH235187   0.135   4.017  11.414 -0.3456 -0.6347 -0.5406
 4591TIP3    H135188   0.152   3.941  11.358  0.1594 -0.3831 -0.7364
 4591TIP3    H235189   0.199   4.082  11.386 -0.5286 -0.2674 -0.1192
 4592TIP3   OH235190   5.171   3.953   0.513 -0.0578 -0.0403 -0.2773
 4592TIP3    H135191   5.161   4.047   0.528 -1.6438  0.0767 -1.7671
 4592TIP3    H235192   5.084   3.917   0.531  0.2715 -1.0679 -0.7082
 4593TIP3   OH235193   4.313   4.091   5.872  0.4985 -0.3991  0.5180
 4593TIP3    H135194   4.256   4.015   5.884 -1.0121  0.2719 -1.7570
 4593TIP3    H235195   4.377   4.064   5.806 -0.6383  0.5138 -1.0347
 4594TIP3   OH235196   1.318   1.891  16.926  0.1046 -0.1879  0.4080
 4594TIP3    H135197   1.246   1.855  16.875 -1.2380  0.4670  1.7757
 4594TIP3    H235198   1.358   1.956  16.868 -0.1520 -0.8281 -0.4992
 4595TIP3   OH235199   5.050   0.849   2.723  0.3600  0.1448 -0.3831
 4595TIP3    H135200   5.007   0.888   2.799  0.1485  1.7324 -1.2739
 4595TIP3    H235201   5.116   0.791   2.760  1.1060  1.8303  1.0357
 4596TIP3   OH235202   5.850   0.861   0.000  0.1108  0.3633  0.2992
 4596TIP3    H135203   5.864   0.793  -0.066 -0.3162  0.5245  0.0412
 4596TIP3    H235204   5.776   0.828   0.052  0.1212  0.4761  0.3850
 4597TIP3   OH235205   5.745   5.372  13.879  0.2142  0.4372  0.6543
 4597TIP3    H135206   5.719   5.433  13.948  1.3241 -0.1837  1.6696
 4597TIP3    H235207   5.724   5.286  13.914 -1.0242  0.1906 -0.6286
 4598TIP3   OH235208   4.922   4.276   5.092  0.1818  0.0574  0.4873
 4598TIP3    H135209   4.900   4.247   5.180  0.9278  1.0695  1.0285
 4598TIP3    H235210   4.839   4.309   5.056 -0.0415  0.0360  0.9755
 4599TIP3   OH235211   3.944   0.833   1.728  0.0610 -0.4518  0.4825
 4599TIP3    H135212   3.972   0.896   1.794 -1.1535 -0.4408  1.0228
 4599TIP3    H235213   3.924   0.754   1.778 -0.5018 -0.5695  0.0868
 4600TIP3   OH235214   3.766   5.850  12.802  0.0492 -0.4808 -0.1676
 4600TIP3    H135215   3.840   5.810  12.846  1.6631  0.4544 -1.8777
 4600TIP3    H235216   3.786   5.943  12.800 -1.3801 -0.1462 -0.3028
 4601TIP3   OH235217   3.742   1.323   0.796  0.1004  0.0739 -0.4604
 4601TIP3    H135218   3.688   1.244   0.800  0.0395  0.1638  0.6659
 4601TIP3    H235219   3.682   1.391   0.767 -0.2922  0.0744  0.3230
 4602TIP3   OH235220   5.618   2.305  13.399  0.3465 -0.4367  0.0555
 4602TIP3    H135221   5.599   2.246  13.472  3.9411 -0.9255  0.7953
 4602TIP3    H235222   5.575   2.265  13.324 -1.6956 -1.0748  1.4948
 4603TIP3   OH235223   0.207   5.647  13.198 -0.2497  0.7646 -0.1162
 4603TIP3    H135224   0.251   5.574  13.155 -1.3415 -1.2310  1.9068
 4603TIP3    H235225   0.119   5.648  13.159 -0.9087 -0.4004  1.2413
 4604TIP3   OH235226   0.016   1.269   1.688  0.0243  0.6888 -0.4029
 4604TIP3    H135227  -0.034   1.340   1.649 -0.1096  1.0246  0.3550
 4604TIP3    H235228  -0.049   1.203   1.712  0.1736  0.1912 -1.3310
 4605TIP3   OH235229   0.455   4.636  16.255 -0.7028  0.9579 -0.4246
 4605TIP3    H135230   0.522   4.704  16.253  0.8382 -0.4422  0.6578
 4605TIP3    H235231   0.416   4.643  16.342  1.3925 -1.1828  0.8218
 4606TIP3   OH235232   0.291   6.154   4.181  0.4455  0.2269  0.2732
 4606TIP3    H135233   0.322   6.071   4.144  3.8064  0.7410  1.5882
 4606TIP3    H235234   0.309   6.218   4.112  0.9955  0.3251  0.5059
 4607TIP3   OH235235   2.311   3.355   1.814  0.6223 -0.1228 -0.1443
 4607TIP3    H135236   2.345   3.443   1.828  0.3082  0.0303 -0.3210
 4607TIP3    H235237   2.386   3.304   1.784  0.3547  0.6468 -2.3002
 4608TIP3   OH235238   5.804   5.097  14.354  0.6218 -0.0727  0.1323
 4608TIP3    H135239   5.841   5.171  14.306  0.2360 -0.0452 -0.1267
 4608TIP3    H235240   5.712   5.118  14.364  0.5366 -0.4567  0.1749
 4609TIP3   OH235241   0.721   5.186   0.783 -0.3471  0.4096 -0.7228
 4609TIP3    H135242   0.738   5.279   0.798  0.4801 -0.0466  1.7167
 4609TIP3    H235243   0.801   5.154   0.741 -0.2295  0.6272 -0.6708
 4610TIP3   OH235244   1.800   4.292   6.256  0.1843 -0.5258 -0.3010
 4610TIP3    H135245   1.801   4.342   6.175 -0.2466 -1.2646 -0.7700
 4610TIP3    H235246   1.748   4.345   6.316 -3.1125 -1.7974 -1.7528
 4611TIP3   OH235247   0.504   3.106  14.284  0.2462 -0.0354  0.0433
 4611TIP3    H135248   0.590   3.113  14.325  0.3650  0.4246 -0.2811
 4611TIP3    H235249   0.447   3.074  14.354  0.7975 -0.9144  0.1015
 4612TIP3   OH235250   6.066   5.953  16.003  0.0834 -0.0370 -0.1820
 4612TIP3    H135251   6.079   5.867  16.043 -0.6513  0.5260  1.3525
 4612TIP3    H235252   6.150   5.974  15.962  0.3524 -1.3550 -0.3465
 4613TIP3   OH235253   6.066   0.590  13.596  0.5225 -0.5487 -0.1652
 4613TIP3    H135254   6.026   0.648  13.661 -0.0200 -0.0326 -0.9405
 4613TIP3    H235255   6.025   0.615  13.513  2.1018 -0.3315 -0.9099
 4614TIP3   OH235256   2.061   1.859  10.898 -0.4923 -0.3435  0.3092
 4614TIP3    H135257   1.966   1.851  10.883 -0.3522 -0.9576 -0.3605
 4614TIP3    H235258   2.071   1.853  10.993 -1.2781  1.6427  0.5586
 4615TIP3   OH235259   3.775   6.547   2.684 -0.2702 -0.3558  0.3747
 4615TIP3    H135260   3.739   6.480   2.625 -0.0352 -2.1520  2.1499
 4615TIP3    H235261   3.826   6.604   2.627 -0.0596 -1.9877 -1.1817
 4616TIP3   OH235262   3.982   3.449   5.196  0.3765 -0.3265 -0.1590
 4616TIP3    H135263   4.057   3.460   5.138 -0.2295 -0.8063 -1.0499
 4616TIP3    H235264   3.906   3.470   5.142 -0.2042 -0.8203  0.4458
 4617TIP3   OH235265   4.112   5.678  16.324  0.0399  0.2048  0.5327
 4617TIP3    H135266   4.020   5.666  16.348  0.0975  0.4007  0.8637
 4617TIP3    H235267   4.160   5.641  16.398  0.2435 -1.0420 -0.1961
 4618TIP3   OH235268   5.568   1.680  11.786  0.2161  0.2861 -0.1019
 4618TIP3    H135269   5.633   1.744  11.758 -0.6935  0.6006 -1.5954
 4618TIP3    H235270   5.613   1.596  11.780  0.9548  0.6346  0.4067
 4619TIP3   OH235271   2.387   4.981   4.059 -0.1878 -0.1862 -0.1173
 4619TIP3    H135272   2.387   4.936   3.974 -1.8525 -1.0194  0.2804
 4619TIP3    H235273   2.347   4.918   4.119 -1.3322  1.3127  0.7524
 4620TIP3   OH235274   0.731   1.492  16.510 -0.1463  0.0004  0.1755
 4620TIP3    H135275   0.636   1.489  16.525 -0.0189  0.8695  1.3060
 4620TIP3    H235276   0.766   1.536  16.588  1.1551 -0.0277 -0.3740
 4621TIP3   OH235277   3.469   2.367   1.333 -0.3344 -0.1357 -0.2496
 4621TIP3    H135278   3.428   2.428   1.272 -0.2593  1.2196  1.0038
 4621TIP3    H235279   3.561   2.394   1.337 -0.0402 -1.0393 -0.4970
 4622TIP3   OH235280   3.226   4.602   0.661 -0.0731 -0.7435  0.0177
 4622TIP3    H135281   3.262   4.583   0.574 -1.2916 -0.8016 -0.4851
 4622TIP3    H235282   3.232   4.697   0.670 -0.4499 -0.6854 -0.3521
 4623TIP3   OH235283   1.837   5.194   3.085  0.0990  0.0115 -0.2148
 4623TIP3    H135284   1.792   5.116   3.053  2.1594 -0.9351 -0.9337
 4623TIP3    H235285   1.815   5.197   3.178 -1.2063 -0.5512 -0.4762
 4624TIP3   OH235286   0.418   3.683  16.892 -0.1702 -0.2260 -0.3963
 4624TIP3    H135287   0.441   3.774  16.878 -0.5796  0.0393  0.5491
 4624TIP3    H235288   0.469   3.656  16.968  0.0128 -0.8129 -0.7182
 4625TIP3   OH235289   2.368   2.056  13.835  0.6041  0.7905 -0.3116
 4625TIP3    H135290   2.354   1.963  13.849  1.0420  0.5413 -1.4430
 4625TIP3    H235291   2.365   2.095  13.923 -1.9393  0.0569  0.0075
 4626TIP3   OH235292   3.984   0.023   4.527  0.1886  0.0319 -0.0847
 4626TIP3    H135293   3.976   0.007   4.433  0.1776 -1.6956  0.1769
 4626TIP3    H235294   3.898  -0.001   4.563  0.2166  0.6050  0.3731
 4627TIP3   OH235295   0.742   2.586   1.597 -0.4807 -0.1980  0.8052
 4627TIP3    H135296   0.833   2.590   1.626 -0.4956  1.4431  0.7062
 4627TIP3    H235297   0.747   2.556   1.506  0.1645  1.9680  0.0773
 4628TIP3   OH235298   1.930   4.845  16.832  0.4995 -0.1496  0.1673
 4628TIP3    H135299   1.909   4.929  16.790 -0.2458 -0.6001 -0.3851
 4628TIP3    H235300   1.852   4.823  16.882  1.0446 -0.0637  1.0679
 4629TIP3   OH235301   4.828   1.142   5.567  0.8110 -0.6220 -0.9083
 4629TIP3    H135302   4.909   1.146   5.618  1.0663  1.2607 -1.3846
 4629TIP3    H235303   4.849   1.084   5.494  1.2394 -1.3435 -0.2200
 4630TIP3   OH235304   3.925   1.564  12.035 -0.3094  0.0472 -0.1978
 4630TIP3    H135305   3.894   1.594  11.949  0.8116  1.0737 -0.2709
 4630TIP3    H235306   3.924   1.643  12.089  1.1967 -0.0880  0.0616
 4631TIP3   OH235307   0.993   0.364   2.495 -0.0756  0.1999  0.4424
 4631TIP3    H135308   0.898   0.367   2.506  0.0332  0.4217  1.4539
 4631TIP3    H235309   1.020   0.287   2.545  0.1808 -0.4587 -0.6931
 4632TIP3   OH235310   4.205   1.779  13.895  0.2770  0.2591  0.2608
 4632TIP3    H135311   4.287   1.755  13.852  0.1136 -1.0707  0.6695
 4632TIP3    H235312   4.224   1.773  13.988 -0.1014  0.6177  0.3644
 4633TIP3   OH235313   0.804   4.559  17.095 -0.3089  0.2700  0.1702
 4633TIP3    H135314   0.758   4.576  17.014  0.5910  0.2365 -0.3639
 4633TIP3    H235315   0.886   4.609  17.088 -0.5274  0.8529  1.3652
 4634TIP3   OH235316   0.405   4.523  10.628  0.2250 -0.6540  0.6913
 4634TIP3    H135317   0.363   4.464  10.690  1.5419 -1.9656  0.4062
 4634TIP3    H235318   0.361   4.607  10.640 -2.2248 -1.8419  0.6080
 4635TIP3   OH235319   0.450   0.922   2.028  0.1887 -0.0695 -0.4201
 4635TIP3    H135320   0.526   0.952   1.978  0.8486 -1.1995 -0.1250
 4635TIP3    H235321   0.409   0.855   1.972  0.4675 -0.7603  0.1858
 4636TIP3   OH235322   2.937   2.932   3.816 -0.4320  0.1826 -0.3915
 4636TIP3    H135323   2.994   2.876   3.764  1.1994  0.1570  1.3434
 4636TIP3    H235324   2.956   3.021   3.784 -1.1565  0.0057 -1.3823
 4637TIP3   OH235325   2.261   2.631  15.760  0.1409  0.5380  0.6278
 4637TIP3    H135326   2.333   2.684  15.726 -0.3337 -0.4944 -2.2460
 4637TIP3    H235327   2.300   2.545  15.776 -0.4045 -0.0882 -1.1437
 4638TIP3   OH235328   3.275   2.472  11.144  0.2136 -0.2891 -0.0989
 4638TIP3    H135329   3.193   2.504  11.107  0.3920 -0.5391 -0.7227
 4638TIP3    H235330   3.320   2.431  11.071  1.5633  1.1328 -0.1214
 4639TIP3   OH235331   0.610   3.022  16.824  0.4308  0.1630 -0.1748
 4639TIP3    H135332   0.575   3.108  16.800 -0.3538 -0.4607 -1.3223
 4639TIP3    H235333   0.606   2.971  16.743  0.4687 -1.0953  0.5997
 4640TIP3   OH235334   4.763   1.260   6.592 -0.4046  0.2036 -0.0848
 4640TIP3    H135335   4.740   1.250   6.500 -2.4734 -0.2286  0.4403
 4640TIP3    H235336   4.749   1.353   6.610  1.6028  0.6490 -0.5638
 4641TIP3   OH235337   4.257   5.813   2.134  0.3828 -0.4305 -0.0694
 4641TIP3    H135338   4.230   5.859   2.054 -0.8479 -1.1729 -0.1107
 4641TIP3    H235339   4.275   5.724   2.105  0.2793 -0.6141  0.4284
 4642TIP3   OH235340   1.219   4.030   4.099 -0.0842  0.0099  0.6249
 4642TIP3    H135341   1.270   4.061   4.174  0.7457  1.2522 -0.3990
 4642TIP3    H235342   1.135   4.002   4.136 -0.4117  2.3517  1.8122
 4643TIP3   OH235343   3.946   3.464   0.099 -0.4910  0.2575 -0.3793
 4643TIP3    H135344   3.851   3.463   0.097 -0.5639  1.1916  1.0020
 4643TIP3    H235345   3.969   3.549   0.136  0.8049 -0.5057  0.7072
 4644TIP3   OH235346   0.515   2.634   0.492  0.1316  0.8597 -0.1870
 4644TIP3    H135347   0.535   2.665   0.580  1.5158 -0.0376 -0.1617
 4644TIP3    H235348   0.599   2.608   0.456 -0.7200 -1.2728 -0.7978
 4645TIP3   OH235349   5.241   1.610   4.322  0.3769 -0.0477  0.2603
 4645TIP3    H135350   5.162   1.632   4.371  0.6109  0.2204  0.5226
 4645TIP3    H235351   5.254   1.683   4.262  0.3777 -0.1331  0.1553
 4646TIP3   OH235352   3.013   0.213  14.392 -0.2605  0.3695  0.2329
 4646TIP3    H135353   3.050   0.189  14.307 -3.8344 -1.8591 -0.9067
 4646TIP3    H235354   3.016   0.133  14.444 -4.5830 -0.5344 -0.5324
 4647TIP3   OH235355   6.524   0.315  16.404  0.4191  0.8553  0.5731
 4647TIP3    H135356   6.555   0.259  16.333  2.1891  1.0452  1.1392
 4647TIP3    H235357   6.575   0.288  16.481 -0.3775  1.6501  1.4184
 4648TIP3   OH235358   0.629   1.596  10.567 -0.4776  0.2830  0.2814
 4648TIP3    H135359   0.721   1.615  10.550 -0.0958  0.5819  2.3266
 4648TIP3    H235360   0.581   1.669  10.526  0.0402 -0.5677 -1.9542
 4649TIP3   OH235361   5.939   4.351  15.483  0.1308  0.3349  0.2365
 4649TIP3    H135362   5.945   4.261  15.513  3.4912 -0.5776 -2.5815
 4649TIP3    H235363   6.002   4.399  15.537 -1.1114  0.9178  1.2284
 4650TIP3   OH235364   1.724   4.627  12.849  0.4621  0.2239 -0.4005
 4650TIP3    H135365   1.796   4.673  12.892  0.6300  1.4279 -1.8807
 4650TIP3    H235366   1.651   4.634  12.910  0.5814  2.2180 -0.4206
 4651TIP3   OH235367   5.459   6.480  15.590 -0.1078  0.0717  0.2652
 4651TIP3    H135368   5.426   6.556  15.543  0.1716 -1.0179 -1.8164
 4651TIP3    H235369   5.402   6.408  15.562  0.5432 -0.7597  1.0243
 4652TIP3   OH235370   2.142   2.953   3.638  0.3129  0.4332  0.2685
 4652TIP3    H135371   2.143   3.029   3.696 -1.3259  1.0644 -0.4759
 4652TIP3    H235372   2.230   2.951   3.600  0.3470  2.0485  0.1811
 4653TIP3   OH235373   5.098   3.149  13.327  0.2780  0.1555  0.2594
 4653TIP3    H135374   5.092   3.230  13.379 -0.5436  0.4251 -0.2427
 4653TIP3    H235375   5.085   3.079  13.391  0.2877  0.4481  0.5877
 4654TIP3   OH235376   3.584   5.961   4.907  0.0524  0.5230  0.1439
 4654TIP3    H135377   3.512   5.910   4.944  0.2856 -0.9715 -1.3337
 4654TIP3    H235378   3.656   5.949   4.968  1.5372 -4.7487 -2.0647
 4655TIP3   OH235379   1.382   1.094  13.971  0.0507 -0.2924  0.2310
 4655TIP3    H135380   1.453   1.096  13.908  0.0821  0.1612  0.2783
 4655TIP3    H235381   1.365   1.186  13.992 -2.0079 -0.2052 -1.4219
 4656TIP3   OH235382   6.170   0.698  12.623 -1.2595 -0.0884 -1.0847
 4656TIP3    H135383   6.131   0.779  12.591 -4.0920 -0.8840  0.0727
 4656TIP3    H235384   6.147   0.632  12.557 -1.8655 -0.5722 -0.4021
 4657TIP3   OH235385   5.733   1.579   0.485  0.1155 -0.5334 -0.0727
 4657TIP3    H135386   5.765   1.601   0.573  2.3630 -0.4772 -0.8355
 4657TIP3    H235387   5.794   1.513   0.454 -0.8292 -0.7708 -1.4977
 4658TIP3   OH235388   1.312   5.254   6.310 -0.4330  0.3250  0.2308
 4658TIP3    H135389   1.216   5.263   6.309 -0.4013  0.7411  0.4541
 4658TIP3    H235390   1.333   5.211   6.227 -0.9268 -1.0986  0.8210
 4659TIP3   OH235391   6.516   6.652  16.126  0.0825 -0.6516 -0.0320
 4659TIP3    H135392   6.533   6.624  16.036  1.6661 -3.5562  1.0679
 4659TIP3    H235393   6.434   6.609  16.149  0.7602 -1.6429  0.5664
 4660TIP3   OH235394   4.383   4.974   1.506  0.1072  0.2357 -0.2685
 4660TIP3    H135395   4.424   4.900   1.461 -0.6244  0.3246 -1.1052
 4660TIP3    H235396   4.435   4.985   1.585  1.4527  0.0904 -1.0940
 4661TIP3   OH235397   3.664   4.712  10.873  0.3241  0.2426 -0.0124
 4661TIP3    H135398   3.636   4.688  10.784  1.1116  0.7853 -0.4122
 4661TIP3    H235399   3.740   4.657  10.890 -0.9596 -1.2576  1.0932
 4662TIP3   OH235400   4.548   2.840  15.415 -0.2378  0.5366 -0.0549
 4662TIP3    H135401   4.528   2.772  15.351 -0.5688  0.8388 -0.2741
 4662TIP3    H235402   4.626   2.884  15.381  0.0366  0.2024  0.1394
 4663TIP3   OH235403   0.129   2.386   2.296 -0.5982 -0.3531 -0.6956
 4663TIP3    H135404   0.037   2.360   2.306 -0.1918 -1.2055  1.3094
 4663TIP3    H235405   0.178   2.319   2.343  0.9755  0.7927 -0.6332
 4664TIP3   OH235406   0.098   5.562  16.032 -0.4129  0.0045  0.3419
 4664TIP3    H135407   0.147   5.607  16.100  0.6286 -0.6912  0.0701
 4664TIP3    H235408   0.134   5.594  15.950 -1.4826  0.6389  0.0918
 4665TIP3   OH235409   0.151   5.897  16.854 -0.1665  1.0676 -0.1483
 4665TIP3    H135410   0.142   5.802  16.854 -1.0602  1.1126 -1.7128
 4665TIP3    H235411   0.117   5.924  16.940  1.4439 -0.0887  0.9108
 4666TIP3   OH235412   1.334   3.296   2.658 -0.6678  0.1406 -0.0553
 4666TIP3    H135413   1.289   3.361   2.711  0.0146  1.9376 -1.5736
 4666TIP3    H235414   1.349   3.339   2.574  1.2651 -1.4030 -0.5827
 4667TIP3   OH235415   1.951   3.494   1.713 -0.5245 -0.7392 -0.4240
 4667TIP3    H135416   1.861   3.468   1.693 -1.3199 -0.1342  2.0217
 4667TIP3    H235417   1.960   3.480   1.807  1.7007 -0.0239 -0.4698
 4668TIP3   OH235418   4.365   3.732   6.543  0.0609 -0.2412  0.1862
 4668TIP3    H135419   4.304   3.671   6.584 -0.2082  0.4933  0.8790
 4668TIP3    H235420   4.330   3.743   6.454 -1.8705  1.5419  1.0909
 4669TIP3   OH235421   4.529   5.737  14.749 -0.6778 -0.0656  0.6310
 4669TIP3    H135422   4.471   5.795  14.799 -0.3069 -0.5942  1.7039
 4669TIP3    H235423   4.471   5.669  14.715 -0.9333  0.2857  0.3582
 4670TIP3   OH235424   1.861   0.761   3.189  0.2151  0.0928  0.3544
 4670TIP3    H135425   1.899   0.849   3.194  0.7635 -0.0936 -0.4397
 4670TIP3    H235426   1.790   0.763   3.253 -0.8385  1.6438 -0.7764
 4671TIP3   OH235427   4.055   6.398  15.249 -0.4369  0.2678  0.1210
 4671TIP3    H135428   4.072   6.492  15.261 -0.0043  0.3645 -1.1395
 4671TIP3    H235429   4.002   6.393  15.170 -0.8828 -0.5332  0.4582
 4672TIP3   OH235430   2.400   6.066   2.010 -0.4704 -0.2445 -0.3311
 4672TIP3    H135431   2.401   6.036   2.101 -0.8333 -0.2663 -0.3324
 4672TIP3    H235432   2.372   6.157   2.015  2.4631  0.7365 -0.1540
 4673TIP3   OH235433   0.528   1.740   5.200 -0.2560  0.9215 -0.0936
 4673TIP3    H135434   0.585   1.676   5.155 -2.6152 -0.7833 -0.8579
 4673TIP3    H235435   0.563   1.744   5.289  0.5280 -0.7507 -0.2848
 4674TIP3   OH235436   3.750   4.274   0.155 -0.1771  0.1327 -0.0625
 4674TIP3    H135437   3.690   4.201   0.143  0.7346 -0.5699 -0.4091
 4674TIP3    H235438   3.783   4.292   0.067  1.5125 -0.6924  0.3840
 4675TIP3   OH235439   6.079   0.333  13.740 -0.1944  0.1508  0.0005
 4675TIP3    H135440   6.070   0.420  13.701 -0.7329  0.8791  1.7019
 4675TIP3    H235441   6.016   0.331  13.811  2.3506 -0.2554  2.4083
 4676TIP3   OH235442   6.694   2.963  16.810 -0.5351 -0.7881  0.3350
 4676TIP3    H135443   6.621   2.909  16.841 -0.5613 -0.5172  0.7468
 4676TIP3    H235444   6.713   3.022  16.883 -2.5154  1.9115 -1.1468
 4677TIP3   OH235445   3.371   1.312  12.035 -0.0936 -0.4838 -0.3119
 4677TIP3    H135446   3.404   1.366  12.107 -1.2047 -0.1826  0.0043
 4677TIP3    H235447   3.446   1.261  12.006  1.0233  1.2333 -0.6224
 4678TIP3   OH235448   5.125   2.935   2.059  0.2503  0.4791 -0.2829
 4678TIP3    H135449   5.192   2.866   2.057  0.5644  0.7851 -0.4901
 4678TIP3    H235450   5.175   3.017   2.053  0.0187  0.8237  1.7047
 4679TIP3   OH235451   4.133   6.168  11.998  0.3001 -0.0324  0.2204
 4679TIP3    H135452   4.144   6.114  11.920 -0.4509 -0.4521  0.3947
 4679TIP3    H235453   4.039   6.190  11.999  0.8414  2.7193 -0.7856
 4680TIP3   OH235454   2.335   4.343  13.558 -0.0180 -0.8778 -0.0757
 4680TIP3    H135455   2.319   4.390  13.476 -0.1095 -0.6549  0.0701
 4680TIP3    H235456   2.257   4.289  13.571 -0.2367 -0.5107  0.1409
 4681TIP3   OH235457   5.741   2.743  13.532  0.1242 -0.4998 -0.3734
 4681TIP3    H135458   5.805   2.813  13.516  0.4139 -0.7691 -0.4064
 4681TIP3    H235459   5.663   2.771  13.485  0.2091 -0.1510 -0.3105
 4682TIP3   OH235460   1.915   3.212   1.539 -0.0013  0.5917 -0.1664
 4682TIP3    H135461   1.830   3.250   1.562  0.0949 -0.4919  2.2549
 4682TIP3    H235462   1.963   3.208   1.622  1.9040 -0.0970 -1.2394
 4683TIP3   OH235463   4.001   4.949   0.373 -0.2677  1.0137  0.4065
 4683TIP3    H135464   4.037   4.861   0.388 -1.4363  0.3345 -0.6170
 4683TIP3    H235465   4.062   4.989   0.311 -1.2247 -0.1682 -1.3954
 4684TIP3   OH235466   2.079   1.799  16.028  0.3429 -0.0406 -0.0785
 4684TIP3    H135467   2.101   1.790  15.936  1.3675 -1.9863  0.2905
 4684TIP3    H235468   2.062   1.892  16.041  2.1663  0.5772 -1.8057
 4685TIP3   OH235469   2.540   6.695   2.638 -0.2538  0.0057  0.3065
 4685TIP3    H135470   2.602   6.766   2.622 -1.6067  1.2050  0.1349
 4685TIP3    H235471   2.569   6.624   2.581 -0.0057  1.1402 -1.0325
 4686TIP3   OH235472   2.425   2.228  11.705  0.3753  0.1921 -0.0766
 4686TIP3    H135473   2.421   2.276  11.622 -1.5913 -0.4160 -0.3889
 4686TIP3    H235474   2.483   2.153  11.687  0.1875  0.2207 -0.8073
 4687TIP3   OH235475   1.027   0.800  13.266  0.4254 -0.5947  0.6864
 4687TIP3    H135476   1.000   0.890  13.285  0.0158 -0.6759  0.5017
 4687TIP3    H235477   1.121   0.805  13.254  0.2370  0.0382 -0.6313
 4688TIP3   OH235478   6.447   0.777  11.997  0.0510 -0.1607 -0.0578
 4688TIP3    H135479   6.413   0.842  12.058 -0.5697 -1.6314  1.2196
 4688TIP3    H235480   6.371   0.750  11.946  0.0217 -0.8103  0.3146
 4689TIP3   OH235481   3.760   2.609   4.964 -0.4199  0.5580  0.1990
 4689TIP3    H135482   3.837   2.608   5.022 -0.9465  1.5631  0.9529
 4689TIP3    H235483   3.797   2.605   4.876  0.5446  1.4733  0.5283
 4690TIP3   OH235484   5.170   4.881   6.477 -0.6643 -0.3490 -0.0492
 4690TIP3    H135485   5.254   4.925   6.488 -1.1787  0.9726 -1.1387
 4690TIP3    H235486   5.192   4.787   6.474  0.4170 -0.2489  2.6631
 4691TIP3   OH235487   3.152   5.715  15.581 -0.0699  0.3378 -0.2450
 4691TIP3    H135488   3.198   5.641  15.541 -0.3418  0.3579 -0.5981
 4691TIP3    H235489   3.217   5.755  15.638  0.3128  0.2791 -0.6329
 4692TIP3   OH235490   4.167   2.889   4.227  0.3508  0.4028 -0.0020
 4692TIP3    H135491   4.128   2.865   4.143 -1.0338  0.7023  0.5208
 4692TIP3    H235492   4.182   2.984   4.220 -0.0217  0.4764  0.1831
 4693TIP3   OH235493   1.897   1.136   5.439 -0.2941  0.2084 -0.4920
 4693TIP3    H135494   1.968   1.097   5.489 -2.0220 -0.1288  1.8728
 4693TIP3    H235495   1.871   1.213   5.490 -3.3330 -1.1695  0.2708
 4694TIP3   OH235496   6.161   3.286  11.859 -0.3226  0.4104 -0.3346
 4694TIP3    H135497   6.186   3.337  11.782  0.7564  1.4910  0.6951
 4694TIP3    H235498   6.157   3.196  11.827  1.8463  0.5866 -1.2999
 4695TIP3   OH235499   1.958   5.897   2.860  0.1393 -0.1631 -0.3739
 4695TIP3    H135500   1.908   5.866   2.784  1.6418 -0.9751 -1.0727
 4695TIP3    H235501   1.896   5.893   2.933 -1.1284 -0.0683 -1.4029
 4696TIP3   OH235502   5.439   3.992  12.470 -0.2243  0.0860 -0.5931
 4696TIP3    H135503   5.383   3.925  12.432 -1.1821 -0.3669  1.4619
 4696TIP3    H235504   5.386   4.072  12.467 -0.5729 -0.1023  0.3749
 4697TIP3   OH235505   2.214   0.746  15.468 -0.3115  0.4044  0.0756
 4697TIP3    H135506   2.176   0.832  15.446 -0.5032 -0.0956 -1.7075
 4697TIP3    H235507   2.144   0.701  15.515 -0.9120  0.5424 -0.6631
 4698TIP3   OH235508   0.639   5.867  15.138 -0.0925  0.5207 -0.3494
 4698TIP3    H135509   0.686   5.895  15.060  2.5375  0.2785  1.0323
 4698TIP3    H235510   0.705   5.822  15.191 -2.1500 -0.7439  1.3158
 4699TIP3   OH235511   3.609   6.595   5.549 -0.4052 -0.1704  0.2029
 4699TIP3    H135512   3.687   6.651   5.550  0.0600 -0.8009  1.7229
 4699TIP3    H235513   3.542   6.648   5.591 -0.0640 -0.5739  1.3001
 4700TIP3   OH235514   0.608   6.701   1.145 -0.1755  0.2834 -0.7184
 4700TIP3    H135515   0.671   6.695   1.217  0.3822  0.9662 -1.1317
 4700TIP3    H235516   0.522   6.708   1.189 -0.0511 -1.2289 -0.1575
 4701TIP3   OH235517   6.409   1.165   0.013  0.6102 -0.3591  0.5693
 4701TIP3    H135518   6.497   1.141  -0.017 -0.6107 -1.0584 -2.8970
 4701TIP3    H235519   6.391   1.248  -0.031 -0.8399 -0.7653  0.3531
 4702TIP3   OH235520   3.605   2.611  14.569 -0.1678 -0.1608 -0.0709
 4702TIP3    H135521   3.572   2.691  14.528 -0.5156 -0.3908 -0.2461
 4702TIP3    H235522   3.700   2.625  14.576  0.0717 -0.5367 -1.9573
 4703TIP3   OH235523   0.685   4.381  13.669  0.1929 -0.1302 -0.0730
 4703TIP3    H135524   0.645   4.334  13.743  0.9289 -0.6673 -0.0087
 4703TIP3    H235525   0.678   4.319  13.596 -0.1197  0.2221 -0.3438
 4704TIP3   OH235526   5.457   0.159   2.470 -0.1780  0.0200  0.3458
 4704TIP3    H135527   5.466   0.122   2.382 -0.0699 -0.6226  0.6171
 4704TIP3    H235528   5.526   0.117   2.521  0.1303  0.8268  0.6000
 4705TIP3   OH235529   3.068   3.594   1.511 -0.2662  0.0923 -0.0894
 4705TIP3    H135530   2.976   3.571   1.498  0.2771 -2.3259 -0.1285
 4705TIP3    H235531   3.115   3.511   1.503  1.8559  1.1409  0.6776
 4706TIP3   OH235532   5.963   1.944  13.545 -0.3811  0.1461 -0.1577
 4706TIP3    H135533   5.906   1.904  13.611 -1.1180  0.8611 -0.3346
 4706TIP3    H235534   5.947   2.038  13.554  1.4786  0.4306  0.4007
 4707TIP3   OH235535   4.400   2.185  16.878 -0.4282 -0.2811  0.2273
 4707TIP3    H135536   4.380   2.177  16.785  0.0228 -0.7804  0.1648
 4707TIP3    H235537   4.395   2.279  16.897 -1.6718 -0.2778 -0.0299
 4708TIP3   OH235538   1.334   3.094  11.671  0.2402  0.1411 -0.2492
 4708TIP3    H135539   1.420   3.053  11.674 -0.2432 -0.8636  0.5522
 4708TIP3    H235540   1.331   3.139  11.586  0.7792 -1.5548 -1.2107
 4709TIP3   OH235541   2.169   4.548   5.918 -0.1236 -0.1415 -0.5171
 4709TIP3    H135542   2.110   4.480   5.886 -1.7139  1.2708 -0.7348
 4709TIP3    H235543   2.111   4.614   5.956  1.4046  0.7902  0.2886
 4710TIP3   OH235544   0.716   2.002   1.772 -0.2003  0.3280 -0.1349
 4710TIP3    H135545   0.628   1.978   1.799  0.3912 -0.4720  1.1951
 4710TIP3    H235546   0.736   1.945   1.698 -0.8187  0.5748 -0.4984
 4711TIP3   OH235547   3.011   4.795   4.483  0.9205 -0.2189  0.3036
 4711TIP3    H135548   3.047   4.845   4.409  1.2571 -0.6195  0.1947
 4711TIP3    H235549   2.984   4.862   4.546  1.4944  0.0990  0.2188
 4712TIP3   OH235550   0.992   3.104   5.287 -0.1245  0.0559  0.7368
 4712TIP3    H135551   0.999   3.020   5.333 -1.3095 -0.5754 -0.1915
 4712TIP3    H235552   1.062   3.101   5.222 -0.7462 -0.6375  0.0795
 4713TIP3   OH235553   5.588   5.352  11.575  0.0035  0.1263 -0.0724
 4713TIP3    H135554   5.649   5.340  11.503  1.1181 -0.1453  0.8784
 4713TIP3    H235555   5.625   5.424  11.626 -1.6651  1.4600 -0.6537
 4714TIP3   OH235556   4.627   3.035   0.899 -0.5735 -0.1949 -0.1940
 4714TIP3    H135557   4.535   3.047   0.923 -0.6738  0.7252 -0.9951
 4714TIP3    H235558   4.675   3.052   0.979 -1.1687 -2.3005  0.6683
 4715TIP3   OH235559   4.197   6.598  14.159  0.0317 -0.0496  0.0041
 4715TIP3    H135560   4.256   6.649  14.104 -1.5477  0.8364 -0.9195
 4715TIP3    H235561   4.169   6.525  14.103 -2.3311  1.3796 -0.7883
 4716TIP3   OH235562   5.713   0.709   5.995 -0.9593 -0.3748 -0.0520
 4716TIP3    H135563   5.767   0.777   5.955 -0.0887 -0.1791  1.3697
 4716TIP3    H235564   5.664   0.755   6.063 -0.0453 -1.2010  1.2104
 4717TIP3   OH235565   3.479   0.272   0.082 -0.0966  0.2049 -0.0905
 4717TIP3    H135566   3.394   0.270   0.037 -1.1256  0.8452  1.7126
 4717TIP3    H235567   3.543   0.253   0.013 -1.3702  3.0967 -2.2603
 4718TIP3   OH235568   0.905   1.297   0.423 -0.0174  0.0318 -0.0589
 4718TIP3    H135569   0.863   1.225   0.469 -1.7025  0.7337 -0.4346
 4718TIP3    H235570   0.881   1.375   0.473  1.4085  0.4106  0.0869
 4719TIP3   OH235571   0.320   4.979   2.492 -0.0929 -0.3653  0.1363
 4719TIP3    H135572   0.226   4.969   2.505 -0.0545 -1.5477 -0.4323
 4719TIP3    H235573   0.360   4.906   2.539  0.5474  0.0977  0.3344
 4720TIP3   OH235574   2.335   3.748   0.463  0.0539 -0.1190 -0.3412
 4720TIP3    H135575   2.244   3.723   0.475  0.4010 -1.3850 -0.2079
 4720TIP3    H235576   2.382   3.706   0.536  0.4732  2.2934  0.8718
 4721TIP3   OH235577   0.422   6.019   5.421  0.0923 -0.4920  0.0474
 4721TIP3    H135578   0.509   6.058   5.432 -0.0133 -0.4493  0.8440
 4721TIP3    H235579   0.363   6.093   5.409 -0.0343 -0.4226  1.0231
 4722TIP3   OH235580   5.714   1.994   5.237  0.6147 -0.2095 -0.4776
 4722TIP3    H135581   5.722   1.950   5.321 -1.0279 -2.0481 -1.2173
 4722TIP3    H235582   5.660   2.071   5.255  2.1548  0.6728  0.5281
 4723TIP3   OH235583   0.143   5.143  14.456  0.2597 -0.7501 -0.4076
 4723TIP3    H135584   0.062   5.092  14.445 -0.9228  1.3062 -1.8483
 4723TIP3    H235585   0.164   5.173  14.368  1.4135  0.4943  0.2607
 4724TIP3   OH235586   1.932   4.319   3.862 -0.3345 -0.0908 -0.4896
 4724TIP3    H135587   1.908   4.395   3.915  0.9692  0.2627 -0.3743
 4724TIP3    H235588   2.024   4.302   3.884 -0.6003 -1.7313 -0.4716
 4725TIP3   OH235589   4.926   2.501   5.399  0.7932  0.1143  0.0447
 4725TIP3    H135590   4.930   2.580   5.345  4.0815  0.6391  0.8547
 4725TIP3    H235591   4.994   2.444   5.363 -1.1929 -2.2809 -0.2443
 4726TIP3   OH235592   5.234   0.733   5.523 -0.0578  0.1524 -0.3714
 4726TIP3    H135593   5.293   0.660   5.506 -1.1223 -0.5326 -1.2209
 4726TIP3    H235594   5.226   0.735   5.619 -0.6238 -1.3649 -0.3568
 4727TIP3   OH235595   4.382   3.399   2.341  0.8157  0.1685  0.1374
 4727TIP3    H135596   4.292   3.365   2.337  0.0240  2.2547 -1.4306
 4727TIP3    H235597   4.437   3.324   2.320 -0.7008 -0.6622 -1.0438
 4728TIP3   OH235598   3.518   3.896  12.933 -0.4325  0.0093  0.6133
 4728TIP3    H135599   3.468   3.963  12.887  1.8071 -0.2662 -2.6072
 4728TIP3    H235600   3.463   3.818  12.930 -0.9949  0.4226 -0.3216
 4729TIP3   OH235601   6.104   0.905  12.144 -0.1104 -0.0036  0.1630
 4729TIP3    H135602   6.155   0.977  12.105  1.2338  0.7730  3.1081
 4729TIP3    H235603   6.166   0.860  12.201 -2.1284 -0.5715  2.0244
 4730TIP3   OH235604   6.226   4.627  13.333  0.4514 -0.4365 -0.1711
 4730TIP3    H135605   6.259   4.717  13.333  0.2229 -0.3078 -2.0898
 4730TIP3    H235606   6.208   4.608  13.425  0.8553  1.3428  0.3172
 4731TIP3   OH235607   0.203   2.256   0.370 -0.3509 -0.7454 -0.2239
 4731TIP3    H135608   0.198   2.232   0.463  0.5652 -1.7114 -0.4118
 4731TIP3    H235609   0.242   2.180   0.327  1.9529  0.7460 -0.9696
 4732TIP3   OH235610   5.857   4.302  10.483 -0.0435 -0.3351  0.1446
 4732TIP3    H135611   5.877   4.208  10.481 -0.7663 -0.5231  1.1711
 4732TIP3    H235612   5.775   4.310  10.434  0.4944 -0.0885 -0.7521
 4733TIP3   OH235613   1.855   0.208   0.378 -0.5076  0.1400 -0.2437
 4733TIP3    H135614   1.896   0.154   0.310 -1.3981 -0.7343 -0.1240
 4733TIP3    H235615   1.873   0.298   0.352  0.7768 -0.1992 -0.6097
 4734TIP3   OH235616   6.082   2.491  15.418 -0.4489 -0.2507  0.2997
 4734TIP3    H135617   6.121   2.544  15.349  0.2553 -1.6718 -0.4350
 4734TIP3    H235618   6.148   2.488  15.487 -1.2728  1.4232  1.2138
 4735TIP3   OH235619   0.274   5.694   2.631  0.3293 -0.2362 -0.1081
 4735TIP3    H135620   0.227   5.766   2.673  1.6096 -0.1847  1.3442
 4735TIP3    H235621   0.311   5.732   2.552 -0.1605  0.3196 -0.0788
 4736TIP3   OH235622   1.076   0.392   3.296  0.2681 -0.1718 -0.3593
 4736TIP3    H135623   1.052   0.376   3.388  0.1993 -0.6536 -0.4548
 4736TIP3    H235624   0.992   0.401   3.251  0.2351 -1.6982 -0.6664
 4737TIP3   OH235625   6.521   6.400  10.758  0.0051  0.4146  0.2738
 4737TIP3    H135626   6.549   6.413  10.849  0.2791  0.9061  0.1206
 4737TIP3    H235627   6.574   6.461  10.707 -1.7706  1.8533  0.0520
 4738TIP3   OH235628   6.485   3.915   1.435 -0.1320 -0.2828 -0.5580
 4738TIP3    H135629   6.567   3.963   1.451  0.6448 -1.7867  0.2712
 4738TIP3    H235630   6.445   3.907   1.522 -0.9285  0.0227 -0.8885
 4739TIP3   OH235631   0.119   3.664   3.500 -0.2224  0.3544  0.0089
 4739TIP3    H135632   0.206   3.637   3.470 -0.1286  1.7162 -1.0494
 4739TIP3    H235633   0.060   3.599   3.462  0.1444  0.6703 -1.1665
 4740TIP3   OH235634   1.438   2.386   5.621 -0.4059 -0.5342  0.1342
 4740TIP3    H135635   1.528   2.384   5.653 -0.7520  1.0428  1.3059
 4740TIP3    H235636   1.422   2.297   5.588  1.9013 -0.5672 -1.0671
 4741TIP3   OH235637   6.756   3.371  11.651  0.0277  0.3646 -0.2303
 4741TIP3    H135638   6.766   3.336  11.562 -1.4244 -2.0353  0.4727
 4741TIP3    H235639   6.663   3.394  11.656  0.3010  1.4012  0.4006
 4742TIP3   OH235640   1.840   6.253   0.670  0.2030 -0.4343 -0.3228
 4742TIP3    H135641   1.758   6.211   0.644 -0.2229  0.3385 -0.2620
 4742TIP3    H235642   1.813   6.321   0.733  0.6207  1.3914 -2.0307
 4743TIP3   OH235643   0.877   0.343   5.543 -0.1234  0.0442  0.1704
 4743TIP3    H135644   0.822   0.291   5.484 -0.9815  1.1598 -0.0422
 4743TIP3    H235645   0.878   0.431   5.504 -0.2020  0.6502  1.4951
 4744TIP3   OH235646   2.594   1.560  14.289 -0.5761  0.4524  0.0518
 4744TIP3    H135647   2.515   1.571  14.342 -0.4399 -0.8158  0.5552
 4744TIP3    H235648   2.635   1.647  14.289 -1.4736  0.8914  0.5737
 4745TIP3   OH235649   6.002   3.609   0.690  0.0082  0.2158 -0.3720
 4745TIP3    H135650   5.944   3.627   0.616 -1.4963  1.2332  0.9696
 4745TIP3    H235651   6.048   3.529   0.666 -2.2933 -0.9203 -1.3517
 4746TIP3   OH235652   1.754   5.811  12.579 -0.2251  0.3041 -0.5924
 4746TIP3    H135653   1.729   5.764  12.658  3.1127  1.5401  1.3874
 4746TIP3    H235654   1.721   5.900  12.592  0.1390  0.4553 -0.6960
 4747TIP3   OH235655   0.668   4.620   3.684  0.5251  0.1285 -0.6097
 4747TIP3    H135656   0.676   4.543   3.741 -3.6446  0.3196  0.6032
 4747TIP3    H235657   0.636   4.585   3.601  0.5261  0.3985 -0.7248
 4748TIP3   OH235658   2.300   5.161   3.614 -0.0490 -0.8991  0.3630
 4748TIP3    H135659   2.304   5.112   3.532  1.4823  1.2326 -0.9406
 4748TIP3    H235660   2.391   5.176   3.638 -0.4597  0.3832  1.2544
 4749TIP3   OH235661   2.030   1.524  11.968  0.2896  0.8336 -0.0449
 4749TIP3    H135662   2.108   1.490  12.010 -0.5791  1.2050  1.9920
 4749TIP3    H235663   2.050   1.616  11.950  0.6880  0.6562 -0.5333
 4750TIP3   OH235664   0.914   4.036   5.090  0.1091 -0.3209 -0.1341
 4750TIP3    H135665   0.944   4.089   5.016 -1.3524 -2.0082 -2.0659
 4750TIP3    H235666   0.829   4.073   5.113  0.9655  0.7908  1.4100
 4751TIP3   OH235667   1.570   0.534  10.892 -0.3110 -0.2307  0.6734
 4751TIP3    H135668   1.626   0.529  10.970  2.0020  0.8394 -0.8093
 4751TIP3    H235669   1.614   0.479  10.828 -1.6085 -0.2466 -0.2385
 4752TIP3   OH235670   5.748   5.716  16.870 -0.0091 -0.3496 -0.2358
 4752TIP3    H135671   5.821   5.663  16.899 -1.0350 -1.7967 -0.1828
 4752TIP3    H235672   5.699   5.660  16.810 -0.8217  0.7366 -0.6368
 4753TIP3   OH235673   4.837   3.738  14.250 -0.9888  0.7008 -0.0206
 4753TIP3    H135674   4.834   3.669  14.184  1.5479  1.2170 -0.7991
 4753TIP3    H235675   4.817   3.818  14.202 -0.0923  0.9567  0.0163
 4754TIP3   OH235676   4.140   2.700  16.462 -0.3213 -0.2456  0.1441
 4754TIP3    H135677   4.195   2.739  16.394  0.4336 -0.4533  0.6248
 4754TIP3    H235678   4.123   2.611  16.432  0.9589 -0.7123  0.7530
 4755TIP3   OH235679   5.325   5.816  16.436 -0.0394 -0.0882 -0.2750
 4755TIP3    H135680   5.266   5.806  16.511 -0.3144 -0.2969 -0.5187
 4755TIP3    H235681   5.278   5.874  16.376 -0.3072 -0.8224 -0.7857
 4756TIP3   OH235682   6.253   0.365   2.584 -0.2808 -0.2409  0.0696
 4756TIP3    H135683   6.312   0.394   2.654 -0.4892 -0.1525  0.2099
 4756TIP3    H235684   6.281   0.416   2.508 -1.3990  1.2517  0.5911
 4757TIP3   OH235685   1.775   4.001  11.565 -0.0824  0.2784  0.3188
 4757TIP3    H135686   1.810   4.090  11.563 -0.5717  0.5000  1.1473
 4757TIP3    H235687   1.698   4.004  11.509  1.2544 -0.2574 -1.6658
 4758TIP3   OH235688   1.819   0.071   4.355  0.0586  0.2390 -0.4745
 4758TIP3    H135689   1.741   0.030   4.320 -0.4081  1.0847 -0.4689
 4758TIP3    H235690   1.832   0.030   4.441  0.4305 -0.8780 -1.0493
 4759TIP3   OH235691   4.998   1.331  15.345  0.4902 -0.7296 -0.3161
 4759TIP3    H135692   5.029   1.375  15.266 -1.4252  0.7613 -0.3301
 4759TIP3    H235693   4.974   1.403  15.404 -0.0504 -1.7937  0.7962
 4760TIP3   OH235694   6.083   1.856  12.427 -0.0760 -0.6251 -0.2178
 4760TIP3    H135695   6.054   1.908  12.502 -1.3847  1.0924 -1.7797
 4760TIP3    H235696   6.175   1.838  12.444 -0.0582  0.6491  1.2862
 4761TIP3   OH235697   2.632   4.416  16.363 -0.1857 -0.1810 -0.4167
 4761TIP3    H135698   2.595   4.468  16.434 -0.3835 -1.2789  0.3095
 4761TIP3    H235699   2.701   4.365  16.405  0.6034  0.1357 -1.2942
 4762TIP3   OH235700   6.475   6.396   3.871 -0.0637 -0.0198  0.2177
 4762TIP3    H135701   6.525   6.356   3.942 -0.5584  0.0969  0.6356
 4762TIP3    H235702   6.518   6.364   3.791  0.5625 -0.0639  0.5646
 4763TIP3   OH235703   4.314   0.712   5.277 -0.3523  0.4198  0.7219
 4763TIP3    H135704   4.322   0.763   5.358  0.1875  2.4471 -0.5079
 4763TIP3    H235705   4.403   0.710   5.242 -0.4598 -1.0057  0.4882
 4764TIP3   OH235706   6.280   4.349   0.955  0.0068 -0.2390 -0.5374
 4764TIP3    H135707   6.231   4.391   1.026  0.5218 -1.2443  0.4554
 4764TIP3    H235708   6.354   4.408   0.940 -1.0962  0.9295 -1.5677
 4765TIP3   OH235709   6.435   5.251   2.571  0.4241 -0.2004 -0.0071
 4765TIP3    H135710   6.515   5.278   2.616  1.6628 -2.6264 -0.6014
 4765TIP3    H235711   6.405   5.175   2.621 -0.7579 -0.1424 -0.6098
 4766TIP3   OH235712   1.024   5.675  13.508  0.1399 -0.0142 -0.0148
 4766TIP3    H135713   1.067   5.746  13.460  0.7862 -0.8063 -0.6314
 4766TIP3    H235714   1.031   5.599  13.450 -3.7586  0.1860 -1.0598
 4767TIP3   OH235715   2.471   5.966  14.254 -0.2233  0.1291 -0.0210
 4767TIP3    H135716   2.470   6.048  14.304  2.4120  1.1967 -1.5143
 4767TIP3    H235717   2.516   5.904  14.312  0.3905  0.5788 -0.0083
 4768TIP3   OH235718   1.282   1.226  16.790  0.1124  0.1230  0.3509
 4768TIP3    H135719   1.313   1.138  16.766  0.5342  0.5079 -0.5920
 4768TIP3    H235720   1.256   1.218  16.881  2.0746 -0.4967  0.9183
 4769TIP3   OH235721   6.433   0.566  14.124  0.5048  0.7192 -0.4841
 4769TIP3    H135722   6.342   0.562  14.095  0.5401  2.1937 -0.8673
 4769TIP3    H235723   6.462   0.474  14.124 -0.8019  0.2845 -0.9037
 4770TIP3   OH235724   6.035   0.416  14.666 -0.2756  0.0416  0.3074
 4770TIP3    H135725   6.105   0.482  14.671  0.5449 -0.7513 -0.5691
 4770TIP3    H235726   6.069   0.341  14.715 -1.0321  0.0929  0.9348
 4771TIP3   OH235727   5.018   5.923   1.967 -0.3844 -0.0300  0.1045
 4771TIP3    H135728   4.926   5.944   1.948 -0.4491  0.7583  1.1872
 4771TIP3    H235729   5.052   5.887   1.886 -1.8363 -0.9566 -0.1277
 4772TIP3   OH235730   1.523   6.751   1.801  0.0604 -0.1841 -0.5256
 4772TIP3    H135731   1.598   6.701   1.834 -0.7801 -2.2762 -1.5762
 4772TIP3    H235732   1.501   6.811   1.872  2.4010  0.1663 -0.0007
 4773TIP3   OH235733   0.910   3.390  14.772 -0.2116  0.0562 -0.0623
 4773TIP3    H135734   0.966   3.457  14.734  0.9882 -0.0459  1.4178
 4773TIP3    H235735   0.848   3.367  14.702  0.9979  0.8414 -1.4439
 4774TIP3   OH235736   3.069   3.607   4.975  0.2465  0.4522 -0.2459
 4774TIP3    H135737   2.980   3.574   4.964 -0.1905  1.6977 -0.6125
 4774TIP3    H235738   3.072   3.638   5.065  0.6517 -0.5180  0.0925
 4775TIP3   OH235739   2.606   5.698   3.486 -0.2570  0.2385 -0.3255
 4775TIP3    H135740   2.572   5.612   3.462 -2.2408  0.4969  1.2710
 4775TIP3    H235741   2.639   5.687   3.575  1.3519  0.6723 -0.8506
 4776TIP3   OH235742   1.478   0.833  17.058 -0.1736  0.0282  0.4611
 4776TIP3    H135743   1.526   0.787  17.127  1.7658 -1.2425 -1.5924
 4776TIP3    H235744   1.506   0.924  17.066 -0.7869  0.1126  1.9616
 4777TIP3   OH235745   6.554   3.357   2.333 -0.2243 -0.1346  0.6199
 4777TIP3    H135746   6.628   3.368   2.393  0.5238 -0.5202 -0.2039
 4777TIP3    H235747   6.589   3.305   2.261 -1.1756  0.0803 -0.0222
 4778TIP3   OH235748   6.608   0.396  12.977  0.3474 -0.3847 -0.6363
 4778TIP3    H135749   6.667   0.471  12.984  0.6415 -0.5057 -1.6329
 4778TIP3    H235750   6.609   0.356  13.064  0.8087  0.2990 -0.3168
 4779TIP3   OH235751   6.648   6.221  11.458  0.1257  0.2740  0.2567
 4779TIP3    H135752   6.580   6.240  11.522 -1.9164 -3.2129 -0.5574
 4779TIP3    H235753   6.715   6.173  11.507  0.2937  0.6756  0.4210
 4780TIP3   OH235754   4.594   3.385   1.070 -0.4796  0.0167 -0.1127
 4780TIP3    H135755   4.507   3.370   1.032 -0.7738  1.3379 -0.0178
 4780TIP3    H235756   4.577   3.405   1.162  0.0072 -0.5631  0.1077
 4781TIP3   OH235757   1.329   2.639  12.509  0.0270  0.3543  0.4176
 4781TIP3    H135758   1.400   2.576  12.503  0.3038  0.6776  0.2488
 4781TIP3    H235759   1.368   2.722  12.480 -1.0471  0.0487 -2.1659
 4782TIP3   OH235760   0.895   4.546   0.357  0.0725 -0.7059  0.3345
 4782TIP3    H135761   0.952   4.499   0.418 -0.7049 -0.5606  1.2022
 4782TIP3    H235762   0.819   4.572   0.410 -0.9260 -1.1218 -0.8419
 4783TIP3   OH235763   4.112   6.290   2.867  0.0913 -0.1422 -0.3985
 4783TIP3    H135764   4.167   6.294   2.945 -0.7340 -1.2214  0.2664
 4783TIP3    H235765   4.031   6.249   2.897 -0.8302  0.8145 -1.5076
 4784TIP3   OH235766   5.695   0.968   5.496 -1.2296  0.4474 -0.3615
 4784TIP3    H135767   5.643   0.899   5.456 -0.2877 -0.0801 -0.7263
 4784TIP3    H235768   5.641   1.046   5.491 -1.2890  0.3245 -2.3734
 4785TIP3   OH235769   3.250   1.010   1.478  0.0852  0.0584  0.6726
 4785TIP3    H135770   3.286   1.010   1.390 -1.1595  0.2228  0.1494
 4785TIP3    H235771   3.293   0.936   1.521  0.2503 -0.4026 -0.2594
 4786TIP3   OH235772   3.579   1.592   0.533 -0.3886  0.2513 -0.3957
 4786TIP3    H135773   3.488   1.567   0.551 -1.0109  0.2474 -3.1094
 4786TIP3    H235774   3.602   1.650   0.605 -2.7459  0.6934  0.0913
 4787TIP3   OH235775   1.889   4.363   1.378  0.3933 -0.2796 -0.3975
 4787TIP3    H135776   1.942   4.331   1.305 -0.9837  1.8353 -2.5180
 4787TIP3    H235777   1.803   4.322   1.365 -0.5431  1.8092 -1.4822
 4788TIP3   OH235778   3.776   6.401  11.743  0.7213  0.1595 -0.2912
 4788TIP3    H135779   3.811   6.425  11.829  2.1713 -1.2544 -0.4261
 4788TIP3    H235780   3.683   6.423  11.748  0.9887  1.1023  1.2477
 4789TIP3   OH235781   3.150   2.325  11.571  0.0246 -0.8018 -0.3356
 4789TIP3    H135782   3.114   2.251  11.522  0.3773 -0.3515 -1.3099
 4789TIP3    H235783   3.117   2.403  11.525  0.8401 -0.3721 -0.2236
 4790TIP3   OH235784   5.048   1.101  15.540 -0.2373 -0.0639 -0.0976
 4790TIP3    H135785   4.986   1.173  15.531 -1.9298 -1.5394 -0.8329
 4790TIP3    H235786   5.087   1.092  15.453  0.5370  0.4140  0.1866
 4791TIP3   OH235787   2.356   6.056   4.807 -0.2420 -0.2414 -0.1072
 4791TIP3    H135788   2.394   5.995   4.870 -1.1469 -1.6309 -0.8413
 4791TIP3    H235789   2.263   6.060   4.832 -0.0776  1.3924  0.3361
 4792TIP3   OH235790   4.468   2.968   5.288 -0.7264  0.0706  0.3380
 4792TIP3    H135791   4.447   3.051   5.331 -0.0814  0.7308 -0.5939
 4792TIP3    H235792   4.557   2.949   5.316 -1.0288 -0.5454  0.8993
 4793TIP3   OH235793   4.008   6.055  15.658  0.2543 -0.2535 -0.7409
 4793TIP3    H135794   3.920   6.025  15.683 -0.7035  1.6041 -1.6490
 4793TIP3    H235795   4.045   6.091  15.738 -0.0139 -0.6030 -0.4597
 4794TIP3   OH235796   2.029   3.186   0.489  0.2480 -0.3486  0.1400
 4794TIP3    H135797   2.117   3.215   0.514  0.5567 -0.7171 -0.4796
 4794TIP3    H235798   2.014   3.227   0.403 -0.0700 -0.5151  0.1142
 4795TIP3   OH235799   3.861   2.395   4.234 -0.1830 -0.1627 -0.1307
 4795TIP3    H135800   3.828   2.307   4.217  0.0435 -0.2871  0.0633
 4795TIP3    H235801   3.784   2.451   4.231 -0.1341 -0.1384 -1.8005
 4796TIP3   OH235802   0.091   2.582   1.893  0.0420 -0.2638 -0.4019
 4796TIP3    H135803   0.171   2.604   1.939  1.1841  0.3032 -2.5245
 4796TIP3    H235804   0.097   2.487   1.878 -0.9731 -0.7152  1.6336
 4797TIP3   OH235805   3.264   5.792  16.659 -0.2771 -0.2867  0.0556
 4797TIP3    H135806   3.251   5.699  16.638  0.3537 -0.4608  0.4009
 4797TIP3    H235807   3.343   5.817  16.612 -1.6951  0.7201 -1.9041
 4798TIP3   OH235808   1.074   4.279  10.953  0.0837 -0.3170 -0.0422
 4798TIP3    H135809   0.991   4.313  10.985 -1.4617 -2.2182 -1.7985
 4798TIP3    H235810   1.097   4.336  10.879  1.3565  1.3030  1.5004
 4799TIP3   OH235811   1.304   4.553   1.640  0.8048  0.2178  0.0893
 4799TIP3    H135812   1.289   4.603   1.560 -0.3049  0.9165  0.6995
 4799TIP3    H235813   1.325   4.619   1.706 -1.2836  0.0198  1.0472
 4800TIP3   OH235814   4.545   3.776   4.458  0.0490 -0.1537 -0.2426
 4800TIP3    H135815   4.555   3.698   4.513 -0.8399  0.7072  1.1953
 4800TIP3    H235816   4.508   3.743   4.376  1.2876 -1.4530 -0.3225
 4801TIP3   OH235817   4.584   1.722  15.063 -0.0543  0.5880  0.1397
 4801TIP3    H135818   4.637   1.642  15.059  0.2082  0.7951 -0.7543
 4801TIP3    H235819   4.565   1.733  15.156 -1.1818 -1.2137  0.1872
 4802TIP3   OH235820   3.647   5.084  13.535  0.0397 -0.0841 -0.0460
 4802TIP3    H135821   3.709   5.046  13.473  0.5720 -0.8095  0.8857
 4802TIP3    H235822   3.645   5.021  13.608 -0.8868  0.5230  0.4759
 4803TIP3   OH235823   2.769   1.611  11.379  0.5905  0.0696 -0.0651
 4803TIP3    H135824   2.763   1.522  11.343  2.6458 -0.2693  0.2649
 4803TIP3    H235825   2.726   1.606  11.464 -0.6531 -0.2037 -0.6964
 4804TIP3   OH235826   1.023   2.998  15.921  0.1329 -0.0297 -0.2382
 4804TIP3    H135827   0.957   3.057  15.885  0.6900  0.3589 -0.6259
 4804TIP3    H235828   0.972   2.923  15.952 -0.4771  0.1659 -0.7290
 4805TIP3   OH235829   4.081   1.879   1.164  0.6972 -0.4934  0.0958
 4805TIP3    H135830   4.043   1.842   1.084  0.5260  0.3023 -0.2028
 4805TIP3    H235831   4.082   1.806   1.226 -1.1755 -0.6081  0.0574
 4806TIP3   OH235832   4.945   2.041   4.620 -0.1891 -0.3791 -0.0857
 4806TIP3    H135833   5.031   2.039   4.663  0.1511 -2.8594 -0.7204
 4806TIP3    H235834   4.885   2.002   4.684 -0.4776 -0.3567 -0.3404
 4807TIP3   OH235835   3.908   5.341  11.673 -0.1980 -0.2759 -0.1116
 4807TIP3    H135836   3.904   5.354  11.578 -1.4695 -0.8852 -0.1636
 4807TIP3    H235837   3.855   5.413  11.708 -1.8189 -1.4489 -0.0359
 4808TIP3   OH235838   2.621   0.077  17.063 -0.2007  0.1785 -0.0720
 4808TIP3    H135839   2.552   0.144  17.063  0.0487  0.4372  0.1691
 4808TIP3    H235840   2.697   0.121  17.102  0.0216 -0.1863 -0.0928
 4809TIP3   OH235841   3.183   4.758   2.640 -0.6175  0.0888 -0.1628
 4809TIP3    H135842   3.119   4.791   2.576  0.8047  0.8903 -1.2488
 4809TIP3    H235843   3.162   4.806   2.720 -2.0595 -0.4837 -0.1615
 4810TIP3   OH235844   3.504   5.670  16.555 -0.0938  0.2701  0.3046
 4810TIP3    H135845   3.579   5.617  16.582 -0.6678  0.0229  1.5084
 4810TIP3    H235846   3.433   5.607  16.544 -0.6369  0.7016  1.1924
 4811TIP3   OH235847   0.864   2.862  14.969 -0.5529 -0.0928  0.1343
 4811TIP3    H135848   0.837   2.891  15.056 -2.2325 -0.1473 -0.3197
 4811TIP3    H235849   0.900   2.940  14.927  1.3515 -0.3247  1.2260
 4812TIP3   OH235850   2.223   1.039   4.977  0.2948 -0.1703 -0.0942
 4812TIP3    H135851   2.161   1.088   5.030 -0.5284  1.0901 -2.0910
 4812TIP3    H235852   2.212   0.948   5.005 -1.6705  0.1612  0.3633
 4813TIP3   OH235853   5.755   1.593   3.632  0.1579 -0.0143  0.2690
 4813TIP3    H135854   5.767   1.557   3.720 -0.8282 -0.6716  0.1529
 4813TIP3    H235855   5.660   1.603   3.623  0.3037  0.8848 -0.3978
 4814TIP3   OH235856   6.046   5.412   4.883 -0.0179 -0.5016 -0.4938
 4814TIP3    H135857   6.127   5.457   4.858  0.0497  0.7710  1.7513
 4814TIP3    H235858   6.075   5.330   4.922  0.5084  1.0083  2.6075
 4815TIP3   OH235859   4.118   6.480   3.185 -0.1071  0.3056  0.6443
 4815TIP3    H135860   4.197   6.530   3.166  0.9174 -1.5976 -0.2791
 4815TIP3    H235861   4.048   6.546   3.185  1.2743  1.8440  0.2980
 4816TIP3   OH235862   1.404   2.182   0.432 -0.4714  0.4479 -0.5649
 4816TIP3    H135863   1.331   2.148   0.483 -0.2290  1.4272  0.4746
 4816TIP3    H235864   1.367   2.255   0.383 -0.1620  1.1219  0.1728
 4817TIP3   OH235865   5.029   4.994   4.541  0.3807  0.3088 -0.0028
 4817TIP3    H135866   4.945   4.954   4.567  1.6980 -1.2704  2.1841
 4817TIP3    H235867   5.062   4.937   4.472  0.5676 -0.2593  0.5496
 4818TIP3   OH235868   4.320   0.163  15.263 -0.0734 -0.1068 -0.5536
 4818TIP3    H135869   4.262   0.238  15.255  1.1416  0.7948 -1.1349
 4818TIP3    H235870   4.408   0.198  15.249  0.3778 -1.9754 -3.2450
 4819TIP3   OH235871   0.989   3.552  15.244  0.0654  0.3878 -0.6416
 4819TIP3    H135872   1.015   3.507  15.163  0.0813  1.9345 -1.5335
 4819TIP3    H235873   1.049   3.519  15.311 -0.3744 -1.4264 -1.0793
 4820TIP3   OH235874   0.220   2.496   1.198 -0.4117 -0.4430 -0.2943
 4820TIP3    H135875   0.187   2.420   1.151  0.1775 -0.5756 -0.5093
 4820TIP3    H235876   0.291   2.529   1.142 -1.9885  1.5058 -1.2744
 4821TIP3   OH235877   2.539   2.231  12.191 -0.7204  0.1443 -0.4428
 4821TIP3    H135878   2.581   2.144  12.193 -1.5462 -0.2674 -0.5716
 4821TIP3    H235879   2.495   2.234  12.106 -2.0300  0.0289  0.2077
 4822TIP3   OH235880   2.181   3.807  13.881 -0.1579  0.6421  0.5309
 4822TIP3    H135881   2.260   3.861  13.888  1.1254 -0.8862 -1.2015
 4822TIP3    H235882   2.128   3.851  13.815 -0.0447  0.8331  0.5658
 4823TIP3   OH235883   6.461   2.826   1.439 -0.5712  0.2114 -0.1156
 4823TIP3    H135884   6.490   2.826   1.347 -0.9614 -0.4483 -0.2440
 4823TIP3    H235885   6.511   2.755   1.479 -0.3811  0.5169  0.1936
 4824TIP3   OH235886   4.325   1.079  14.219  0.4697  0.3368 -0.3454
 4824TIP3    H135887   4.340   1.161  14.266 -1.6663  0.6462 -0.1137
 4824TIP3    H235888   4.412   1.039  14.213  1.3446  1.9487  0.7430
 4825TIP3   OH235889   5.799   2.849  16.237 -0.4064  0.0554  0.2604
 4825TIP3    H135890   5.715   2.894  16.241 -0.6314 -0.3473  0.0282
 4825TIP3    H235891   5.850   2.889  16.308 -1.0334 -0.1939  0.8724
 4826TIP3   OH235892   2.190   1.416  16.201 -0.3461 -0.1270 -0.5551
 4826TIP3    H135893   2.276   1.457  16.192  0.2866 -1.6500 -1.8896
 4826TIP3    H235894   2.149   1.462  16.275  2.3213 -0.6094  1.3539
 4827TIP3   OH235895   0.030   1.835   5.243 -0.1054  0.8565 -0.2476
 4827TIP3    H135896   0.100   1.790   5.196  1.8084  3.2642  0.0473
 4827TIP3    H235897   0.003   1.773   5.311 -1.2295 -1.7318 -2.8266
 4828TIP3   OH235898   0.532   1.718  15.122  0.1405  0.5482  0.2041
 4828TIP3    H135899   0.510   1.810  15.135 -0.7288  0.3662  0.1071
 4828TIP3    H235900   0.487   1.694  15.041 -0.6235 -0.2599  0.8444
 4829TIP3   OH235901   4.248   4.521  10.851 -0.0995 -0.3028 -0.4446
 4829TIP3    H135902   4.291   4.514  10.765 -1.5085  0.6402 -1.2658
 4829TIP3    H235903   4.158   4.491  10.835  0.4411 -3.4306  1.5125
 4830TIP3   OH235904   3.215   6.620   2.443  0.2023  0.2862 -0.3915
 4830TIP3    H135905   3.279   6.598   2.375  1.3274 -0.6393  0.9110
 4830TIP3    H235906   3.257   6.594   2.525 -1.5032  0.4882  0.5952
 4831TIP3   OH235907   1.028   1.380  15.663  0.4891  0.2500  0.8509
 4831TIP3    H135908   1.014   1.474  15.650  1.9379  0.4216  0.3299
 4831TIP3    H235909   1.007   1.340  15.579 -0.0972  0.1015  1.0629
 4832TIP3   OH235910   4.826   6.125  14.694 -0.1192  0.3725 -0.7193
 4832TIP3    H135911   4.761   6.134  14.624 -0.6501 -0.1953 -0.3127
 4832TIP3    H235912   4.799   6.046  14.741 -1.4843  2.2561  1.8929
 4833TIP3   OH235913   5.511   5.620  15.367  0.0052  0.1919 -0.4694
 4833TIP3    H135914   5.442   5.601  15.431  1.2571  2.0905  1.5951
 4833TIP3    H235915   5.556   5.536  15.355 -0.7883 -0.3934  0.4991
 4834TIP3   OH235916   3.151   1.997   6.118  0.5422  0.1599  0.3380
 4834TIP3    H135917   3.180   2.033   6.034 -0.4713 -0.6145 -0.3734
 4834TIP3    H235918   3.218   2.025   6.181  2.1789 -0.5719 -0.9954
 4835TIP3   OH235919   2.249   1.384   1.426  0.1009 -0.3669 -0.2085
 4835TIP3    H135920   2.240   1.331   1.347 -1.9248  2.9174 -2.4345
 4835TIP3    H235921   2.160   1.417   1.443  0.7360  0.1571  2.6665
 4836TIP3   OH235922   0.706   4.185  12.025 -0.5784 -0.6308  0.4536
 4836TIP3    H135923   0.665   4.137  11.953 -0.1711  0.1276 -0.3038
 4836TIP3    H235924   0.793   4.146  12.033  0.3806  1.0068 -1.2684
 4837TIP3   OH235925   0.916   6.242  15.591 -0.1164 -0.4239 -0.0098
 4837TIP3    H135926   0.915   6.324  15.640 -1.0734 -0.9896  0.9522
 4837TIP3    H235927   0.935   6.175  15.656 -1.1163 -1.1574 -0.4491
 4838TIP3   OH235928   5.446   3.318  13.907 -0.4605 -0.1042  0.3418
 4838TIP3    H135929   5.350   3.324  13.905 -0.7471 -2.3370  2.1514
 4838TIP3    H235930   5.471   3.367  13.985 -0.5310 -2.0234  1.6612
 4839TIP3   OH235931   0.162   3.583   1.132  0.1664  0.2113  0.2820
 4839TIP3    H135932   0.199   3.650   1.075 -2.0667  0.4368 -1.0089
 4839TIP3    H235933   0.193   3.500   1.094  1.4255  0.4206  0.7934
 4840TIP3   OH235934   0.767   6.019  11.949 -0.0030 -0.5253 -0.2147
 4840TIP3    H135935   0.789   5.955  12.017 -0.6630  0.8209  1.3271
 4840TIP3    H235936   0.682   5.990  11.916  0.2349 -1.0853 -0.3567
 4841TIP3   OH235937   5.944   6.238  15.211  0.2826 -0.8086 -0.1144
 4841TIP3    H135938   5.852   6.218  15.231 -0.8664  2.7699 -1.0968
 4841TIP3    H235939   5.953   6.221  15.117  0.2215  0.0784 -0.2868
 4842TIP3   OH235940   1.557   2.551  15.256  0.2492  0.0524  0.1615
 4842TIP3    H135941   1.570   2.584  15.167 -0.5640 -1.2642 -0.4736
 4842TIP3    H235942   1.593   2.619  15.312  0.7847  0.9093 -1.1735
 4843TIP3   OH235943   1.152   3.187   1.730  0.1050  0.0967 -0.5699
 4843TIP3    H135944   1.083   3.167   1.793 -0.6822  1.0435 -1.1000
 4843TIP3    H235945   1.118   3.153   1.647  1.9032 -2.7950 -0.2604
 4844TIP3   OH235946   1.442   5.251  16.791  0.5024  0.3744 -0.0104
 4844TIP3    H135947   1.411   5.189  16.857 -0.1961 -2.2269 -2.5845
 4844TIP3    H235948   1.364   5.272  16.739  0.9835  2.5866  0.0298
 4845TIP3   OH235949   6.160   4.435  14.510  0.0423 -0.3489 -0.1001
 4845TIP3    H135950   6.256   4.442  14.506  0.0021 -0.2627 -0.9304
 4845TIP3    H235951   6.131   4.524  14.530  0.1284 -0.3831  0.1965
 4846TIP3   OH235952   0.590   2.496  15.449 -0.8634  0.1090 -0.1261
 4846TIP3    H135953   0.600   2.515  15.356  2.1787 -1.1667 -0.1894
 4846TIP3    H235954   0.655   2.552  15.492  0.2300 -1.7602  0.8015
 4847TIP3   OH235955   1.958   0.701   1.538 -0.2629 -0.1220  0.5991
 4847TIP3    H135956   1.973   0.679   1.629 -0.8548  2.0385  1.2778
 4847TIP3    H235957   1.999   0.630   1.489  3.4947  0.5195  2.4602
 4848TIP3   OH235958   6.721   4.196   0.440 -0.1086  0.1947 -0.0224
 4848TIP3    H135959   6.776   4.238   0.374  0.2166 -0.7507 -0.3632
 4848TIP3    H235960   6.662   4.141   0.389 -1.1439  0.9094  0.3609
 4849TIP3   OH235961   3.609   2.297  11.326  0.0999 -0.1277 -0.2305
 4849TIP3    H135962   3.663   2.256  11.258  0.5152 -0.7576  0.4660
 4849TIP3    H235963   3.554   2.226  11.360  0.2257  0.0703  0.4108
 4850TIP3   OH235964   4.033   3.053  12.750 -0.1602 -0.6480  0.0792
 4850TIP3    H135965   3.997   3.060  12.838  1.3490  0.9425  0.6248
 4850TIP3    H235966   4.124   3.024  12.763 -0.6304 -2.9392 -1.1516
 4851TIP3   OH235967   2.699   5.513   4.115  0.3619 -0.0559 -0.2502
 4851TIP3    H135968   2.728   5.600   4.087  0.3389  0.0779  0.1467
 4851TIP3    H235969   2.777   5.471   4.150  0.3163 -0.1009 -0.2011
 4852TIP3   OH235970   1.479   6.502  14.186 -0.2560  0.1460  0.0674
 4852TIP3    H135971   1.485   6.527  14.094 -1.1304 -0.2732 -0.1168
 4852TIP3    H235972   1.475   6.586  14.233  1.9160  0.3917 -0.1092
 4853TIP3   OH235973   0.229   3.666  13.257  0.1694  0.2656  0.3535
 4853TIP3    H135974   0.273   3.581  13.250  0.8029  0.6026  0.2533
 4853TIP3    H235975   0.148   3.646  13.305  0.6442 -0.2706  0.9584
 4854TIP3   OH235976   1.682   6.587  16.541  0.0234 -0.5188 -0.3507
 4854TIP3    H135977   1.671   6.531  16.617 -2.4065 -0.3561 -0.5064
 4854TIP3    H235978   1.614   6.654  16.550  0.5384  0.2771 -1.9868
 4855TIP3   OH235979   1.273   5.592  11.903  0.2929  0.6444  0.1683
 4855TIP3    H135980   1.314   5.669  11.942 -0.8310  1.1710  0.3638
 4855TIP3    H235981   1.246   5.620  11.816 -2.1165  1.2312  1.0209
 4856TIP3   OH235982   0.446   6.426  13.882  0.1531  0.9479 -0.0479
 4856TIP3    H135983   0.352   6.408  13.882  0.1218  0.8432 -2.2665
 4856TIP3    H235984   0.484   6.352  13.930 -0.7771  0.1205 -0.5458
 4857TIP3   OH235985   5.621   4.473  14.267  0.0706 -0.4398 -0.0315
 4857TIP3    H135986   5.648   4.409  14.332 -0.5369  0.5532  1.2489
 4857TIP3    H235987   5.565   4.534  14.315  0.1430  0.7063 -1.3338
 4858TIP3   OH235988   3.539   0.351   5.224 -0.7474 -0.0145 -0.2184
 4858TIP3    H135989   3.583   0.393   5.298 -1.6842 -0.6272  0.7135
 4858TIP3    H235990   3.452   0.329   5.256 -0.9187 -0.9963 -1.2542
 4859TIP3   OH235991   3.027   2.163  12.460 -0.7265  0.0526 -0.6618
 4859TIP3    H135992   3.029   2.220  12.383 -1.5151  1.7823  0.5324
 4859TIP3    H235993   3.115   2.169  12.497 -0.7929  0.4905 -0.5654
 4860TIP3   OH235994   0.876   0.356  16.859 -0.2057 -0.0745  0.0515
 4860TIP3    H135995   0.822   0.362  16.780  1.3058  0.3970 -0.9830
 4860TIP3    H235996   0.942   0.290  16.838 -1.0392 -1.5612  1.7472
 4861TIP3   OH235997   2.797   5.873  10.681 -0.2887 -0.2518 -0.3507
 4861TIP3    H135998   2.837   5.819  10.750 -0.3352  1.9368  1.4983
 4861TIP3    H235999   2.703   5.860  10.692 -0.3620 -3.4241 -3.0772
 4862TIP3   OH236000   2.946   3.109   2.807 -0.0437  0.2749  0.5942
 4862TIP3    H136001   3.024   3.160   2.829 -0.4855  0.7277  1.1256
 4862TIP3    H236002   2.957   3.088   2.714  0.9875 -0.1565  0.7895
 4863TIP3   OH236003   1.439   4.219   3.794 -0.0681 -0.3388  0.2218
 4863TIP3    H136004   1.396   4.304   3.798  1.4340  0.4752 -0.1446
 4863TIP3    H236005   1.441   4.197   3.701  0.4454 -0.2842  0.2163
 4864TIP3   OH236006   6.213   0.934   6.424 -0.1350  0.7410 -0.1993
 4864TIP3    H136007   6.160   0.937   6.344 -0.1688  0.0666 -0.2042
 4864TIP3    H236008   6.196   0.848   6.462  0.5071  0.7404  0.1054
 4865TIP3   OH236009   4.824   3.174   3.267 -0.1150 -0.4810 -0.2639
 4865TIP3    H136010   4.793   3.147   3.353 -0.1895  2.0236  0.5683
 4865TIP3    H236011   4.904   3.123   3.253  0.1605 -0.5927  1.5095
 4866TIP3   OH236012   3.593   6.307  12.707 -0.3796  0.2037  0.0541
 4866TIP3    H136013   3.654   6.380  12.718 -1.3871  1.4208 -1.9380
 4866TIP3    H236014   3.644   6.229  12.731  2.1625  1.0795 -2.0370
 4867TIP3   OH236015   4.641   5.862   0.646  0.0484 -0.4664 -0.1709
 4867TIP3    H136016   4.669   5.932   0.705  1.4657 -0.4653 -0.8061
 4867TIP3    H236017   4.625   5.906   0.562  1.3046 -0.9356 -0.6733
 4868TIP3   OH236018   1.813   6.171  13.006  0.4247 -0.9117  0.0678
 4868TIP3    H136019   1.759   6.228  13.061 -0.3093 -0.5010 -1.0345
 4868TIP3    H236020   1.807   6.085  13.048  0.9697 -0.3382  1.3523
 4869TIP3   OH236021   4.020   3.284   3.753  0.9825 -0.3351 -0.4816
 4869TIP3    H136022   3.944   3.340   3.738  2.0859  1.4913  0.5169
 4869TIP3    H236023   4.080   3.305   3.682  1.1510 -0.7462 -0.4678
 4870TIP3   OH236024   5.196   3.169  17.045  0.5167  0.2987 -0.1005
 4870TIP3    H136025   5.152   3.106  16.989 -3.5860  1.3481  1.5754
 4870TIP3    H236026   5.196   3.251  16.994  0.7114  0.2717 -0.1471
 4871TIP3   OH236027   2.119   0.012  15.356 -0.6838  0.0048 -0.0962
 4871TIP3    H136028   2.147   0.099  15.329  0.3677 -0.4901 -0.6415
 4871TIP3    H236029   2.086  -0.030  15.276 -2.4628  0.3460  0.4077
 4872TIP3   OH236030   0.246   3.728   0.284 -0.0092 -0.1605 -0.0222
 4872TIP3    H136031   0.209   3.782   0.214  0.1278 -0.4627 -0.3362
 4872TIP3    H236032   0.179   3.662   0.301 -0.2795  0.2578  0.5344
 4873TIP3   OH236033   3.903   6.690  11.572  0.3527 -0.2232 -0.1804
 4873TIP3    H136034   3.920   6.614  11.627 -0.1203  0.8911  1.5840
 4873TIP3    H236035   3.989   6.719  11.542  0.6596 -0.6070  0.3215
 4874TIP3   OH236036   6.315   6.301  15.005  0.5682  0.1581 -0.2962
 4874TIP3    H136037   6.408   6.280  15.015  0.7840  0.5161 -1.4125
 4874TIP3    H236038   6.314   6.390  14.970 -0.2447  0.7080  1.0370
 4875TIP3   OH236039   3.727   2.480   6.079 -0.9404 -0.2983 -0.6342
 4875TIP3    H136040   3.683   2.549   6.127 -0.7598 -0.3390 -0.4057
 4875TIP3    H236041   3.656   2.425   6.045 -1.0703 -0.3627 -0.2731
 4876TIP3   OH236042   0.582   4.822   4.510  0.2175 -0.5121  0.0883
 4876TIP3    H136043   0.565   4.803   4.417  1.2431 -1.0365 -0.0029
 4876TIP3    H236044   0.500   4.799   4.554 -0.7902  1.0558 -0.8285
 4877TIP3   OH236045   3.702   6.773  12.854  0.2380 -0.1638  0.2416
 4877TIP3    H136046   3.609   6.795  12.841  0.4732 -0.5205 -2.7900
 4877TIP3    H236047   3.749   6.851  12.826  0.8541 -0.7107 -0.2809
 4878TIP3   OH236048   6.543   5.539  11.096  0.1517 -0.2747  0.4109
 4878TIP3    H136049   6.574   5.563  11.009  0.1349  0.5530  0.6263
 4878TIP3    H236050   6.525   5.623  11.139 -1.1192 -0.7074  0.7529
 4879TIP3   OH236051   4.523   0.219  13.320  0.7187  0.5826 -0.2335
 4879TIP3    H136052   4.561   0.145  13.271  0.0318 -0.4784  0.7877
 4879TIP3    H236053   4.429   0.211  13.306  0.5632  0.6431  0.7471
 4880TIP3   OH236054   5.890   2.245  12.029 -0.1405  0.5163  0.1356
 4880TIP3    H136055   5.908   2.189  12.104  0.6345 -1.0583 -1.1591
 4880TIP3    H236056   5.866   2.329  12.067 -0.6307 -0.4691  2.1464
 4881TIP3   OH236057   4.505   0.953   0.842  0.2312  0.0590  0.6461
 4881TIP3    H136058   4.550   0.931   0.760  0.5117 -1.4427  1.1634
 4881TIP3    H236059   4.441   0.882   0.854  0.9184 -0.3440  2.2386
 4882TIP3   OH236060   3.326   2.366   0.320  0.1820  0.2916  0.0699
 4882TIP3    H136061   3.405   2.420   0.322  0.1412  0.3465  0.9873
 4882TIP3    H236062   3.273   2.403   0.249  1.5365 -0.5849 -1.4354
 4883TIP3   OH236063   3.558   0.703   0.813 -0.3471  0.3040  0.3091
 4883TIP3    H136064   3.627   0.646   0.778 -0.6351  0.0261  0.1891
 4883TIP3    H236065   3.596   0.740   0.893 -0.1531 -0.0409  0.3778
 4884TIP3   OH236066   0.027   3.688   6.546  0.8671 -0.3225  0.6421
 4884TIP3    H136067   0.023   3.769   6.496 -2.0508  0.5969  2.0977
 4884TIP3    H236068   0.023   3.618   6.481 -0.7954  0.7925 -0.5195
 4885TIP3   OH236069   4.254   1.757   2.815 -0.0454 -0.1438  0.0747
 4885TIP3    H136070   4.246   1.841   2.860 -0.1461  0.4412 -0.9917
 4885TIP3    H236071   4.168   1.743   2.774 -0.0628 -0.8174  0.3267
 4886TIP3   OH236072   6.219   4.305   1.800 -0.1702 -0.1394  0.1967
 4886TIP3    H136073   6.266   4.351   1.731  1.2543 -0.6831  0.7633
 4886TIP3    H236074   6.186   4.374   1.857  2.6879  0.2804  1.5212
 4887TIP3   OH236075   0.630   2.568  13.064 -0.0540 -0.6159 -0.1856
 4887TIP3    H136076   0.700   2.597  13.123 -0.4298 -0.9035  0.4016
 4887TIP3    H236077   0.574   2.513  13.118 -1.1921  0.2543 -0.4449
 4888TIP3   OH236078   5.863   2.108   1.114  0.1338 -0.0514 -0.0733
 4888TIP3    H136079   5.845   2.080   1.203 -0.0462  0.8850  0.1944
 4888TIP3    H236080   5.850   2.029   1.061  0.3811 -0.6469  0.7318
 4889TIP3   OH236081   1.403   5.071  14.130  0.2927  0.0613  0.3611
 4889TIP3    H136082   1.352   5.151  14.119 -0.2203 -0.3653 -0.4511
 4889TIP3    H236083   1.341   5.000  14.112  1.3939 -0.4501 -1.8308
 4890TIP3   OH236084   6.037   2.387  14.542 -0.2221 -0.0008 -0.8788
 4890TIP3    H136085   6.088   2.414  14.618  0.1086 -0.7589 -0.8207
 4890TIP3    H236086   5.946   2.390  14.572 -0.2233  1.4006 -0.9979
 4891TIP3   OH236087   6.528   3.278  10.998 -0.2010 -0.4330  0.0814
 4891TIP3    H136088   6.564   3.246  10.915 -0.1856 -0.9794  0.2954
 4891TIP3    H236089   6.443   3.315  10.974  0.7873  1.6124 -0.5710
 4892TIP3   OH236090   2.775   3.083   1.723 -0.1913 -0.4765  0.3109
 4892TIP3    H136091   2.792   3.039   1.639 -0.3985  0.0479 -0.0126
 4892TIP3    H236092   2.822   3.030   1.788  0.8183 -0.3100 -0.2636
 4893TIP3   OH236093   5.127   3.412   2.578  0.7305 -0.1188  0.4358
 4893TIP3    H136094   5.185   3.437   2.507 -0.9135 -0.1783 -0.9766
 4893TIP3    H236095   5.130   3.316   2.579  1.4477 -0.0989  1.0689
 4894TIP3   OH236096   2.400   4.694  12.168 -0.2138  0.4247 -0.0717
 4894TIP3    H136097   2.370   4.776  12.130  2.1161  1.0409 -0.7469
 4894TIP3    H236098   2.330   4.667  12.227 -0.6363  3.4296  0.9691
 4895TIP3   OH236099   1.127   0.537   1.194  0.6357 -0.3866 -0.1923
 4895TIP3    H136100   1.137   0.468   1.260  1.2602 -0.3167 -0.2054
 4895TIP3    H236101   1.214   0.546   1.155  0.3844 -0.1054 -0.7085
 4896TIP3   OH236102   3.707   2.546  11.277 -0.6710 -0.2599  0.1231
 4896TIP3    H136103   3.781   2.553  11.338  0.6185 -2.4075 -1.0719
 4896TIP3    H236104   3.682   2.454  11.281 -2.4014  0.1487 -0.5440
 4897TIP3   OH236105   2.122   5.789   3.673 -0.3693 -0.4152  0.1427
 4897TIP3    H136106   2.132   5.881   3.693  2.0502 -0.7946  0.8881
 4897TIP3    H236107   2.096   5.748   3.756  4.0360 -1.1286  1.3971
 4898TIP3   OH236108   1.020   5.010  12.997  0.5598 -0.1775  0.2448
 4898TIP3    H136109   0.993   4.918  12.998  1.3797 -0.4192  0.8948
 4898TIP3    H236110   1.042   5.030  13.088  3.8198 -0.3916 -0.3905
 4899TIP3   OH236111   4.841   2.180   5.408  0.5992  0.3775 -0.1965
 4899TIP3    H136112   4.910   2.126   5.371 -0.5987 -2.3879  1.2803
 4899TIP3    H236113   4.872   2.202   5.496 -0.7092 -1.8205  0.9069
 4900TIP3   OH236114   5.525   2.626  13.106 -0.3296  0.0467  0.4181
 4900TIP3    H136115   5.573   2.549  13.075  1.6840  1.4570 -0.1900
 4900TIP3    H236116   5.592   2.679  13.150 -1.7924  1.1531  1.3853
 4901TIP3   OH236117   3.316   1.406   5.328  0.2478  0.2940  0.4780
 4901TIP3    H136118   3.326   1.499   5.310  0.6352  0.2148  0.2772
 4901TIP3    H236119   3.251   1.402   5.398 -0.8118  0.6430 -0.4557
 4902TIP3   OH236120   6.339   1.872  16.566 -0.1874  0.0748  0.4726
 4902TIP3    H136121   6.334   1.937  16.636  2.7282 -0.2333  1.0965
 4902TIP3    H236122   6.393   1.914  16.499 -0.3119 -0.8024 -0.1953
 4903TIP3   OH236123   0.737   2.705   1.081 -0.2450 -0.3331  0.6391
 4903TIP3    H136124   0.749   2.687   0.988 -0.2457  1.8607  0.1719
 4903TIP3    H236125   0.825   2.696   1.119 -0.5196 -3.0604  0.8591
 4904TIP3   OH236126   1.673   0.343  10.749  0.4505 -0.8521  0.0175
 4904TIP3    H136127   1.653   0.252  10.727 -0.8193 -0.7310  0.5482
 4904TIP3    H236128   1.643   0.393  10.672  1.8145 -0.9198 -0.5819
 4905TIP3   OH236129   2.294   4.869  13.127  0.4797 -0.4473  0.5237
 4905TIP3    H136130   2.292   4.776  13.146 -1.8462 -0.7653 -0.9763
 4905TIP3    H236131   2.353   4.878  13.052 -1.1139 -1.0918 -0.8603
 4906TIP3   OH236132   0.890   0.452  14.752  0.1484 -0.0304  0.3296
 4906TIP3    H136133   0.903   0.490  14.665  1.2440  1.4453  1.0970
 4906TIP3    H236134   0.848   0.522  14.803 -0.1492 -0.7497  1.1055
 4907TIP3   OH236135   5.286   1.801  11.894  0.4065  0.1477 -0.3939
 4907TIP3    H136136   5.356   1.758  11.844 -0.2003 -1.1494 -0.1680
 4907TIP3    H236137   5.310   1.788  11.985 -0.0976 -0.2789 -0.3156
 4908TIP3   OH236138   6.448   5.765   1.498  0.0277  0.1598 -1.0873
 4908TIP3    H136139   6.530   5.806   1.468  0.7993 -0.9963 -0.6410
 4908TIP3    H236140   6.458   5.758   1.593  0.6817 -2.4779 -1.2581
 4909TIP3   OH236141   2.761   5.656   3.202 -0.2320 -0.2613  0.4927
 4909TIP3    H136142   2.788   5.623   3.116  1.5741 -0.0509  0.9373
 4909TIP3    H236143   2.768   5.579   3.259  0.8568  0.1209  0.8943
 4910TIP3   OH236144   0.548   0.876   0.567  0.2929 -0.0038 -0.5137
 4910TIP3    H136145   0.547   0.893   0.473 -1.3944  3.0208 -0.0598
 4910TIP3    H236146   0.463   0.836   0.586  0.2864  0.1705 -0.1646
 4911TIP3   OH236147   3.395   6.676   4.680 -0.4149 -0.2410 -0.4473
 4911TIP3    H136148   3.403   6.760   4.635  1.1343 -0.5330 -0.7857
 4911TIP3    H236149   3.433   6.612   4.620 -1.9142 -1.2714 -0.3544
 4912TIP3   OH236150   4.735   0.408   4.732 -0.1380  0.1377  0.2309
 4912TIP3    H136151   4.798   0.472   4.765 -0.8386  0.5354  0.8413
 4912TIP3    H236152   4.713   0.355   4.809 -0.0575 -0.4125 -0.1236
 4913TIP3   OH236153   0.125   0.148   4.414 -0.2932  0.3668  0.9888
 4913TIP3    H136154   0.136   0.241   4.432  1.5822  0.2683  0.5196
 4913TIP3    H236155   0.036   0.142   4.378 -0.3170  2.0293  0.6709
 4914TIP3   OH236156   6.629   4.214   2.888  0.1152 -0.3087  0.4055
 4914TIP3    H136157   6.593   4.201   2.976  1.6393 -0.0163  1.1088
 4914TIP3    H236158   6.572   4.164   2.830 -1.5361  0.3211  1.4150
 4915TIP3   OH236159   4.752   0.635  15.959  0.2324 -0.0755 -0.6325
 4915TIP3    H136160   4.819   0.697  15.932 -0.7001  0.7527 -1.0970
 4915TIP3    H236161   4.697   0.622  15.882 -1.9002  1.5813  0.4623
 4916TIP3   OH236162   0.614   3.186  11.321 -0.7356 -0.1867 -0.5076
 4916TIP3    H136163   0.675   3.120  11.355 -1.4609 -0.8484 -0.4748
 4916TIP3    H236164   0.669   3.263  11.304  0.2252 -0.9977 -1.1488
 4917TIP3   OH236165   0.314   4.404  16.110  0.3906 -0.0870  0.5233
 4917TIP3    H136166   0.408   4.389  16.120  0.4891  0.2131  0.1155
 4917TIP3    H236167   0.308   4.461  16.033 -0.0844  0.3888  0.9103
 4918TIP3   OH236168   6.607   4.487   2.930 -0.3062 -0.1579  0.1232
 4918TIP3    H136169   6.597   4.398   2.896  1.1292 -1.0578  1.9142
 4918TIP3    H236170   6.701   4.505   2.921 -0.6553  1.4497 -0.7572
 4919TIP3   OH236171   3.242   5.353  10.575 -0.1291  0.0286 -0.1729
 4919TIP3    H136172   3.315   5.309  10.531  1.6636  2.7898 -0.1761
 4919TIP3    H236173   3.223   5.428  10.519 -1.8789  0.3014  0.7360
 4920TIP3   OH236174   6.420   6.247   4.472  0.8346  0.1937 -1.0228
 4920TIP3    H136175   6.343   6.301   4.457  0.9344  0.4251 -0.7157
 4920TIP3    H236176   6.488   6.308   4.500  0.2104 -0.3251  1.9721
 4921TIP3   OH236177   1.290   0.251  14.649 -0.1827  0.7199  0.0701
 4921TIP3    H136178   1.344   0.257  14.570 -1.0797  1.1158 -0.5333
 4921TIP3    H236179   1.340   0.298  14.716  0.9243 -0.2370 -0.0555
 4922TIP3   OH236180   2.015   6.487   5.221 -0.3768  0.0806 -0.2500
 4922TIP3    H136181   2.101   6.528   5.221 -0.1534 -0.3886 -0.4972
 4922TIP3    H236182   2.024   6.411   5.165 -0.4630 -0.9819  1.1137
 4923TIP3   OH236183   5.727   0.857   0.478 -0.3017  0.4625 -0.3709
 4923TIP3    H136184   5.775   0.910   0.414  1.3706 -0.9640 -0.3620
 4923TIP3    H236185   5.756   0.768   0.462 -0.7260 -0.0819  1.6180
 4924TIP3   OH236186   5.724   6.516  14.576 -0.0711 -0.3423 -0.2416
 4924TIP3    H136187   5.770   6.597  14.597  0.6292 -0.6964 -0.3780
 4924TIP3    H236188   5.638   6.544  14.544 -1.6196  0.2600  3.8270
 4925TIP3   OH236189   3.610   4.820   1.732  0.4068  0.3845 -0.0458
 4925TIP3    H136190   3.540   4.789   1.789 -0.3689  0.5409 -0.9025
 4925TIP3    H236191   3.600   4.770   1.651  0.1664  1.6741 -0.8374
 4926TIP3   OH236192   1.927   6.616  14.871 -0.2610  0.1959 -0.2124
 4926TIP3    H136193   1.966   6.533  14.897 -1.5648 -0.1384  0.8053
 4926TIP3    H236194   1.862   6.592  14.804 -0.3012  0.4507 -0.2646
 4927TIP3   OH236195   1.944   1.220   0.940 -0.3195  1.0004  0.7550
 4927TIP3    H136196   1.849   1.224   0.947 -0.2753  1.3823  1.1596
 4927TIP3    H236197   1.964   1.127   0.936 -0.7212  0.9238  0.5185
 4928TIP3   OH236198   3.254   0.290   0.573 -0.2710 -0.0266  0.3530
 4928TIP3    H136199   3.237   0.201   0.541  0.4156  0.0211 -0.1740
 4928TIP3    H236200   3.309   0.329   0.505 -1.9228  1.3724 -0.2612
 4929TIP3   OH236201   3.411   2.067  12.911 -0.0068 -0.0648 -0.4039
 4929TIP3    H136202   3.493   2.089  12.956  0.2273 -1.9400  0.1570
 4929TIP3    H236203   3.360   2.019  12.976 -2.0164  1.8934 -0.4142
 4930TIP3   OH236204   5.662   3.585  16.935  0.7656 -0.6060 -0.6937
 4930TIP3    H136205   5.617   3.556  17.014 -0.5913 -0.8110 -1.4991
 4930TIP3    H236206   5.657   3.680  16.937  0.2898 -0.6277 -0.7708
 4931TIP3   OH236207   1.922   3.714  10.550 -0.2695  0.1368  0.2988
 4931TIP3    H136208   1.906   3.623  10.574  0.1352  0.0092  0.1038
 4931TIP3    H236209   1.969   3.750  10.625  0.3462 -0.0606  0.0169
 4932TIP3   OH236210   1.034   0.928   3.551 -0.3116 -0.0077  0.5493
 4932TIP3    H136211   1.065   1.009   3.590 -0.5865  0.0090  0.7360
 4932TIP3    H236212   1.073   0.859   3.605 -1.0151  0.0227  1.1047
 4933TIP3   OH236213   3.724   3.756  14.624 -0.3546  0.3536 -0.1724
 4933TIP3    H136214   3.736   3.661  14.617  0.1207  0.3384  0.7795
 4933TIP3    H236215   3.783   3.793  14.559 -1.1128 -0.0186 -1.1010
 4934TIP3   OH236216   5.046   4.973  14.691 -0.1774  0.2037  0.0266
 4934TIP3    H136217   5.127   4.961  14.740  0.3535 -0.9418 -1.1131
 4934TIP3    H236218   5.037   4.894  14.639 -1.4609  0.8007 -0.6959
 4935TIP3   OH236219   3.423   6.381  10.705 -0.8088  0.1939 -0.1655
 4935TIP3    H136220   3.500   6.327  10.724 -0.4223  0.3686 -1.1948
 4935TIP3    H236221   3.457   6.471  10.701 -0.7586  0.1235 -2.1569
 4936TIP3   OH236222   0.890   4.780   0.817 -0.4056  0.2064  0.0565
 4936TIP3    H136223   0.900   4.793   0.723  0.2643 -0.0662  0.0864
 4936TIP3    H236224   0.880   4.868   0.853  3.7701  0.8259  0.2324
 4937TIP3   OH236225   4.947   4.031   0.138  0.2423  0.3599 -0.1548
 4937TIP3    H136226   4.932   4.014   0.045  0.4804  0.9310 -0.3029
 4937TIP3    H236227   4.915   3.952   0.182  1.4474 -0.5248 -0.8044
 4938TIP3   OH236228   1.238   2.946   3.035 -0.1648 -0.0040  0.1036
 4938TIP3    H136229   1.260   2.875   3.095  1.4056  0.5030  0.1774
 4938TIP3    H236230   1.225   2.903   2.950 -1.0416 -0.5687  0.5110
 4939TIP3   OH236231   0.564   0.495  11.227 -0.5096  0.1570  0.1759
 4939TIP3    H136232   0.572   0.587  11.252  0.0172 -0.5112  2.7680
 4939TIP3    H236233   0.480   0.468  11.266 -0.8314 -0.3803 -0.8726
 4940TIP3   OH236234   6.637   3.198  13.795 -0.1638 -0.2145 -0.3026
 4940TIP3    H136235   6.722   3.185  13.838  0.9310  0.4807 -2.1584
 4940TIP3    H236236   6.583   3.127  13.830  1.4184 -1.1902  0.3257
 4941TIP3   OH236237   3.082   6.521  14.096  0.0177 -0.2469 -0.1138
 4941TIP3    H136238   3.018   6.451  14.084 -1.1253  0.2300  2.5025
 4941TIP3    H236239   3.034   6.601  14.073  0.2649 -0.0492  0.0516
 4942TIP3   OH236240   2.797   2.956   2.133 -0.0332  0.2485 -0.4633
 4942TIP3    H136241   2.789   3.051   2.132  0.5619  0.3024 -0.3473
 4942TIP3    H236242   2.708   2.925   2.149 -0.1077  0.8094  0.3036
 4943TIP3   OH236243   4.229   3.171  11.806 -0.6300 -0.2230  0.0579
 4943TIP3    H136244   4.183   3.241  11.853  1.0812  1.5824 -0.8149
 4943TIP3    H236245   4.249   3.208  11.720  0.1042 -1.8991 -0.5525
 4944TIP3   OH236246   0.549   1.066  13.731 -0.6554  0.1730 -0.3158
 4944TIP3    H136247   0.517   1.077  13.820  0.0769  0.0896 -0.0310
 4944TIP3    H236248   0.531   0.974  13.710  1.7552 -0.6718  0.8557
 4945TIP3   OH236249   0.903   5.000  11.100  1.1515 -0.1651  0.0467
 4945TIP3    H136250   0.854   5.055  11.039  3.0523 -0.4528 -1.8578
 4945TIP3    H236251   0.858   4.916  11.097  0.9793 -0.0599 -0.6602
 4946TIP3   OH236252   0.199   1.754   0.781  0.5612  0.0024 -0.5942
 4946TIP3    H136253   0.285   1.741   0.822  0.4930 -1.7673 -0.9404
 4946TIP3    H236254   0.139   1.702   0.833 -0.4615  1.6849  0.0010
 4947TIP3   OH236255   4.387   5.904  14.490 -0.1493  0.1231 -0.0728
 4947TIP3    H136256   4.460   5.947  14.535 -0.0268  0.1260 -0.2699
 4947TIP3    H236257   4.332   5.976  14.459  0.0227  0.1382 -0.3481
 4948TIP3   OH236258   4.351   5.265  14.333  0.4675 -0.0836 -0.3486
 4948TIP3    H136259   4.289   5.200  14.365 -0.2157 -0.0922 -1.6332
 4948TIP3    H236260   4.391   5.300  14.412  1.3192 -2.4847  0.3753
 4949TIP3   OH236261   4.618   5.944  16.431  0.1594 -0.2887  0.0083
 4949TIP3    H136262   4.629   5.858  16.392  1.1738  0.0309 -0.4424
 4949TIP3    H236263   4.694   5.955  16.488  0.3045  0.4893 -0.3120
 4950TIP3   OH236264   1.047   6.232   3.775  0.1627 -0.3684 -0.0456
 4950TIP3    H136265   1.011   6.299   3.833 -3.7476 -1.8123 -0.5250
 4950TIP3    H236266   1.109   6.279   3.719  0.2871  2.0320  1.9460
 4951TIP3   OH236267   0.057   5.844   4.912 -0.1862 -0.6541 -0.1553
 4951TIP3    H136268   0.129   5.797   4.869  0.0998  0.0170 -0.4256
 4951TIP3    H236269   0.048   5.925   4.861 -0.6890 -0.4302  0.2853
 4952TIP3   OH236270   1.826   1.195   1.324 -0.5239 -0.0001 -0.0981
 4952TIP3    H136271   1.906   1.166   1.367 -0.4508  0.0634 -0.1913
 4952TIP3    H236272   1.849   1.278   1.283 -1.0463  0.8173  1.1703
 4953TIP3   OH236273   4.052   0.649  15.791 -0.8035  0.0278  0.6017
 4953TIP3    H136274   4.110   0.699  15.734 -1.8195 -0.3790 -0.8466
 4953TIP3    H236275   4.019   0.712  15.855  0.1790  0.5378  0.6200
 4954TIP3   OH236276   1.289   5.897  15.186 -0.0138  0.0460  0.2679
 4954TIP3    H136277   1.356   5.917  15.252  0.6246  1.9680 -0.8779
 4954TIP3    H236278   1.212   5.873  15.236  1.4729 -2.2027  1.6530
 4955TIP3   OH236279   6.443   6.653   2.920 -0.2770  0.0724  0.1018
 4955TIP3    H136280   6.456   6.603   2.839  0.0646 -0.5975  0.5643
 4955TIP3    H236281   6.419   6.587   2.985 -1.1195  0.6822  0.4198
 4956TIP3   OH236282   2.552   2.713   4.120  0.1123 -0.0213  0.2851
 4956TIP3    H136283   2.630   2.711   4.064 -0.5712  0.6391 -0.7207
 4956TIP3    H236284   2.549   2.802   4.155 -0.4981  0.1438 -0.1568
 4957TIP3   OH236285   2.214   0.276  15.807  0.5547 -0.1129  0.2280
 4957TIP3    H136286   2.281   0.209  15.789 -0.0272 -0.8714  0.8375
 4957TIP3    H236287   2.136   0.245  15.761  0.7497  1.0569 -0.9477
 4958TIP3   OH236288   0.511   4.048  11.850  0.0597 -0.4860 -0.3624
 4958TIP3    H136289   0.542   3.963  11.880  0.1501  0.0944  1.2955
 4958TIP3    H236290   0.431   4.064  11.900  1.0505  1.2134  0.8136
 4959TIP3   OH236291   6.324   4.141  13.970  0.1233 -0.0851 -0.2751
 4959TIP3    H136292   6.343   4.125  13.877 -0.4951  0.8168 -0.5727
 4959TIP3    H236293   6.294   4.056  14.003 -0.6357 -0.1843 -1.1622
 4960TIP3   OH236294   6.422   1.688  13.690 -0.4474  0.1959  0.3572
 4960TIP3    H136295   6.334   1.700  13.655 -0.0112 -0.6032 -1.0710
 4960TIP3    H236296   6.481   1.719  13.622  0.4068 -0.4560  0.7621
 4961TIP3   OH236297   4.458   6.309  14.789  0.2799 -0.1815 -0.2360
 4961TIP3    H136298   4.470   6.348  14.702 -0.7239 -2.2701 -1.3804
 4961TIP3    H236299   4.364   6.297  14.797  0.1497  1.5974  1.9692
 4962TIP3   OH236300   4.695   2.297  17.058  0.7330  0.1950  0.3816
 4962TIP3    H136301   4.635   2.238  17.103 -0.4584  1.0151 -0.0825
 4962TIP3    H236302   4.782   2.262  17.077  0.2511  0.0537  2.6439
 4963TIP3   OH236303   2.140   0.419  12.689 -0.1020  0.1283  0.4547
 4963TIP3    H136304   2.199   0.494  12.697 -0.5621  0.6734 -0.9202
 4963TIP3    H236305   2.189   0.346  12.728  1.7522  0.4402 -1.1040
 4964TIP3   OH236306   4.279   3.279  16.168 -0.2903  0.2640 -0.3654
 4964TIP3    H136307   4.314   3.291  16.080 -0.0761  0.8178 -0.2075
 4964TIP3    H236308   4.214   3.209  16.159  1.9514 -1.9754 -0.3928
 4965TIP3   OH236309   6.171   1.591   2.618 -0.0210  0.4143 -0.2419
 4965TIP3    H136310   6.193   1.654   2.548  0.2905  0.9525  0.3275
 4965TIP3    H236311   6.246   1.596   2.678 -1.0287  1.1871  0.9891
 4966TIP3   OH236312   0.827   2.950   0.634 -0.0146  0.5351 -0.4732
 4966TIP3    H136313   0.885   2.964   0.560  0.7290  0.8007  0.1407
 4966TIP3    H236314   0.744   2.991   0.609  0.1642  0.4498 -1.2202
 4967TIP3   OH236315   1.668   1.249   1.540 -0.0933 -0.2072  0.1656
 4967TIP3    H136316   1.710   1.311   1.600 -1.8865  0.7357  0.4956
 4967TIP3    H236317   1.720   1.255   1.460  0.2019  1.2018  0.4311
 4968TIP3   OH236318   3.676   0.296  11.146 -0.1481 -0.2177  0.0909
 4968TIP3    H136319   3.628   0.268  11.068 -0.5949 -2.0694  0.9753
 4968TIP3    H236320   3.619   0.361  11.187  0.2649  1.0706 -1.2749
 4969TIP3   OH236321   1.736   2.905   0.837 -0.2167  0.1669 -0.5734
 4969TIP3    H136322   1.817   2.916   0.886 -0.6326  0.5640  0.0427
 4969TIP3    H236323   1.753   2.831   0.779  0.8417  0.7184 -0.9972
 4970TIP3   OH236324   5.870   4.899   1.117  0.2936 -0.5362  0.2236
 4970TIP3    H136325   5.798   4.836   1.118  0.0758 -0.2816  1.2081
 4970TIP3    H236326   5.949   4.845   1.116  0.1076 -0.8158 -0.5780
 4971TIP3   OH236327   6.346   1.122  15.262  0.1149  0.3128  0.3536
 4971TIP3    H136328   6.437   1.153  15.260  0.0088  0.6896  1.1837
 4971TIP3    H236329   6.312   1.141  15.175  0.6871  0.6077  0.1933
 4972TIP3   OH236330   4.458   3.204  15.477  0.4743 -0.3606  0.5685
 4972TIP3    H136331   4.379   3.150  15.486 -0.6770  1.1107 -0.2201
 4972TIP3    H236332   4.497   3.176  15.394 -1.1895  1.2218 -0.8543
 4973TIP3   OH236333   4.673   4.099  13.356  0.1869  0.1914  0.0018
 4973TIP3    H136334   4.583   4.109  13.325  0.3928 -0.6643 -0.8999
 4973TIP3    H236335   4.710   4.187  13.348 -0.4774  0.4904  0.1141
 4974TIP3   OH236336   6.149   6.613  14.227  0.4030  0.7206 -0.1636
 4974TIP3    H136337   6.203   6.534  14.221 -0.3375  0.3050 -1.5962
 4974TIP3    H236338   6.194   6.667  14.292  0.6497 -1.0722  1.2591
 4975TIP3   OH236339   2.039   1.848   0.591  0.6970  0.3284  0.7613
 4975TIP3    H136340   2.098   1.916   0.623 -1.1665  0.8056  3.4489
 4975TIP3    H236341   2.042   1.780   0.658  0.0666 -0.7805 -0.2919
 4976TIP3   OH236342   5.020   6.105  12.105 -0.9680 -0.5775  0.4495
 4976TIP3    H136343   4.966   6.101  12.026  2.2289 -2.6462 -1.8693
 4976TIP3    H236344   5.019   6.016  12.140  0.7978 -0.6709  0.3537
 4977TIP3   OH236345   0.921   1.702  10.520  0.1032 -0.2817 -0.0293
 4977TIP3    H136346   0.886   1.750  10.595  1.6235  1.6207 -0.4822
 4977TIP3    H236347   0.975   1.633  10.560 -0.2616 -0.2122  0.6136
 4978TIP3   OH236348   5.995   0.020  15.893  0.1740 -0.2961  0.4228
 4978TIP3    H136349   6.049   0.037  15.971 -1.3553 -0.2248  1.5058
 4978TIP3    H236350   5.905   0.028  15.924 -0.4827  0.8022 -1.6186
 4979TIP3   OH236351   2.547   2.827  12.221 -0.1675  0.0893  0.3655
 4979TIP3    H136352   2.532   2.746  12.173  1.5565 -0.3337  0.4760
 4979TIP3    H236353   2.551   2.799  12.313  0.0292  0.3433  0.4353
 4980TIP3   OH236354   0.132   6.488   6.175  0.3871 -0.3313 -0.8924
 4980TIP3    H136355   0.154   6.575   6.209  0.5755 -0.6314 -0.2207
 4980TIP3    H236356   0.036   6.488   6.171  0.2297 -0.9139  1.4485
 4981TIP3   OH236357   5.462   4.876  15.616 -0.1751 -0.2537 -0.2984
 4981TIP3    H136358   5.441   4.791  15.654  1.0533 -1.1274 -1.4810
 4981TIP3    H236359   5.422   4.874  15.529  1.5058 -0.4577 -1.1143
 4982TIP3   OH236360   5.865   6.108  14.215 -0.2544 -0.0934 -0.1829
 4982TIP3    H136361   5.869   6.145  14.303 -0.6596  0.3870 -0.3607
 4982TIP3    H236362   5.893   6.179  14.158  1.3705 -0.8249 -0.3472
 4983TIP3   OH236363   5.327   5.725  14.133  0.3414 -0.1607  0.2206
 4983TIP3    H136364   5.327   5.716  14.038  0.9956  0.9370  0.1011
 4983TIP3    H236365   5.374   5.806  14.150 -3.5698  2.1277  1.2610
 4984TIP3   OH236366   3.311   3.224   0.974 -0.1141 -0.1852  0.2868
 4984TIP3    H136367   3.351   3.216   1.061 -0.4991 -1.1620  0.3843
 4984TIP3    H236368   3.230   3.273   0.989 -0.3275 -0.6110  0.5217
 4985TIP3   OH236369   1.279   6.603  13.047  0.0371 -0.1200 -0.8848
 4985TIP3    H136370   1.300   6.694  13.065 -0.5215  0.2145 -1.8644
 4985TIP3    H236371   1.361   6.566  13.014  0.2944 -0.0155 -0.3770
 4986TIP3   OH236372   5.327   3.051   3.019  0.4321 -0.4545 -0.3468
 4986TIP3    H136373   5.297   2.961   3.012  0.0306 -0.4066  0.6004
 4986TIP3    H236374   5.400   3.057   2.957  2.0817 -2.1234  1.3071
 4987TIP3   OH236375   4.951   2.915  11.309  0.3755 -0.2158  0.1738
 4987TIP3    H136376   4.958   3.011  11.317  2.6224 -0.2969 -0.1574
 4987TIP3    H236377   4.906   2.902  11.226  2.9895  0.6221 -1.4840
 4988TIP3   OH236378   1.686   5.921  10.651  0.3373 -0.4700  0.8762
 4988TIP3    H136379   1.604   5.887  10.616  0.0424 -0.1282  1.2340
 4988TIP3    H236380   1.754   5.875  10.601 -0.0661 -0.8586  0.6795
 4989TIP3   OH236381   0.904   0.450  10.265  0.3801  0.4893 -0.3588
 4989TIP3    H136382   0.912   0.538  10.300  0.6296  0.4709 -0.3688
 4989TIP3    H236383   0.867   0.398  10.336 -0.2580  0.7105 -0.5202
 4990TIP3   OH236384   5.543   6.507   3.906 -0.0247  0.2321  0.2141
 4990TIP3    H136385   5.594   6.427   3.907 -1.6657 -0.8805  1.6389
 4990TIP3    H236386   5.541   6.536   3.998  0.3743  1.8164 -0.2384
 4991TIP3   OH236387   4.216   2.790   5.466  0.2290 -0.0388  0.4031
 4991TIP3    H136388   4.161   2.858   5.429  0.9396 -0.3488 -1.3261
 4991TIP3    H236389   4.280   2.837   5.519  0.6514  0.6631 -0.6921
 4992TIP3   OH236390   1.576   3.769   3.194  0.0299 -0.4066 -0.0445
 4992TIP3    H136391   1.571   3.724   3.278  2.2260  0.8446  0.8318
 4992TIP3    H236392   1.497   3.824   3.191  0.6645  0.7181  1.9641
 4993TIP3   OH236393   5.247   3.021   1.324  0.1856 -0.0952  1.0201
 4993TIP3    H136394   5.322   2.961   1.325  0.8979  0.5312 -2.2409
 4993TIP3    H236395   5.282   3.104   1.356  0.5101 -0.1825  0.8958
 4994TIP3   OH236396   3.961   0.823  14.541  0.1583  0.3780 -0.0398
 4994TIP3    H136397   3.881   0.771  14.538  0.3040  0.1967 -1.0535
 4994TIP3    H236398   4.032   0.760  14.528  0.4976  0.5056  1.0510
 4995TIP3   OH236399   2.766   5.096   0.432  0.0628 -0.3237 -0.3387
 4995TIP3    H136400   2.705   5.063   0.498  2.0011  1.0164  2.3122
 4995TIP3    H236401   2.836   5.030   0.429  0.8820  0.4867  0.3577
 4996TIP3   OH236402   2.763   4.938  16.889 -0.8800  0.1595  0.3622
 4996TIP3    H136403   2.833   4.901  16.943  0.7674  0.9874 -1.0944
 4996TIP3    H236404   2.693   4.957  16.951  0.1177 -0.8209  1.8735
 4997TIP3   OH236405   0.437   0.094  14.445  0.0112 -0.1260  0.0498
 4997TIP3    H136406   0.525   0.059  14.457 -0.1813 -0.5490  0.2337
 4997TIP3    H236407   0.383   0.047  14.508 -1.0463 -2.4153 -2.3483
 4998TIP3   OH236408   6.269   4.469   4.073 -0.0725 -0.1008 -0.3379
 4998TIP3    H136409   6.352   4.450   4.116 -0.6686  0.6335  1.2280
 4998TIP3    H236410   6.259   4.564   4.082 -1.2751 -0.2345 -0.1175
 4999TIP3   OH236411   2.009   0.555   4.543  0.3129  0.2258 -0.2619
 4999TIP3    H136412   2.080   0.518   4.491  1.2046  1.8675 -0.2577
 4999TIP3    H236413   2.052   0.606   4.610 -0.8261 -1.7008  2.0893
 5000TIP3   OH236414   4.302   4.315   3.918 -0.3891  0.5145 -0.0268
 5000TIP3    H136415   4.254   4.382   3.868  0.4843  1.5992  0.5672
 5000TIP3    H236416   4.322   4.356   4.001  1.3360 -0.0089 -0.1469
 5001TIP3   OH236417   2.356   2.600  15.180 -0.0441 -0.5819  0.5758
 5001TIP3    H136418   2.346   2.611  15.274  2.2255 -1.3369  0.9756
 5001TIP3    H236419   2.448   2.576  15.168 -0.3034 -0.6834 -1.8241
 5002TIP3   OH236420   4.330   2.439   0.553  0.1392  0.1789  0.0514
 5002TIP3    H136421   4.271   2.491   0.608  0.4374 -1.4868  2.0639
 5002TIP3    H236422   4.405   2.496   0.537 -1.0052  1.5364 -0.6921
 5003TIP3   OH236423   0.698   5.986   3.157  0.5507  0.2398  0.1526
 5003TIP3    H136424   0.773   6.034   3.122  0.0465 -0.2327 -1.6698
 5003TIP3    H236425   0.709   5.897   3.123 -1.0832  0.2846 -0.5654
 5004TIP3   OH236426   1.076   2.931   3.700 -0.4579  0.3193  0.2063
 5004TIP3    H136427   1.047   2.887   3.620 -0.1938  0.0129  0.2775
 5004TIP3    H236428   1.095   3.021   3.673 -1.4329  0.5166  0.1511
 5005TIP3   OH236429   4.395   3.209  16.634  0.1319 -0.4304  0.5841
 5005TIP3    H136430   4.345   3.290  16.642 -1.0002 -1.1908  1.6617
 5005TIP3    H236431   4.394   3.190  16.540  0.9264  1.0755  0.2343
 5006TIP3   OH236432   1.719   4.764   2.677 -0.1272  0.4998  0.3919
 5006TIP3    H136433   1.667   4.687   2.697 -0.5943  0.6856 -0.0815
 5006TIP3    H236434   1.799   4.730   2.636 -2.0510  0.3543 -3.6794
 5007TIP3   OH236435   4.224   4.028  15.524 -0.2639 -0.0416 -0.0914
 5007TIP3    H136436   4.221   4.124  15.523 -1.8006 -0.0377  0.8719
 5007TIP3    H236437   4.171   4.002  15.449  1.1837 -0.1604 -1.0949
 5008TIP3   OH236438   5.125   2.819  16.794  0.2275 -0.3233 -0.1122
 5008TIP3    H136439   5.159   2.730  16.807 -0.0584 -0.4598 -0.3040
 5008TIP3    H236440   5.195   2.876  16.827  1.2266 -0.5641 -1.7215
 5009TIP3   OH236441   4.683   4.709  11.682  0.7304 -0.3700 -0.6924
 5009TIP3    H136442   4.629   4.679  11.609 -0.8926  0.0587  0.2954
 5009TIP3    H236443   4.671   4.643  11.750  0.6067  0.2613 -0.0885
 5010TIP3   OH236444   6.417   6.016   1.307 -0.4291  0.3541 -0.3725
 5010TIP3    H136445   6.332   5.977   1.327 -0.3500 -0.3790 -1.4158
 5010TIP3    H236446   6.463   5.950   1.255  0.0827  1.4464 -1.3639
 5011TIP3   OH236447   2.075   5.949  11.989  0.3451 -0.1466 -0.1813
 5011TIP3    H136448   2.156   5.953  12.040 -0.2966 -0.7951  0.9135
 5011TIP3    H236449   2.099   5.906  11.907  1.4047  0.9840 -0.4981
 5012TIP3   OH236450   1.962   4.861   5.401  0.1321  0.4978  0.4670
 5012TIP3    H136451   1.899   4.894   5.337 -0.4593 -1.1513  0.1679
 5012TIP3    H236452   1.913   4.857   5.483 -0.1912 -0.8486  0.2199
 5013TIP3   OH236453   5.303   5.798  12.646 -0.3094 -0.6178 -0.3350
 5013TIP3    H136454   5.372   5.859  12.622 -2.3428  2.2421  0.5005
 5013TIP3    H236455   5.330   5.764  12.731 -1.3628  3.3111  1.8405
 5014TIP3   OH236456   5.045   0.469  14.944  0.3017 -0.5275  0.3083
 5014TIP3    H136457   5.042   0.376  14.967  1.6298 -0.7625 -0.3959
 5014TIP3    H236458   5.100   0.473  14.866  0.6207  0.9091  0.5800
 5015TIP3   OH236459   6.022   6.570   5.860 -0.2369  0.1408  0.4239
 5015TIP3    H136460   6.027   6.660   5.892  1.0852  0.7412 -1.3268
 5015TIP3    H236461   6.098   6.527   5.898  0.5067  0.4590 -0.6507
 5016TIP3   OH236462   5.210   5.860   2.153 -0.0956 -0.1216  0.1150
 5016TIP3    H136463   5.132   5.873   2.100  0.0760 -0.0343 -0.1179
 5016TIP3    H236464   5.236   5.948   2.179 -0.1771 -0.1636  0.3440
 5017TIP3   OH236465   3.942   0.157  16.766 -0.6556  0.2307 -0.5552
 5017TIP3    H136466   3.921   0.178  16.857 -0.2051 -0.1508 -0.3560
 5017TIP3    H236467   4.006   0.086  16.772  0.7695  1.4071 -1.1269
 5018TIP3   OH236468   6.151   5.618   1.714  0.1034  0.6109 -0.1770
 5018TIP3    H136469   6.186   5.635   1.801 -1.1445  0.4663  0.3797
 5018TIP3    H236470   6.101   5.696   1.693  0.0376  0.4633 -0.5761
 5019TIP3   OH236471   0.904   1.702   3.329 -0.0481  0.1029  0.4124
 5019TIP3    H136472   0.870   1.780   3.285 -0.3849 -0.4993 -0.4051
 5019TIP3    H236473   0.994   1.694   3.297 -0.0409  0.1001  0.4331
 5020TIP3   OH236474   0.295   2.214   2.394 -0.3782  0.1080 -0.3130
 5020TIP3    H136475   0.266   2.123   2.398 -1.7070  0.4785 -0.8142
 5020TIP3    H236476   0.370   2.218   2.454  1.3767 -1.8655 -2.2147
 5021TIP3   OH236477   0.784   1.329   3.586 -0.0651  0.0779 -0.3211
 5021TIP3    H136478   0.876   1.306   3.602 -0.1098  0.3326  0.3688
 5021TIP3    H236479   0.775   1.331   3.491  0.6039 -0.1068 -0.3914
 5022TIP3   OH236480   4.835   3.590   4.134 -0.4143 -0.0290 -0.1251
 5022TIP3    H136481   4.862   3.534   4.062 -0.0853 -1.0159  0.7408
 5022TIP3    H236482   4.756   3.548   4.169 -0.7213  0.5834 -0.0686
 5023TIP3   OH236483   3.856   2.402   0.692  0.5456  0.0604 -0.0642
 5023TIP3    H136484   3.869   2.355   0.609  1.7382  0.4696 -0.1233
 5023TIP3    H236485   3.923   2.366   0.750  1.0628  1.2126  0.0832
 5024TIP3   OH236486   3.166   0.064   3.499 -0.0281 -0.1518  0.0364
 5024TIP3    H136487   3.139   0.030   3.585 -1.1681 -0.7630 -0.5436
 5024TIP3    H236488   3.239   0.124   3.519  0.2008 -0.8220  1.3536
 5025TIP3   OH236489   5.263   0.777  14.684  0.0714  0.6426 -0.1463
 5025TIP3    H136490   5.250   0.752  14.593  0.4813 -1.5407  0.3324
 5025TIP3    H236491   5.206   0.852  14.698 -2.6054 -1.0561 -1.3148
 5026TIP3   OH236492   2.762   5.694   3.724  0.0404 -0.4752  0.1954
 5026TIP3    H136493   2.760   5.671   3.816  0.4178 -0.7926  0.1255
 5026TIP3    H236494   2.844   5.741   3.712  1.4863 -2.9698 -0.5561
 5027TIP3   OH236495   2.693   6.649  15.306 -0.4950 -0.7484  0.1662
 5027TIP3    H136496   2.695   6.668  15.400  1.1011 -0.3088  0.0730
 5027TIP3    H236497   2.738   6.565  15.298  0.2977 -0.3009 -0.2751
 5028TIP3   OH236498   2.115   6.013   3.866 -0.1922 -0.0762 -0.5444
 5028TIP3    H136499   2.204   6.025   3.899  0.0124  1.7732 -1.6335
 5028TIP3    H236500   2.059   6.032   3.941  0.3172 -0.3682 -0.0863
 5029TIP3   OH236501   4.655   0.389  16.764 -0.5337  0.3786  0.2811
 5029TIP3    H136502   4.650   0.301  16.725  0.4241  0.0576  0.8333
 5029TIP3    H236503   4.603   0.444  16.706 -1.2038 -0.5681 -0.0430
 5030TIP3   OH236504   5.887   1.826  13.763 -0.1525 -0.2101 -0.0625
 5030TIP3    H136505   5.812   1.770  13.786 -0.3944 -0.7359 -1.9587
 5030TIP3    H236506   5.962   1.786  13.807 -0.6178 -1.0149  0.0082
 5031TIP3   OH236507   0.290   1.217  14.867  0.4410  0.2742 -0.6034
 5031TIP3    H136508   0.214   1.172  14.905  0.0211 -0.4857 -2.2353
 5031TIP3    H236509   0.273   1.310  14.883 -0.1787  0.0350  0.2087
 5032TIP3   OH236510   3.901   3.588  15.283  0.7816 -0.5027 -0.5059
 5032TIP3    H136511   3.970   3.555  15.226  0.3975 -1.8203 -0.2216
 5032TIP3    H236512   3.892   3.523  15.352 -1.9804 -1.3526 -1.5003
 5033TIP3   OH236513   1.596   5.854  15.890  0.3875 -0.5307  0.7539
 5033TIP3    H136514   1.513   5.808  15.882  0.0748  0.1306  0.0747
 5033TIP3    H236515   1.649   5.824  15.816 -0.7450  2.0129 -1.2252
 5034TIP3   OH236516   3.568   0.798   3.671 -0.1486  0.3563  0.0156
 5034TIP3    H136517   3.599   0.793   3.580 -1.2417 -1.4949 -0.3036
 5034TIP3    H236518   3.525   0.884   3.676  0.1710  0.6105 -1.1416
 5035TIP3   OH236519   3.837   3.449  13.180  0.0888 -0.3509  0.1172
 5035TIP3    H136520   3.821   3.519  13.243 -2.9075 -0.3763 -0.4494
 5035TIP3    H236521   3.801   3.370  13.221  3.3041 -1.7003  0.7037
 5036TIP3   OH236522   5.105   1.257  14.754 -0.1893  0.2396 -0.3469
 5036TIP3    H136523   5.017   1.280  14.726 -0.3563 -0.2844 -0.2707
 5036TIP3    H236524   5.158   1.334  14.734 -0.3865  0.0549 -1.7058
 5037TIP3   OH236525   3.552   0.517   3.691  0.0236 -0.1293 -0.1363
 5037TIP3    H136526   3.547   0.613   3.685  0.4159 -0.1772 -1.4931
 5037TIP3    H236527   3.572   0.489   3.602  2.2420 -1.3266  0.6757
 5038TIP3   OH236528   2.626   6.392   6.264  0.9240  0.2951  0.3464
 5038TIP3    H136529   2.560   6.382   6.333 -1.4308  0.5121 -1.7381
 5038TIP3    H236530   2.579   6.370   6.183  3.5259  0.1933 -1.2258
 5039TIP3   OH236531   5.557   3.667  12.176  0.2200  0.6033  0.4668
 5039TIP3    H136532   5.528   3.758  12.166 -1.9953 -0.3148 -3.0510
 5039TIP3    H236533   5.634   3.659  12.119  0.2548  0.2178  0.5615
 5040TIP3   OH236534   4.193   2.329  15.782 -0.2432  0.0381 -0.2843
 5040TIP3    H136535   4.154   2.242  15.778  0.1069 -0.1006 -0.7798
 5040TIP3    H236536   4.286   2.312  15.800 -0.1490  0.3015 -0.5155
 5041TIP3   OH236537   0.881   5.626  16.774 -0.2887  0.2461 -0.2964
 5041TIP3    H136538   0.811   5.581  16.728 -1.3661  0.8299  0.7243
 5041TIP3    H236539   0.838   5.700  16.817  1.0864  1.0703 -0.2722
 5042TIP3   OH236540   3.104   0.534  14.027  0.1801  0.0965 -0.5840
 5042TIP3    H136541   3.195   0.511  14.008 -0.6232 -2.0725 -2.4325
 5042TIP3    H236542   3.108   0.592  14.102  3.0681 -0.0706 -0.5073
 5043TIP3   OH236543   1.593   0.674  13.984  0.9158 -0.3500 -0.1562
 5043TIP3    H136544   1.580   0.744  14.048  0.5822  0.0006 -0.6000
 5043TIP3    H236545   1.521   0.614  14.000  0.1561  0.3249 -0.9587
 5044TIP3   OH236546   1.309   6.536   6.459  0.2440  0.3033 -0.2266
 5044TIP3    H136547   1.345   6.481   6.528  1.1406  0.8024 -0.2909
 5044TIP3    H236548   1.255   6.600   6.505 -0.2377 -0.1812 -0.1010
 5045TIP3   OH236549   5.481   2.210   3.325  0.1000  0.1095 -0.6275
 5045TIP3    H136550   5.431   2.157   3.263  0.5678 -1.2693  0.1376
 5045TIP3    H236551   5.466   2.169   3.410  1.3685  0.5370 -0.1685
 5046TIP3   OH236552   3.316   4.817  16.070 -0.5161 -0.0851 -0.2079
 5046TIP3    H136553   3.402   4.775  16.063 -0.7090 -0.3831 -0.8261
 5046TIP3    H236554   3.337   4.910  16.082 -0.0367  0.4177 -3.6563
 5047TIP3   OH236555   6.079   4.251   5.843 -0.0985  0.4438 -0.3920
 5047TIP3    H136556   6.029   4.255   5.762 -0.6037 -0.0729 -0.1092
 5047TIP3    H236557   6.121   4.337   5.849  1.8449 -0.2747 -2.3787
 5048TIP3   OH236558   0.954   0.557  16.559  0.2587 -0.6720  0.0835
 5048TIP3    H136559   1.008   0.480  16.543  0.3003 -0.8804  1.1420
 5048TIP3    H236560   0.870   0.522  16.588  0.0664 -0.3248 -0.0458
 5049TIP3   OH236561   4.603   0.202   1.693 -0.1394 -0.1418 -0.9642
 5049TIP3    H136562   4.623   0.294   1.676 -0.3093  0.1660  0.3984
 5049TIP3    H236563   4.541   0.204   1.766  0.1399 -1.3457 -0.6741
 5050TIP3   OH236564   4.726   3.108  11.341 -0.9181 -0.2947 -0.5686
 5050TIP3    H136565   4.793   3.136  11.404 -0.4078 -1.7695 -0.4343
 5050TIP3    H236566   4.757   3.142  11.257 -1.3017  1.1701 -0.1648
 5051TIP3   OH236567   2.167   2.737  11.890 -0.0982  0.0428 -0.4940
 5051TIP3    H136568   2.158   2.683  11.968 -1.2126  0.3820 -0.3804
 5051TIP3    H236569   2.262   2.741  11.874  0.0321 -1.6094 -0.2851
 5052TIP3   OH236570   5.778   1.996  11.039  0.1227 -0.2165  0.4879
 5052TIP3    H136571   5.737   2.028  11.119 -2.3703 -2.2433  0.1431
 5052TIP3    H236572   5.853   1.945  11.070 -0.5335 -0.5938  1.5000
 5053TIP3   OH236573   0.389   1.743   2.067  0.2027  0.2839  0.0659
 5053TIP3    H136574   0.475   1.761   2.105  0.1382 -0.8086  0.7837
 5053TIP3    H236575   0.328   1.755   2.139  0.0015 -1.0577  0.1569
 5054TIP3   OH236576   6.040   5.109   3.425 -0.5649  0.2731 -0.5570
 5054TIP3    H136577   6.078   5.022   3.414 -1.7696 -0.1492 -1.5656
 5054TIP3    H236578   6.113   5.169   3.407 -0.1366 -0.5254 -1.6190
 5055TIP3   OH236579   3.616   1.674  12.537 -0.5105 -0.5684  0.0439
 5055TIP3    H136580   3.676   1.611  12.577 -1.7669 -1.5062  0.4968
 5055TIP3    H236581   3.614   1.747  12.599 -0.3848 -0.8419  0.3764
 5056TIP3   OH236582   0.084   2.472  15.736  0.0856  0.1771  0.1994
 5056TIP3    H136583   0.001   2.475  15.688  0.6082  2.9692 -0.7083
 5056TIP3    H236584   0.141   2.533  15.689  2.6509 -1.5353  0.8819
 5057TIP3   OH236585   1.873   3.024   3.536  0.2862  0.1790 -0.3496
 5057TIP3    H136586   1.824   2.942   3.542 -0.1602  0.2789 -2.0486
 5057TIP3    H236587   1.965   2.996   3.539  0.1435 -0.4401 -1.2256
 5058TIP3   OH236588   2.245   4.275   1.527 -0.0773 -0.2460 -0.3572
 5058TIP3    H136589   2.162   4.232   1.546 -1.1704  1.5753 -0.8214
 5058TIP3    H236590   2.294   4.270   1.610 -0.9230 -0.7217  0.1298
 5059TIP3   OH236591   3.090   6.132   2.765  0.1685  0.5029 -0.5620
 5059TIP3    H136592   3.103   6.059   2.705 -0.3685  0.2630 -0.3871
 5059TIP3    H236593   3.133   6.105   2.846  1.3347  1.0328 -0.9781
 5060TIP3   OH236594   6.728   1.283   0.578 -0.3376  0.2119  0.2204
 5060TIP3    H136595   6.635   1.273   0.597  0.1971  0.1028  3.3464
 5060TIP3    H236596   6.758   1.194   0.558 -0.5833 -0.0722  1.0781
 5061TIP3   OH236597   3.668   5.494  16.655  0.4252  0.0682  0.4239
 5061TIP3    H136598   3.644   5.432  16.724  0.5330  1.5757  1.8751
 5061TIP3    H236599   3.763   5.483  16.645  0.3882 -0.2543  0.4006
 5062TIP3   OH236600   2.654   0.433   3.513 -0.3932  0.1801  0.1352
 5062TIP3    H136601   2.643   0.513   3.460  1.7088  1.1104  0.9983
 5062TIP3    H236602   2.681   0.366   3.450  0.5089  0.8682 -0.2298
 5063TIP3   OH236603   1.064   2.774  14.625  0.0304  0.2698  0.2167
 5063TIP3    H136604   1.129   2.753  14.692  0.5434 -3.0700 -1.1312
 5063TIP3    H236605   1.092   2.859  14.590  1.0583  1.0017  2.5889
 5064TIP3   OH236606   4.789   2.118   2.063  0.4337 -0.2011  0.1255
 5064TIP3    H136607   4.873   2.094   2.023  0.2561  0.1210 -0.4503
 5064TIP3    H236608   4.723   2.071   2.011  0.1971  0.2593  0.0064
 5065TIP3   OH236609   4.876   0.058  10.522  0.3875  0.3514  0.1376
 5065TIP3    H136610   4.813   0.062  10.594 -0.9877  0.1284 -1.0175
 5065TIP3    H236611   4.920   0.144  10.524  0.2113  0.4321  1.0807
 5066TIP3   OH236612   0.148   3.513  11.245  0.3060  0.4418 -0.3516
 5066TIP3    H136613   0.142   3.418  11.233 -2.5810  0.7440 -2.5279
 5066TIP3    H236614   0.173   3.525  11.336 -0.4036 -2.4185  0.3062
 5067TIP3   OH236615   4.993   4.395   1.575  0.3361  0.6153  0.2211
 5067TIP3    H136616   4.935   4.459   1.533 -0.0317  0.0987 -0.0787
 5067TIP3    H236617   4.935   4.321   1.595  0.3572  1.0972  2.2452
 5068TIP3   OH236618   2.709   0.270   3.227  0.0255 -0.7561  0.5908
 5068TIP3    H136619   2.639   0.226   3.276 -0.2227 -1.1761 -0.1205
 5068TIP3    H236620   2.702   0.234   3.139  0.0460  0.4543  0.0794
 5069TIP3   OH236621   5.606   4.243  13.409  0.2662 -0.4618  0.0299
 5069TIP3    H136622   5.560   4.163  13.434 -0.4801 -1.1759 -3.1048
 5069TIP3    H236623   5.549   4.314  13.439 -0.9524 -1.2462 -0.3625
 5070TIP3   OH236624   2.900   6.008  16.360  0.4484  0.6477  0.1020
 5070TIP3    H136625   2.813   5.971  16.375  0.9697 -0.3227  0.8576
 5070TIP3    H236626   2.952   5.979  16.435  1.8216 -0.0955 -1.0846
 5071TIP3   OH236627   0.004   6.314   2.001 -0.1452  0.0141  0.0073
 5071TIP3    H136628   0.020   6.273   1.916 -0.3147 -1.1497  0.5206
 5071TIP3    H236629   0.088   6.351   2.026  0.8864 -2.6445  0.8826
 5072TIP3   OH236630   3.781   0.332  15.498 -0.3298  0.0119 -0.0969
 5072TIP3    H136631   3.795   0.408  15.442  0.8053 -0.0898  0.0315
 5072TIP3    H236632   3.834   0.349  15.576  0.8617 -1.4090 -0.5553
 5073TIP3   OH236633   0.624   6.167  13.127 -0.0885 -0.1263  0.5208
 5073TIP3    H136634   0.622   6.259  13.100  0.3327 -0.2469  0.0704
 5073TIP3    H236635   0.567   6.122  13.064 -0.9021 -0.0627  1.1948
 5074TIP3   OH236636   1.433   1.336   1.881  0.2067  0.3936  0.0460
 5074TIP3    H136637   1.507   1.397   1.876 -0.2796  0.9456 -0.7987
 5074TIP3    H236638   1.458   1.273   1.948  0.4422  1.9111  1.4591
 5075TIP3   OH236639   4.233   3.777   0.300 -0.1798  0.6264 -0.0160
 5075TIP3    H136640   4.272   3.853   0.258  0.1572 -0.5458 -1.9791
 5075TIP3    H236641   4.262   3.781   0.391  0.8520  2.1489 -0.3932
 5076TIP3   OH236642   3.857   2.786  11.366 -0.3496  0.2590  0.1246
 5076TIP3    H136643   3.806   2.852  11.413 -0.5373  0.4703 -0.3665
 5076TIP3    H236644   3.852   2.813  11.274 -0.8318 -0.7117 -0.1442
 5077TIP3   OH236645   5.087   5.762   3.894  0.8478  0.0328 -0.4569
 5077TIP3    H136646   5.138   5.787   3.971  0.1624 -0.2330  0.0989
 5077TIP3    H236647   5.125   5.813   3.822  1.2919  0.5266  0.1158
 5078TIP3   OH236648   6.150   4.027  13.110  0.2401 -0.7140 -0.5319
 5078TIP3    H136649   6.219   3.968  13.142 -0.2446 -0.9538  0.0960
 5078TIP3    H236650   6.119   3.986  13.029  1.4393 -0.1334 -1.3263
 5079TIP3   OH236651   6.057   1.050  11.145 -0.5462  0.5707 -0.2554
 5079TIP3    H136652   6.061   1.145  11.134  0.3112  0.5872  0.0799
 5079TIP3    H236653   6.091   1.035  11.233  1.8952 -0.2109 -1.2391
 5080TIP3   OH236654   0.512   4.402   1.956 -0.1333  0.4119  0.5350
 5080TIP3    H136655   0.470   4.483   1.986  0.2653  0.8944 -0.1762
 5080TIP3    H236656   0.561   4.428   1.878  0.4771 -0.4030  0.6368
 5081TIP3   OH236657   6.019   1.829   4.907 -0.4970 -0.2503  0.1553
 5081TIP3    H136658   6.087   1.770   4.939  0.0616  0.4257  0.2536
 5081TIP3    H236659   6.022   1.904   4.966 -2.0879 -0.6840  0.8227
 5082TIP3   OH236660   3.706   2.224  15.145  0.3625  0.2288  0.5999
 5082TIP3    H136661   3.712   2.159  15.074  1.4241  1.9960 -1.0422
 5082TIP3    H236662   3.613   2.242  15.152  0.1971 -0.2837 -0.0795
 5083TIP3   OH236663   0.627   0.496   4.429 -1.0247 -0.9612 -0.1000
 5083TIP3    H136664   0.662   0.440   4.359 -0.0753 -0.8788  0.2954
 5083TIP3    H236665   0.611   0.436   4.502  2.6268 -0.4519  1.3338
 5084TIP3   OH236666   5.324   3.331  16.095 -0.6366  0.6277 -0.1868
 5084TIP3    H136667   5.246   3.275  16.103 -0.3750  0.0333 -1.4950
 5084TIP3    H236668   5.364   3.328  16.182 -1.8618  0.6313  0.4006
 5085TIP3   OH236669   1.526   2.079   3.943 -0.3405  0.1628 -0.3415
 5085TIP3    H136670   1.449   2.119   3.984 -0.7305 -0.8061 -0.0840
 5085TIP3    H236671   1.600   2.131   3.973 -0.7765  0.3522  0.4239
 5086TIP3   OH236672   0.845   6.456  13.288  0.4334  0.1811 -0.1724
 5086TIP3    H136673   0.929   6.412  13.273 -0.0800 -0.0040 -2.9098
 5086TIP3    H236674   0.797   6.397  13.346  1.4568 -0.6575 -0.1460
 5087TIP3   OH236675   4.057   5.301  10.996  0.4360 -0.4073 -0.6117
 5087TIP3    H136676   4.125   5.234  10.994  1.8509  0.8684  1.3203
 5087TIP3    H236677   4.083   5.364  10.929  1.2757  0.1253  0.1832
 5088TIP3   OH236678   6.430   3.537  11.605 -0.1040  0.3319 -0.0288
 5088TIP3    H136679   6.388   3.564  11.687  1.3940 -0.1117  0.9177
 5088TIP3    H236680   6.398   3.449  11.589  0.7398 -0.1558  0.8998
 5089TIP3   OH236681   4.101   5.743  14.442  0.5566  0.2557 -0.0562
 5089TIP3    H136682   4.107   5.764  14.535 -0.0940 -0.0607  0.0685
 5089TIP3    H236683   4.159   5.667  14.430 -0.0390 -0.2681  0.2875
 5090TIP3   OH236684   3.324   1.544   0.096  0.7119 -0.0282  0.3232
 5090TIP3    H136685   3.356   1.568   0.009  1.3811 -1.6503  0.0844
 5090TIP3    H236686   3.390   1.579   0.156  2.2396 -2.0283 -0.0774
 5091TIP3   OH236687   6.615   3.933  15.343 -0.5308  0.6056  0.0112
 5091TIP3    H136688   6.607   3.838  15.347 -0.1474  0.3696 -2.6593
 5091TIP3    H236689   6.705   3.951  15.372 -0.4024  0.0715 -0.0515
 5092TIP3   OH236690   0.473   6.685  12.425 -0.6403 -0.2991 -0.3980
 5092TIP3    H136691   0.410   6.657  12.359  0.9744 -0.3575 -1.9957
 5092TIP3    H236692   0.421   6.697  12.505 -2.8557  0.7724 -1.9128
 5093TIP3   OH236693   1.940   1.251  11.055  0.0112  0.6577 -0.7037
 5093TIP3    H136694   1.954   1.345  11.069 -1.0265  0.5660  1.2617
 5093TIP3    H236695   1.985   1.209  11.127 -0.8542 -0.2531 -0.6717
 5094TIP3   OH236696   3.803   4.880   2.011  0.1551  0.8609 -0.2773
 5094TIP3    H136697   3.822   4.945   1.944  2.8377  0.3664 -0.0914
 5094TIP3    H236698   3.837   4.917   2.092  1.5301 -0.6050 -0.1329
 5095TIP3   OH236699   4.206   3.859   5.040  0.3765  0.1561  0.5217
 5095TIP3    H136700   4.178   3.947   5.015 -1.2577 -0.6953 -0.8479
 5095TIP3    H236701   4.186   3.853   5.133 -1.5746  0.5396  0.1729
 5096TIP3   OH236702   0.299   1.458  12.644 -0.3181 -0.4948  0.4668
 5096TIP3    H136703   0.384   1.492  12.617 -0.1891 -1.3230 -0.2152
 5096TIP3    H236704   0.238   1.529  12.624 -0.1653 -0.8962 -1.6483
 5097TIP3   OH236705   0.221   6.709   4.458 -0.0970 -0.1964  0.8404
 5097TIP3    H136706   0.180   6.786   4.420  2.4832  2.2789  2.5924
 5097TIP3    H236707   0.197   6.711   4.551  0.8789 -0.8426  1.1352
 5098TIP3   OH236708   6.710   4.883  12.582 -0.3153 -0.0257 -0.2356
 5098TIP3    H136709   6.708   4.789  12.561  0.4758  0.2350 -1.6023
 5098TIP3    H236710   6.800   4.898  12.612 -0.5503  0.2265  0.3399
 5099TIP3   OH236711   4.008   4.970  15.809  0.0950 -0.0701  0.0476
 5099TIP3    H136712   4.077   4.919  15.851  0.0538  0.0604  0.2751
 5099TIP3    H236713   3.942   4.981  15.877 -0.7982 -1.3859 -0.5498
 5100TIP3   OH236714   3.285   3.743  14.879 -0.7976 -0.1749  0.0373
 5100TIP3    H136715   3.226   3.702  14.816 -1.3710 -0.7779  0.9404
 5100TIP3    H236716   3.357   3.778  14.826 -0.3853 -2.1827 -0.8065
 5101TIP3   OH236717   0.658   5.367  16.960  0.1570 -0.1279  0.0784
 5101TIP3    H136718   0.612   5.392  16.880 -1.0706 -1.0024  0.4822
 5101TIP3    H236719   0.596   5.386  17.031  0.1337 -1.9209  0.5891
 5102TIP3   OH236720   1.424   3.096   5.192  0.4707  0.1826  0.3050
 5102TIP3    H136721   1.377   3.063   5.268 -1.4285 -1.5948 -1.4860
 5102TIP3    H236722   1.508   3.049   5.193  0.1425 -0.4093  0.8764
 5103TIP3   OH236723   4.853   2.711  15.405  0.1644  0.3657  0.7144
 5103TIP3    H136724   4.848   2.623  15.444 -0.8718  0.0406 -0.0919
 5103TIP3    H236725   4.946   2.731  15.401  0.4159 -0.7248  0.8683
 5104TIP3   OH236726   0.722   2.020  16.872 -0.0892 -0.3205 -0.2368
 5104TIP3    H136727   0.754   2.032  16.962 -0.0774 -0.7274 -0.1886
 5104TIP3    H236728   0.799   2.039  16.817  0.0260 -0.5248 -0.1453
 5105TIP3   OH236729   2.368   4.779  13.696 -0.6348 -0.2584 -0.3087
 5105TIP3    H136730   2.338   4.804  13.609 -1.2317  1.6930  0.3877
 5105TIP3    H236731   2.304   4.716  13.727 -1.1322 -0.0116 -0.8151
 5106TIP3   OH236732   4.948   0.713  16.860  0.3715  0.5739 -0.1914
 5106TIP3    H136733   4.859   0.683  16.879  0.4233  0.4747 -0.1015
 5106TIP3    H236734   4.996   0.697  16.941 -0.0078  2.5526  0.4827
 5107TIP3   OH236735   2.366   3.501  16.606  0.0159  0.2670 -0.2833
 5107TIP3    H136736   2.389   3.537  16.692 -0.5535  1.2937 -0.5461
 5107TIP3    H236737   2.309   3.567  16.566  0.3787 -0.1275 -1.5123
 5108TIP3   OH236738   1.160   5.081   0.485  0.4437  0.4135 -0.0689
 5108TIP3    H136739   1.228   5.109   0.546  0.3787  2.7521 -0.9622
 5108TIP3    H236740   1.146   5.157   0.428 -1.7478 -0.5731 -0.9693
 5109TIP3   OH236741   5.636   2.100   3.659 -0.0876 -0.1560 -0.2209
 5109TIP3    H136742   5.575   2.157   3.612 -0.4859  0.1270  0.6224
 5109TIP3    H236743   5.665   2.152   3.733  0.8102 -0.4714 -0.3468
 5110TIP3   OH236744   0.577   6.244  14.042 -1.0708  0.6362  0.1771
 5110TIP3    H136745   0.541   6.306  14.106 -1.8034  0.0011  0.3960
 5110TIP3    H236746   0.665   6.278  14.023 -1.4037  1.6580  0.3922
 5111TIP3   OH236747   1.550   5.953  16.659 -0.5542 -0.6158 -0.3710
 5111TIP3    H136748   1.557   6.042  16.692  0.1005 -0.3857 -1.1052
 5111TIP3    H236749   1.558   5.898  16.737  0.7714 -0.0803 -0.0954
 5112TIP3   OH236750   2.556   5.393  11.070  0.1338  0.1227 -0.3943
 5112TIP3    H136751   2.530   5.435  10.988  1.7337  1.7656 -0.1206
 5112TIP3    H236752   2.540   5.300  11.056  2.2391  0.0928 -3.3422
 5113TIP3   OH236753   1.391   6.457   5.208 -0.1739 -0.5541 -0.4148
 5113TIP3    H136754   1.388   6.503   5.292 -2.8636  0.2353 -0.8669
 5113TIP3    H236755   1.307   6.475   5.167  0.7037 -1.6605 -2.9260
 5114TIP3   OH236756   0.476   0.484  16.792  0.3832 -0.3140  0.1095
 5114TIP3    H136757   0.435   0.489  16.706  0.2167 -1.8201  0.0676
 5114TIP3    H236758   0.513   0.395  16.795  0.9376 -0.0609  1.3473
 5115TIP3   OH236759   5.694   0.537   1.855 -0.3050  0.4004 -0.3583
 5115TIP3    H136760   5.719   0.540   1.947  0.1705 -1.3118 -0.3976
 5115TIP3    H236761   5.601   0.516   1.856 -0.2883  0.3299 -0.2658
 5116TIP3   OH236762   1.046   3.111  16.321 -0.1087  0.1397  0.4182
 5116TIP3    H136763   1.107   3.132  16.392 -0.0923 -1.5727  0.9502
 5116TIP3    H236764   0.963   3.150  16.348  0.6362  2.2473 -0.1787
 5117TIP3   OH236765   4.341   0.597   4.423 -0.1016  0.0108 -0.3594
 5117TIP3    H136766   4.387   0.652   4.359 -0.4024  0.2014 -0.4130
 5117TIP3    H236767   4.251   0.593   4.392  0.0639 -1.1007 -0.7424
 5118TIP3   OH236768   1.436   2.891  15.441 -0.4104 -0.1970 -0.1453
 5118TIP3    H136769   1.374   2.829  15.479  0.5145  0.0548  1.8606
 5118TIP3    H236770   1.381   2.954  15.393 -1.6717 -0.2732  1.1480
 5119TIP3   OH236771   6.712   4.141  16.325 -0.4375  0.5959 -0.0564
 5119TIP3    H136772   6.727   4.197  16.248  1.3718  0.8939  0.4703
 5119TIP3    H236773   6.720   4.200  16.399 -1.8627  0.2427  0.4115
 5120TIP3   OH236774   4.266   4.961  12.365 -0.4022  0.3269 -0.4971
 5120TIP3    H136775   4.280   4.886  12.424 -1.0444 -0.0782 -0.8424
 5120TIP3    H236776   4.314   5.033  12.406  1.4468 -0.6269 -0.9090
 5121TIP3   OH236777   4.443   3.341   1.282  0.0943  0.7895  0.2337
 5121TIP3    H136778   4.387   3.285   1.337  1.7397 -0.8626  0.3158
 5121TIP3    H236779   4.382   3.401   1.240 -1.7143 -0.7022  0.5824
 5122TIP3   OH236780   4.380   5.680  15.427 -0.1664  0.1668  0.7638
 5122TIP3    H136781   4.305   5.691  15.485 -2.1846 -1.5368 -1.3252
 5122TIP3    H236782   4.348   5.706  15.340  2.5298  2.0351  0.1869
 5123TIP3   OH236783   0.334   5.082   5.824  0.0410 -0.2329  0.3628
 5123TIP3    H136784   0.369   5.164   5.789  2.7925 -0.8835  1.3371
 5123TIP3    H236785   0.402   5.018   5.806 -0.4722 -1.5537  2.7610
 5124TIP3   OH236786   5.461   3.142  15.706 -0.0505  0.7332 -0.3346
 5124TIP3    H136787   5.390   3.148  15.643 -0.2840 -2.1078 -0.4775
 5124TIP3    H236788   5.541   3.135  15.653 -0.1851 -0.9794 -0.3700
 5125TIP3   OH236789   6.767   5.006   1.291 -0.4610  0.0870  0.4561
 5125TIP3    H136790   6.821   4.942   1.338 -1.9338  0.2288  2.5003
 5125TIP3    H236791   6.830   5.063   1.246  1.1649  0.4913  3.0299
 5126TIP3   OH236792   4.646   1.665   0.901 -0.2668 -0.3153 -0.2295
 5126TIP3    H136793   4.579   1.711   0.851 -0.9114  1.9116  2.4339
 5126TIP3    H236794   4.597   1.596   0.948 -0.3962  0.1784  0.3689
 5127TIP3   OH236795   1.393   0.168   3.472  0.3574 -0.1482 -0.0046
 5127TIP3    H136796   1.340   0.102   3.426  2.2141 -0.8311 -1.2645
 5127TIP3    H236797   1.359   0.167   3.562 -1.7275 -0.5607 -0.7398
 5128TIP3   OH236798   6.419   6.269  16.947 -0.0545 -0.3893 -0.4809
 5128TIP3    H136799   6.388   6.359  16.940  0.0612 -0.4804 -2.9061
 5128TIP3    H236800   6.339   6.218  16.959 -0.1985 -0.0464  0.0423
 5129TIP3   OH236801   6.301   0.688  14.348 -0.3498 -0.2046 -0.3887
 5129TIP3    H136802   6.369   0.636  14.304  0.3685 -0.5400  1.0808
 5129TIP3    H236803   6.348   0.763  14.385 -0.6840 -0.6691  1.0296
 5130TIP3   OH236804   1.988   5.350  10.381  0.3015  0.7062  0.0253
 5130TIP3    H136805   1.900   5.387  10.391 -0.4645 -0.6737 -1.1718
 5130TIP3    H236806   2.034   5.413  10.324 -0.1787  1.0162 -0.0276
 5131TIP3   OH236807   0.380   3.814   4.530  0.2638 -0.1625  0.4955
 5131TIP3    H136808   0.316   3.869   4.484  0.8814  0.1276 -0.0300
 5131TIP3    H236809   0.327   3.746   4.573 -0.3817 -0.0018 -0.0330
 5132TIP3   OH236810   5.949   2.475   3.416  0.0701 -0.3099 -0.2147
 5132TIP3    H136811   6.029   2.525   3.400 -0.2126  0.3695  0.4254
 5132TIP3    H236812   5.894   2.533   3.470 -0.0527 -1.4963  1.0055
 5133TIP3   OH236813   5.869   1.697  13.319 -0.8240 -0.1554 -0.1852
 5133TIP3    H136814   5.813   1.774  13.328 -0.8437 -0.1180 -0.5767
 5133TIP3    H236815   5.892   1.696  13.226  1.1167  0.7158  0.2356
 5134TIP3   OH236816   3.907   3.025  13.002 -0.6066 -0.2865  0.1544
 5134TIP3    H136817   3.833   2.972  13.030 -0.2930 -0.9483 -0.2623
 5134TIP3    H236818   3.979   2.964  12.992 -0.2988  0.1681 -0.5626
 5135TIP3   OH236819   5.708   3.854   6.623 -0.6628 -0.0141  0.1033
 5135TIP3    H136820   5.724   3.935   6.670 -0.6522  1.4116 -2.1799
 5135TIP3    H236821   5.787   3.801   6.638  0.3849  1.3914 -0.2594
 5136TIP3   OH236822   1.040   2.579   1.899 -0.2426 -0.0688 -0.5065
 5136TIP3    H136823   1.129   2.551   1.876 -0.9134 -0.7570 -2.4633
 5136TIP3    H236824   0.991   2.498   1.909 -1.0937  0.3228 -1.4029
 5137TIP3   OH236825   1.720   3.955   3.041 -0.0722 -0.4593 -0.7425
 5137TIP3    H136826   1.811   3.926   3.049 -0.3863 -1.1010  0.7463
 5137TIP3    H236827   1.672   3.901   3.103 -1.2807  0.7292 -0.6044
 5138TIP3   OH236828   0.087   6.798  16.460  0.6854 -0.1434 -0.2657
 5138TIP3    H136829   0.094   6.725  16.522  0.2882  0.5212  0.5805
 5138TIP3    H236830   0.173   6.800  16.417  0.5732 -1.3454 -0.5898
 5139TIP3   OH236831   0.758   2.256   5.234 -0.0453 -0.0339 -0.0135
 5139TIP3    H136832   0.843   2.255   5.190 -0.3522  0.8300 -0.6314
 5139TIP3    H236833   0.777   2.224   5.323  0.5370 -2.0127 -0.7957
 5140TIP3   OH236834   1.192   5.368   3.222  0.0123  0.0977 -0.2467
 5140TIP3    H136835   1.198   5.339   3.131  0.8080 -0.2771 -0.0796
 5140TIP3    H236836   1.103   5.403   3.229  0.0931  0.5617 -1.2882
 5141TIP3   OH236837   3.182   2.520  13.331  0.4234  0.3632 -0.0072
 5141TIP3    H136838   3.275   2.540  13.339  0.0669  1.8894  0.7252
 5141TIP3    H236839   3.149   2.519  13.421 -0.5647  1.4857 -0.3341
 5142TIP3   OH236840   1.440   5.937  12.713  0.5358  0.3326 -0.2013
 5142TIP3    H136841   1.463   5.900  12.798 -1.6683  0.8697  0.6861
 5142TIP3    H236842   1.514   5.994  12.691  1.1831  0.1196  1.3015
 5143TIP3   OH236843   5.407   2.369   4.502 -0.4560 -0.2725  0.6231
 5143TIP3    H136844   5.337   2.427   4.531 -0.1174  0.3312  0.2481
 5143TIP3    H236845   5.427   2.316   4.579 -0.3577  0.5256  1.1641
 5144TIP3   OH236846   3.274   5.125   3.735 -0.0688 -0.1228  0.0577
 5144TIP3    H136847   3.319   5.200   3.696 -1.6363  0.7665 -0.1194
 5144TIP3    H236848   3.187   5.125   3.694 -0.4642 -1.3997  0.8393
 5145TIP3   OH236849   4.948   5.293  15.000 -0.7955 -0.0188 -0.0360
 5145TIP3    H136850   4.973   5.269  14.911  1.4674 -2.3116  1.0880
 5145TIP3    H236851   4.943   5.389  14.999 -0.0389  0.0531 -2.4146
 5146TIP3   OH236852   4.434   6.258  10.457 -0.1857 -0.3828  0.3781
 5146TIP3    H136853   4.456   6.261  10.363  0.7942  1.5692  0.6048
 5146TIP3    H236854   4.503   6.204  10.496  0.0760 -0.2368  0.1226
 5147TIP3   OH236855   2.655   0.468  16.679  0.5759 -0.5382 -0.2662
 5147TIP3    H136856   2.702   0.549  16.700 -1.5149  0.3586  1.4018
 5147TIP3    H236857   2.612   0.485  16.596 -2.5916  1.5363  1.5912
 5148TIP3   OH236858   0.690   6.516  12.408  0.4953  0.2645 -0.6068
 5148TIP3    H136859   0.621   6.579  12.430 -1.6343 -2.1102 -0.0394
 5148TIP3    H236860   0.717   6.540  12.320 -0.9103  1.4037 -0.7643
 5149TIP3   OH236861   1.113   5.610  16.637  0.8521  0.6580  0.3153
 5149TIP3    H136862   1.119   5.699  16.600  0.7720 -0.3683 -2.4137
 5149TIP3    H236863   1.028   5.609  16.681 -0.0967  1.4022 -1.3668
 5150TIP3   OH236864   0.792   2.690   4.405  0.4655 -0.0613  0.1950
 5150TIP3    H136865   0.748   2.725   4.327 -0.6708  0.1069  0.8931
 5150TIP3    H236866   0.873   2.740   4.411  1.1441 -0.8644 -1.5252
 5151TIP3   OH236867   6.546   3.462  13.174 -0.1640  0.4857  0.2323
 5151TIP3    H136868   6.624   3.433  13.222 -0.0189  3.1894  1.8301
 5151TIP3    H236869   6.579   3.482  13.086  0.0964 -1.9874 -0.3214
 5152TIP3   OH236870   1.254   1.225  15.228  0.1787  0.1143  0.2311
 5152TIP3    H136871   1.277   1.135  15.250 -2.4753 -0.4884  0.9664
 5152TIP3    H236872   1.268   1.231  15.134  1.2375 -0.7608  0.3082
 5153TIP3   OH236873   3.564   5.613   3.450  0.3285 -0.3452  0.3527
 5153TIP3    H136874   3.490   5.674   3.446  0.2081 -0.4454  1.0259
 5153TIP3    H236875   3.617   5.644   3.524  0.6810 -0.5933  0.2079
 5154TIP3   OH236876   3.881   1.066   0.692 -0.2190 -0.6489 -0.1629
 5154TIP3    H136877   3.788   1.090   0.687 -0.1051  0.9273  2.7667
 5154TIP3    H236878   3.926   1.149   0.713  2.0455 -1.1719 -2.4415
 5155TIP3   OH236879   3.790   1.820  16.949  0.1585  0.1614 -0.1090
 5155TIP3    H136880   3.880   1.853  16.955  0.4874 -0.8704  1.1753
 5155TIP3    H236881   3.748   1.849  17.030 -1.0904  1.7293 -1.2563
 5156TIP3   OH236882   6.115   0.171   3.257 -0.0724 -0.2064  0.1021
 5156TIP3    H136883   6.099   0.112   3.331 -0.6416  0.7107  0.7389
 5156TIP3    H236884   6.062   0.248   3.277 -2.4691 -0.9854 -2.5733
 5157TIP3   OH236885   4.544   6.718  17.056  0.2277  0.7250 -0.3134
 5157TIP3    H136886   4.559   6.802  17.101 -0.0093  1.1371 -0.9838
 5157TIP3    H236887   4.488   6.668  17.115  3.1562 -0.3921  1.7372
 5158TIP3   OH236888   1.314   1.704   5.009  0.2952  0.3747  0.0064
 5158TIP3    H136889   1.391   1.653   4.987 -0.5510 -0.6672 -0.6717
 5158TIP3    H236890   1.252   1.685   4.939 -1.1639 -0.0882  1.3647
 5159TIP3   OH236891   2.105   5.694  12.982 -0.2383 -0.0482  0.4451
 5159TIP3    H136892   2.019   5.683  13.023 -0.1191  0.9113  0.9756
 5159TIP3    H236893   2.167   5.660  13.047 -0.1052  0.7724  0.7606
 5160TIP3   OH236894   4.018   3.404  14.500  0.4285  0.2396  0.2084
 5160TIP3    H136895   4.028   3.435  14.590  0.0855  0.2362  0.2497
 5160TIP3    H236896   4.005   3.484  14.449  1.5836  0.3152  0.0231
 5161TIP3   OH236897   6.695   0.069   0.496  0.0323  0.5007 -0.0346
 5161TIP3    H136898   6.729  -0.015   0.527  0.8669  1.1585  0.9143
 5161TIP3    H236899   6.604   0.052   0.475  0.2254 -0.6713  0.0127
 5162TIP3   OH236900   3.492   1.615   4.953 -0.0188 -0.8233  0.6643
 5162TIP3    H136901   3.494   1.533   5.001  1.1922 -0.5263  1.1535
 5162TIP3    H236902   3.399   1.638   4.948 -0.1989 -0.9865  2.6403
 5163TIP3   OH236903   4.496   6.067  12.731  1.0533  0.5088  0.1850
 5163TIP3    H136904   4.519   6.037  12.642 -0.3937 -2.0052  0.5480
 5163TIP3    H236905   4.559   6.022  12.788  0.0155 -0.4647  0.6110
 5164TIP3   OH236906   1.755   4.335  13.107  0.2285 -0.0691  0.3132
 5164TIP3    H136907   1.746   4.429  13.125  0.6741 -0.4469  2.8644
 5164TIP3    H236908   1.694   4.319  13.035 -0.7230  1.9699  0.5926
 5165TIP3   OH236909   1.766   4.152   5.164 -0.5044  0.1164 -0.1917
 5165TIP3    H136910   1.759   4.180   5.255  0.2394  1.0692 -0.4025
 5165TIP3    H236911   1.676   4.153   5.131 -0.9632 -1.6156  0.8943
 5166TIP3   OH236912   4.779   4.081  15.453  0.5362 -0.5877  0.2230
 5166TIP3    H136913   4.738   4.152  15.404 -1.7279 -3.2939 -2.1658
 5166TIP3    H236914   4.863   4.117  15.482 -0.4366  2.9623 -0.8666
 5167TIP3   OH236915   1.276   6.551  16.838 -0.1066 -0.1116  0.3936
 5167TIP3    H136916   1.334   6.518  16.769  0.2190  0.7899  0.2186
 5167TIP3    H236917   1.335   6.592  16.901 -0.4226 -0.7357  1.1054
 5168TIP3   OH236918   3.348   3.532   5.013  0.2976 -0.1440 -0.1914
 5168TIP3    H136919   3.399   3.511   4.936  1.8069  1.1388  0.4061
 5168TIP3    H236920   3.258   3.542   4.981  0.6814 -0.8557 -1.5325
 5169TIP3   OH236921   4.380   2.257  10.642 -0.7597 -0.5825  0.5014
 5169TIP3    H136922   4.403   2.195  10.573 -1.0149  0.6492 -0.7361
 5169TIP3    H236923   4.307   2.217  10.688  0.6154 -2.2850  1.2934
 5170TIP3   OH236924   0.973   6.753   0.644 -0.1635  0.4859  0.4845
 5170TIP3    H136925   1.043   6.774   0.706  0.3122  0.0390  0.1069
 5170TIP3    H236926   0.918   6.832   0.643  1.3559  1.5862 -0.5912
 5171TIP3   OH236927   5.365   4.659   5.141 -0.6701 -0.0498 -0.8303
 5171TIP3    H136928   5.441   4.626   5.093  1.6824  1.7081  1.4124
 5171TIP3    H236929   5.337   4.736   5.091  0.8497  0.9331 -0.2338
 5172TIP3   OH236930   2.961   3.700   1.748  0.4128 -0.2466 -0.1329
 5172TIP3    H136931   2.984   3.662   1.663 -0.5396 -2.0224  0.3540
 5172TIP3    H236932   2.883   3.753   1.731  0.5844 -0.0980 -0.4666
 5173TIP3   OH236933   0.062   2.496  13.955  0.0462  0.5018  0.5218
 5173TIP3    H136934   0.012   2.476  14.035 -0.0920 -2.0137 -0.0955
 5173TIP3    H236935   0.037   2.427  13.894  1.5115  1.3298 -1.0928
 5174TIP3   OH236936   1.432   6.652  15.632  0.4920  0.5756 -0.3494
 5174TIP3    H136937   1.506   6.610  15.675  0.8680  0.6398 -0.9257
 5174TIP3    H236938   1.424   6.606  15.548 -0.5104  0.1478 -0.0402
 5175TIP3   OH236939   4.734   4.026   6.229 -0.3424 -0.3849 -0.2274
 5175TIP3    H136940   4.829   4.016   6.230 -0.2330  0.5605  1.3043
 5175TIP3    H236941   4.700   3.937   6.233  0.4681 -0.7323 -0.8608
 5176TIP3   OH236942   0.475   2.234  16.034 -0.0679  0.3726 -0.1041
 5176TIP3    H136943   0.434   2.301  16.089  0.5869 -0.0374  0.9074
 5176TIP3    H236944   0.452   2.260  15.944  0.0638  1.8901  0.2620
 5177TIP3   OH236945   3.472   2.089  10.540 -0.3519 -0.0243 -0.0327
 5177TIP3    H136946   3.527   2.091  10.461  1.8885 -1.4931  1.3744
 5177TIP3    H236947   3.515   2.150  10.600 -2.4319  1.6119 -0.1197
 5178TIP3   OH236948   1.105   4.253  16.965 -0.1748  0.3912 -1.1425
 5178TIP3    H136949   1.097   4.159  16.947  1.1663 -0.4453  2.0136
 5178TIP3    H236950   1.191   4.277  16.932  0.1360  0.1406 -0.5032
 5179TIP3   OH236951   4.179   5.636   5.152  0.1779 -0.4858 -0.2422
 5179TIP3    H136952   4.181   5.551   5.110  0.5177 -0.3063 -0.5931
 5179TIP3    H236953   4.109   5.629   5.217 -1.4098 -0.2877 -1.8598
 5180TIP3   OH236954   2.488   0.293   4.249 -0.0878  0.1012  0.2580
 5180TIP3    H136955   2.527   0.367   4.295  1.2399 -0.4392  0.0359
 5180TIP3    H236956   2.417   0.332   4.197  0.9507  1.3203 -0.2931
 5181TIP3   OH236957   4.867   5.141   4.203  0.2137 -0.0515 -0.3472
 5181TIP3    H136958   4.843   5.049   4.199 -0.9881  0.2486 -0.5219
 5181TIP3    H236959   4.949   5.143   4.252  0.7001 -1.2816 -1.0775
 5182TIP3   OH236960   2.933   5.194   1.621  0.7921  0.5552  0.4141
 5182TIP3    H136961   2.985   5.140   1.562  0.0881  0.0958  0.2036
 5182TIP3    H236962   2.994   5.218   1.691  1.6739  1.2085 -0.5422
 5183TIP3   OH236963   0.374   1.803  10.966  1.0831 -0.0171  0.3985
 5183TIP3    H136964   0.348   1.729  10.911 -2.1138 -1.2109  3.1023
 5183TIP3    H236965   0.457   1.832  10.930  1.6448 -3.7919 -1.9363
 5184TIP3   OH236966   2.407   1.668   5.328 -0.1934 -0.0520 -0.2850
 5184TIP3    H136967   2.397   1.575   5.346 -0.7578 -0.0138 -0.4100
 5184TIP3    H236968   2.352   1.685   5.252 -0.9790  0.6003  0.4130
 5185TIP3   OH236969   0.251   6.705  15.019  0.2282 -0.1265 -0.2085
 5185TIP3    H136970   0.273   6.621  15.060  0.0869  0.4852  1.1871
 5185TIP3    H236971   0.322   6.764  15.044 -0.4597  0.5697  0.1617
 5186TIP3   OH236972   2.485   1.399  11.873 -0.1715  0.5157  0.4275
 5186TIP3    H136973   2.435   1.440  11.802 -0.8727  0.6522  0.9990
 5186TIP3    H236974   2.439   1.318  11.892  0.6738 -0.0892 -0.0421
 5187TIP3   OH236975   1.435   2.948  12.870 -0.7097  0.1795 -0.0447
 5187TIP3    H136976   1.427   2.954  12.965  0.4818  0.3674  0.0555
 5187TIP3    H236977   1.377   2.876  12.846  0.4825 -1.1859  1.0497
 5188TIP3   OH236978   2.106   2.959   1.649  0.0967  0.1482  0.8223
 5188TIP3    H136979   2.156   3.040   1.656  0.1969  0.0935  0.7483
 5188TIP3    H236980   2.170   2.894   1.619  0.4335 -0.3318  2.4324
 5189TIP3   OH236981   5.441   3.491   5.408 -0.4294 -0.3930 -0.8567
 5189TIP3    H136982   5.429   3.585   5.420 -1.5078 -0.2982 -2.5612
 5189TIP3    H236983   5.428   3.454   5.496 -0.5390  0.9726 -0.2791
 5190TIP3   OH236984   6.616   0.666  12.578 -0.0918 -0.5600 -0.8092
 5190TIP3    H136985   6.672   0.595  12.607 -1.3616 -0.8980  1.0231
 5190TIP3    H236986   6.541   0.623  12.536  0.2169 -0.1904 -1.7674
 5191TIP3   OH236987   0.807   2.047  15.004 -0.1980  0.3794 -0.3374
 5191TIP3    H136988   0.858   2.085  14.932 -1.1487 -2.0804 -2.4803
 5191TIP3    H236989   0.749   1.983  14.962 -2.3070  0.2638  2.4248
 5192TIP3   OH236990   1.694   2.242  12.270 -0.2068 -0.0962 -0.8368
 5192TIP3    H136991   1.632   2.271  12.337  0.0567  0.9998 -1.0391
 5192TIP3    H236992   1.681   2.148  12.264 -1.1340 -0.0275 -0.1489
 5193TIP3   OH236993   4.060   4.801  11.690 -0.5919 -0.0664 -0.7572
 5193TIP3    H136994   4.055   4.753  11.607  3.1241 -2.8245  0.3078
 5193TIP3    H236995   4.141   4.852  11.683  0.1639 -0.8653  1.3185
 5194TIP3   OH236996   1.823   2.939  11.054 -0.0401  0.4168  0.0020
 5194TIP3    H136997   1.768   2.974  10.984  0.0488  0.2362 -0.1598
 5194TIP3    H236998   1.912   2.949  11.021  0.1448  2.3021  0.9731
 5195TIP3   OH236999   3.249   3.921   2.909 -0.2368  0.0341 -0.1474
 5195TIP3    H137000   3.258   3.901   2.816 -2.8129  1.6814 -0.8660
 5195TIP3    H237001   3.168   3.878   2.935 -0.1468  0.5355  1.0240
 5196TIP3   OH237002   1.585   2.948   2.814  0.4581  0.3744 -0.7202
 5196TIP3    H137003   1.660   3.002   2.790  1.8237 -0.7565  0.8102
 5196TIP3    H237004   1.520   3.011   2.847  0.6537  1.3676 -2.1453
 5197TIP3   OH237005   1.477   6.482  14.778 -0.5883  0.3710  0.3071
 5197TIP3    H137006   1.548   6.418  14.779 -0.3287  0.6604  0.8920
 5197TIP3    H237007   1.435   6.472  14.863 -0.8870  0.6031  0.1887
 5198TIP3   OH237008   4.268   4.988  14.733  0.2952  0.2008 -0.8741
 5198TIP3    H137009   4.297   5.051  14.667 -3.6994  0.4104 -2.7213
 5198TIP3    H237010   4.194   5.031  14.777 -1.0506 -2.2163 -0.5663
 5199TIP3   OH237011   4.287   5.985   3.000  0.4593 -0.0437 -0.4551
 5199TIP3    H137012   4.267   6.072   3.035 -1.0625 -0.0634 -1.1810
 5199TIP3    H237013   4.354   6.000   2.935 -0.9071  0.8663 -1.7205
 5200TIP3   OH237014   3.262   5.569  10.758 -0.0977  0.3195 -0.0238
 5200TIP3    H137015   3.283   5.489  10.710 -0.2039 -0.4261  1.1143
 5200TIP3    H237016   3.240   5.632  10.691  0.5872 -0.4274 -0.9891
 5201TIP3   OH237017   5.204   6.138  14.281  0.4829 -0.1142 -0.2542
 5201TIP3    H137018   5.194   6.060  14.336 -0.7245  0.0530 -0.2140
 5201TIP3    H237019   5.200   6.212  14.341 -0.0262  0.0373 -0.4697
 5202TIP3   OH237020   5.205   6.244  15.223 -0.2372  0.8831  0.0043
 5202TIP3    H137021   5.192   6.170  15.163 -1.6649  1.3047 -0.2518
 5202TIP3    H237022   5.175   6.320  15.174  0.6696  1.5590  0.4759
 5203TIP3   OH237023   4.439   4.762  15.178 -0.1142 -0.1084 -0.4739
 5203TIP3    H137024   4.413   4.790  15.266  1.2977  1.6970 -0.5767
 5203TIP3    H237025   4.392   4.820  15.119  1.9299  1.3964 -0.7329
 5204TIP3   OH237026   5.190   2.670   5.429  0.2205  0.3343 -0.4452
 5204TIP3    H137027   5.227   2.697   5.513 -2.7830  2.1715  0.4496
 5204TIP3    H237028   5.232   2.727   5.365  0.3015  1.0732  0.2525
 5205TIP3   OH237029   2.571   3.794   0.147  0.0030 -0.1818  0.5578
 5205TIP3    H137030   2.579   3.794   0.051 -0.5007 -1.7867  0.4830
 5205TIP3    H237031   2.503   3.728   0.165  0.9268 -0.7612  2.0760
 5206TIP3   OH237032   4.805   1.206  14.668 -0.0565 -0.0691 -0.6755
 5206TIP3    H137033   4.775   1.146  14.736 -1.0221 -0.1541 -1.1640
 5206TIP3    H237034   4.785   1.293  14.703  0.6739 -0.0519 -0.2823
 5207TIP3   OH237035   1.198   5.960  10.377 -0.0891 -0.4977  0.0064
 5207TIP3    H137036   1.202   5.881  10.432  0.6817  0.5967  1.6255
 5207TIP3    H237037   1.110   5.995  10.391  0.2486  0.0179  0.9567
 5208TIP3   OH237038   4.966   2.325   6.104 -0.6905 -0.7976 -0.5243
 5208TIP3    H137039   4.886   2.275   6.121 -1.1878  0.3711  0.7927
 5208TIP3    H237040   4.945   2.413   6.135  0.7127 -0.1743 -1.2804
 5209TIP3   OH237041   4.576   5.071  11.654 -0.9937  0.4827 -0.4120
 5209TIP3    H137042   4.570   5.098  11.562 -0.7551  1.7412 -0.0652
 5209TIP3    H237043   4.523   5.134  11.702  0.9283  1.4081  0.6154
 5210TIP3   OH237044   5.501   3.935  12.140 -0.0107 -0.2125  0.1783
 5210TIP3    H137045   5.407   3.944  12.124 -0.3211  2.2956  2.7619
 5210TIP3    H237046   5.540   4.015  12.104  0.9091 -0.4399  0.6344
 5211TIP3   OH237047   0.296   5.772  15.821  0.0424  0.2886 -0.9638
 5211TIP3    H137048   0.343   5.738  15.897 -2.0853  1.4479  1.0017
 5211TIP3    H237049   0.248   5.697  15.787 -1.2861  0.2903  0.7311
 5212TIP3   OH237050   4.460   2.002   3.878  0.5610  0.3391 -0.1530
 5212TIP3    H137051   4.547   2.026   3.843  1.3432  0.4959  1.7795
 5212TIP3    H237052   4.468   2.017   3.972 -0.5292 -2.7878  0.5324
 5213TIP3   OH237053   0.588   1.946   4.800 -0.1197  0.4910  0.4531
 5213TIP3    H137054   0.554   2.033   4.779 -0.6469  0.2244  0.1832
 5213TIP3    H237055   0.556   1.929   4.889 -0.2632  0.4483  0.3928
 5214TIP3   OH237056   5.521   0.834   5.297 -0.4072  0.6361 -0.3327
 5214TIP3    H137057   5.507   0.750   5.253 -0.0869  0.5065 -0.1886
 5214TIP3    H237058   5.465   0.896   5.249  0.3529  0.6185 -1.2716
 5215TIP3   OH237059   4.575   5.651  16.565 -0.0671 -0.5036  0.0591
 5215TIP3    H137060   4.577   5.709  16.642  0.2481  0.9037 -0.9618
 5215TIP3    H237061   4.488   5.610  16.568 -0.1402 -0.2953  1.0364
 5216TIP3   OH237062   6.518   5.513  13.547 -0.5247 -0.0338 -0.0563
 5216TIP3    H137063   6.489   5.596  13.510 -0.8286  0.2126  0.7397
 5216TIP3    H237064   6.545   5.462  13.470 -0.9710  0.5406 -0.6057
 5217TIP3   OH237065   5.475   3.403  13.297  0.4084 -0.7996  0.6134
 5217TIP3    H137066   5.471   3.342  13.224  0.9259 -1.4012  1.0688
 5217TIP3    H237067   5.556   3.452  13.282 -0.1485 -0.0247  0.1018
 5218TIP3   OH237068   5.910   3.429   5.908  0.5294 -0.2427 -0.3479
 5218TIP3    H137069   5.967   3.359   5.939  1.0163  0.0802 -0.4898
 5218TIP3    H237070   5.914   3.495   5.977  1.3203  0.3157 -0.8970
 5219TIP3   OH237071   1.139   6.167  12.454 -0.1909  0.3340  0.2386
 5219TIP3    H137072   1.132   6.112  12.376 -0.1573 -2.5604  2.1094
 5219TIP3    H237073   1.230   6.199  12.452  1.0400 -2.7373  0.8205
 5220TIP3   OH237074   6.744   2.002  12.228 -0.3962  0.7025 -0.0780
 5220TIP3    H137075   6.702   1.923  12.194  1.8897 -0.3683 -0.5782
 5220TIP3    H237076   6.704   2.074  12.178 -2.5199 -0.0546  0.4009
 5221TIP3   OH237077   6.241   5.651  12.545  0.2854  0.4069  0.4010
 5221TIP3    H137078   6.270   5.703  12.470  2.4614  1.0711  1.6202
 5221TIP3    H237079   6.207   5.715  12.607 -1.3902 -0.1290  0.0872
 5222TIP3   OH237080   2.126   6.391  11.862 -0.3955 -0.0724  0.5197
 5222TIP3    H137081   2.092   6.360  11.946 -0.3608 -0.4797  0.3887
 5222TIP3    H237082   2.209   6.343  11.850 -0.0261  0.5382  0.6015
 5223TIP3   OH237083   2.563   2.680  13.356  0.3625  0.4220  0.6488
 5223TIP3    H137084   2.621   2.635  13.294 -1.4572 -0.4187 -0.5357
 5223TIP3    H237085   2.482   2.693  13.307 -0.0899  2.6052  1.8693
 5224TIP3   OH237086   5.157   3.818   4.475 -0.5411  0.2184  0.4705
 5224TIP3    H137087   5.131   3.847   4.563  0.6550  2.8633  0.0694
 5224TIP3    H237088   5.091   3.854   4.417  0.5146  1.5527  0.0292
 5225TIP3   OH237089   3.858   5.906  12.502  0.4181 -0.0662 -0.4275
 5225TIP3    H137090   3.919   5.862  12.560  0.0645  0.5329  0.4230
 5225TIP3    H237091   3.818   5.975  12.556  0.7698  1.1341 -1.6365
 5226TIP3   OH237092   1.264   3.069  15.262 -0.0360  0.5641 -0.0590
 5226TIP3    H137093   1.176   3.036  15.245 -0.3180  0.8471  0.8173
 5226TIP3    H237094   1.266   3.155  15.221  0.3067 -0.0106 -1.3021
 5227TIP3   OH237095   5.586   3.755  16.086  0.4322 -0.5011  0.1972
 5227TIP3    H137096   5.655   3.757  16.153  0.3193  0.4030  0.3000
 5227TIP3    H237097   5.601   3.673  16.039  1.5542 -0.3445  0.2421
 5228TIP3   OH237098   1.724   1.981  16.551  0.1191  0.3584  0.0979
 5228TIP3    H137099   1.692   2.044  16.487 -3.6790  1.3155  2.5628
 5228TIP3    H237100   1.674   1.901  16.533  0.4099  0.0441  0.6524
 5229TIP3   OH237101   3.994   6.564   4.708 -0.0011  0.2495  0.3132
 5229TIP3    H137102   3.992   6.651   4.749 -2.2018  1.0193 -1.2532
 5229TIP3    H237103   3.970   6.504   4.779 -2.8840  1.4482  0.5148
 5230TIP3   OH237104   3.912   5.929  17.007 -0.4983  0.4294 -0.0854
 5230TIP3    H137105   3.971   5.973  16.946 -0.8753  1.3948  0.2097
 5230TIP3    H237106   3.963   5.921  17.088 -0.3131  0.0047 -0.2434
 5231TIP3   OH237107   2.385   3.573   3.590  0.4672 -0.1585 -0.2559
 5231TIP3    H137108   2.299   3.609   3.611  1.1205  0.4243  1.6419
 5231TIP3    H237109   2.412   3.619   3.511 -1.6844 -1.6696 -2.0066
 5232TIP3   OH237110   2.928   2.927   6.018 -0.5197  0.0982  0.3924
 5232TIP3    H137111   2.834   2.925   6.000 -0.6079  1.3318  0.6340
 5232TIP3    H237112   2.937   2.894   6.107 -0.4263 -2.6354 -0.5496
 5233TIP3   OH237113   3.508   1.135  14.242 -0.2772 -0.2823  0.0705
 5233TIP3    H137114   3.569   1.062  14.251  1.6229  0.9933 -1.5948
 5233TIP3    H237115   3.506   1.176  14.329  0.5185 -0.9079  0.3907
 5234TIP3   OH237116   2.465   0.357  14.163 -0.4303  0.1038  0.2277
 5234TIP3    H137117   2.534   0.295  14.137  0.3569  0.1531  2.0655
 5234TIP3    H237118   2.402   0.353  14.092  0.1624 -1.9708 -0.2498
 5235TIP3   OH237119   6.220   1.987  15.430  0.8514 -0.1411 -0.5994
 5235TIP3    H137120   6.291   1.932  15.395  2.0062  1.9521 -1.7575
 5235TIP3    H237121   6.210   1.959  15.521  1.2696 -2.3304 -1.1724
 5236TIP3   OH237122   5.284   4.077   5.764  0.5115 -0.1151  0.4472
 5236TIP3    H137123   5.189   4.077   5.752  0.5867  0.6014 -0.2698
 5236TIP3    H237124   5.307   3.985   5.771  0.0131 -0.4827 -1.7541
 5237TIP3   OH237125   4.004   5.581  13.929  0.1695  0.3716  0.5800
 5237TIP3    H137126   4.068   5.649  13.908 -0.4063  1.4463  2.1229
 5237TIP3    H237127   3.990   5.535  13.846  2.5025  0.4422  0.0656
 5238TIP3   OH237128   0.481   1.348   1.340  0.5248 -0.2565 -0.0884
 5238TIP3    H137129   0.544   1.277   1.334  1.5827  0.7456 -2.7077
 5238TIP3    H237130   0.396   1.305   1.346  1.0335 -1.8642 -2.6099
 5239TIP3   OH237131   5.419   0.509  10.453  0.3670  0.2612  0.2308
 5239TIP3    H137132   5.364   0.588  10.459  0.7124  0.4583  0.8822
 5239TIP3    H237133   5.503   0.536  10.490  0.1305 -0.7401  1.5597
 5240TIP3   OH237134   2.463   4.833  12.735 -0.0445 -0.5226 -0.2976
 5240TIP3    H137135   2.391   4.846  12.674  0.6852 -0.8245 -1.2471
 5240TIP3    H237136   2.512   4.916  12.733 -1.2797  0.3044  1.6228
 5241TIP3   OH237137   0.077   3.843  14.789  0.0673  0.0147  0.1713
 5241TIP3    H137138  -0.001   3.798  14.822  0.8111 -0.6127  1.1442
 5241TIP3    H237139   0.044   3.905  14.725 -1.2743  0.0018  0.8176
 5242TIP3   OH237140   0.583   5.634   3.421 -0.1232 -0.9781 -0.0916
 5242TIP3    H137141   0.529   5.610   3.346  2.2203 -1.6889 -1.6501
 5242TIP3    H237142   0.609   5.725   3.405 -3.9183  0.8882  2.6939
 5243TIP3   OH237143   1.652   6.140  13.574 -0.3262 -0.2909 -0.0268
 5243TIP3    H137144   1.642   6.189  13.655 -1.0657  0.2022 -0.4092
 5243TIP3    H237145   1.725   6.079  13.591 -0.3237 -0.0287  0.9141
 5244TIP3   OH237146   4.201   1.054   1.501  0.1624  0.1140  0.2358
 5244TIP3    H137147   4.182   1.040   1.594 -1.7653 -0.7895 -0.2229
 5244TIP3    H237148   4.127   1.012   1.456  1.6258 -0.4794 -1.7475
 5245TIP3   OH237149   5.598   3.266   3.536 -0.2453 -0.1329  0.3451
 5245TIP3    H137150   5.678   3.250   3.587 -1.1918 -1.1935  1.5724
 5245TIP3    H237151   5.620   3.342   3.481  1.8108 -0.8029  0.1406
 5246TIP3   OH237152   0.427   2.932  12.530 -0.3015 -0.4579  0.0757
 5246TIP3    H137153   0.442   2.848  12.487 -0.0255 -0.7784  0.7864
 5246TIP3    H237154   0.336   2.954  12.508 -0.3962 -0.9728 -0.0617
 5247TIP3   OH237155   5.948   2.858   3.620 -0.6414  0.1038  0.6163
 5247TIP3    H137156   5.864   2.862   3.667 -0.6475  1.2704  0.5212
 5247TIP3    H237157   5.923   2.842   3.529 -0.8165  1.2306  0.4548
 5248TIP3   OH237158   3.614   0.397   3.445 -0.0110  0.4569 -0.6198
 5248TIP3    H137159   3.645   0.323   3.497 -2.3493 -0.0431  0.2078
 5248TIP3    H237160   3.601   0.360   3.357 -0.4475  0.0401 -0.3919
 5249TIP3   OH237161   4.926   3.853   2.393  0.9518  0.5363 -0.3990
 5249TIP3    H137162   4.850   3.810   2.432 -0.7848  1.0670 -2.9638
 5249TIP3    H237163   4.916   3.945   2.418  0.7664  0.5976 -0.6949
 5250TIP3   OH237164   5.881   5.173  15.184  0.2669  0.0419  0.1671
 5250TIP3    H137165   5.824   5.187  15.260 -1.1116 -3.6591 -0.0061
 5250TIP3    H237166   5.939   5.102  15.210  2.2208  1.0906 -1.0934
 5251TIP3   OH237167   6.078   3.087  16.395  0.0369 -0.0820  0.6878
 5251TIP3    H137168   6.105   3.148  16.464  0.5468 -0.9952  1.3157
 5251TIP3    H237169   6.089   3.136  16.314  2.8753 -0.1251  0.9695
 5252TIP3   OH237170   0.675   6.384   2.332  0.4278  0.2591  0.1521
 5252TIP3    H137171   0.592   6.371   2.378 -0.7467 -0.5091 -2.0214
 5252TIP3    H237172   0.720   6.300   2.339 -1.0289 -0.8523 -2.3305
 5253TIP3   OH237173   3.240   1.342  15.046  0.4479 -0.0777 -0.5696
 5253TIP3    H137174   3.152   1.347  15.082  0.1930 -1.8873 -0.8589
 5253TIP3    H237175   3.275   1.430  15.058 -1.3035  0.6238 -0.2478
 5254TIP3   OH237176   2.181   3.069   0.788 -0.0403  0.2503  0.3040
 5254TIP3    H137177   2.095   3.104   0.761 -0.7700 -2.1325 -0.7318
 5254TIP3    H237178   2.242   3.107   0.725 -0.1136  2.6412  1.5473
 5255TIP3   OH237179   4.716   3.368  14.327 -0.2519  0.6242  0.5739
 5255TIP3    H137180   4.675   3.421  14.395 -0.4630  0.8932  0.2404
 5255TIP3    H237181   4.723   3.426  14.251  0.1284  0.3777  0.4140
 5256TIP3   OH237182   1.827   1.378  12.431 -0.0482  0.1068 -0.6656
 5256TIP3    H137183   1.910   1.416  12.460  0.5865 -0.5945 -1.4602
 5256TIP3    H237184   1.821   1.403  12.339 -0.5493 -0.1343 -0.7006
 5257TIP3   OH237185   5.583   0.332   1.666 -0.1286  0.9637  0.0380
 5257TIP3    H137186   5.545   0.246   1.647 -1.0726  1.5015 -0.5408
 5257TIP3    H237187   5.542   0.358   1.749  0.9394  0.4124  0.7600
 5258TIP3   OH237188   4.222   1.694   2.194  0.1613 -0.2273  0.2369
 5258TIP3    H137189   4.223   1.638   2.117 -1.3134 -0.2032  0.1831
 5258TIP3    H237190   4.140   1.674   2.238  0.5285  0.4669  1.2800
 5259TIP3   OH237191   2.318   5.263  11.380 -0.1750  0.6023 -0.4962
 5259TIP3    H137192   2.308   5.170  11.361  0.4990  0.2268  0.9072
 5259TIP3    H237193   2.237   5.287  11.425 -1.4862  1.3467 -2.9944
 5260TIP3   OH237194   2.279   6.437   3.099  0.0245 -0.0760  0.1245
 5260TIP3    H137195   2.283   6.363   3.039 -0.7553 -0.3687  0.4228
 5260TIP3    H237196   2.195   6.479   3.081 -0.4428 -0.4454  1.3159
 5261TIP3   OH237197   2.698   1.690   1.833  0.0867 -0.4867 -0.2018
 5261TIP3    H137198   2.628   1.626   1.845  0.6312 -0.7668  1.7126
 5261TIP3    H237199   2.709   1.696   1.738 -2.7650 -0.1622 -0.6123
 5262TIP3   OH237200   1.275   0.086  16.958 -0.0431 -0.7355 -0.2178
 5262TIP3    H137201   1.362   0.046  16.958  1.4439  2.0811  2.4055
 5262TIP3    H237202   1.237   0.062  17.042 -1.2687 -0.8108 -0.7619
 5263TIP3   OH237203   2.929   4.720   5.534  0.3126  0.1802  0.0554
 5263TIP3    H137204   2.977   4.779   5.592  0.4773 -1.3850  1.5950
 5263TIP3    H237205   2.996   4.683   5.476  0.9476 -1.4838  1.7509
 5264TIP3   OH237206   3.708   0.859  16.894 -0.4694 -0.2926 -0.0608
 5264TIP3    H137207   3.712   0.784  16.835 -0.5413 -0.9710  0.7729
 5264TIP3    H237208   3.615   0.868  16.915 -0.5003  0.2412 -0.4161
 5265TIP3   OH237209   3.916   1.951  14.780  0.2478 -0.3400  1.1479
 5265TIP3    H137210   3.941   2.031  14.827 -0.0877 -0.0669  0.8659
 5265TIP3    H237211   3.830   1.970  14.744  0.1635 -0.8348  1.0841
 5266TIP3   OH237212   2.806   5.843   5.435 -0.4142 -0.4415 -0.1901
 5266TIP3    H137213   2.817   5.927   5.479  0.6129 -0.0190 -1.2005
 5266TIP3    H237214   2.889   5.798   5.448 -0.7549 -1.0727 -0.1540
 5267TIP3   OH237215   5.095   3.152  11.763  0.0537  0.1639  0.1207
 5267TIP3    H137216   5.043   3.210  11.819 -0.0697  0.7854 -0.6177
 5267TIP3    H237217   5.185   3.174  11.784  0.0236 -0.3176  0.7931
 5268TIP3   OH237218   0.221   2.663   4.637 -0.0204  0.2410  0.2220
 5268TIP3    H137219   0.234   2.690   4.546  0.1746  1.4542  0.5921
 5268TIP3    H237220   0.166   2.585   4.632 -0.5486  0.6756 -0.9000
 5269TIP3   OH237221   5.831   0.096  12.108 -0.5720 -0.4090 -0.2997
 5269TIP3    H137222   5.782   0.045  12.172 -0.1688 -0.0822  0.2862
 5269TIP3    H237223   5.846   0.036  12.035 -0.9513 -0.8189 -0.0437
 5270TIP3   OH237224   2.780   6.073   3.633  0.3608 -0.8649 -0.4468
 5270TIP3    H137225   2.843   6.053   3.563  1.4296  1.5543 -0.2786
 5270TIP3    H237226   2.828   6.057   3.714  0.5784  0.3668 -0.3154
 5271TIP3   OH237227   2.682   2.972   4.182 -0.4019 -0.2573 -0.1017
 5271TIP3    H137228   2.607   2.958   4.239  0.8690 -2.1413  1.2231
 5271TIP3    H237229   2.758   2.960   4.238  0.9067 -0.1091 -1.7599
 5272TIP3   OH237230   4.759   2.752   3.322 -0.1863 -0.2298 -0.3571
 5272TIP3    H137231   4.800   2.783   3.241  2.1079 -0.8555  0.4984
 5272TIP3    H237232   4.810   2.676   3.348 -0.0969  0.6333  2.2890
 5273TIP3   OH237233   0.786   2.506   3.021  0.2086  0.3148  0.1774
 5273TIP3    H137234   0.824   2.539   2.940 -1.6801 -0.5423 -1.1323
 5273TIP3    H237235   0.729   2.577   3.051 -1.4683 -0.4529 -0.9827
 5274TIP3   OH237236   2.431   4.061  14.202 -0.1055 -0.1153  0.1681
 5274TIP3    H137237   2.490   4.131  14.229  1.2908 -0.6671 -1.3176
 5274TIP3    H237238   2.365   4.104  14.148 -0.0655  0.2587  0.4161
 5275TIP3   OH237239   2.412   3.639   4.342  0.0771  0.0367  0.3021
 5275TIP3    H137240   2.377   3.558   4.304 -1.2556 -0.1777  1.8660
 5275TIP3    H237241   2.360   3.652   4.421  0.6553  2.1265  0.3907
 5276TIP3   OH237242   2.627   5.339  12.762 -0.4594  1.0057  0.6725
 5276TIP3    H137243   2.624   5.340  12.858 -2.1477  3.5470  0.6967
 5276TIP3    H237244   2.629   5.432  12.737 -1.5468  0.4550 -1.7553
 5277TIP3   OH237245   3.127   3.274   2.225 -0.1448 -0.4782 -0.0381
 5277TIP3    H137246   3.218   3.269   2.255 -0.2415  0.6680  0.4915
 5277TIP3    H237247   3.129   3.237   2.137  0.2393 -3.4641  1.0897
 5278TIP3   OH237248   3.183   5.770  12.779  0.5575 -0.6253  0.1801
 5278TIP3    H137249   3.191   5.765  12.874  0.3976 -1.6989  0.1423
 5278TIP3    H237250   3.139   5.854  12.763  1.6083  0.1006  0.9771
 5279TIP3   OH237251   2.203   3.328  14.979 -0.1269 -0.7643 -0.0133
 5279TIP3    H137252   2.277   3.281  15.016  0.3120 -0.7049 -0.7947
 5279TIP3    H237253   2.221   3.420  14.995 -0.9170 -0.8313  1.3903
 5280TIP3   OH237254   4.962   1.682  16.923 -0.6985 -0.6303 -0.1689
 5280TIP3    H137255   4.933   1.620  16.990 -0.1681  1.0060  1.7068
 5280TIP3    H237256   5.054   1.660  16.909 -0.5841 -0.4640  0.2890
 5281TIP3   OH237257   4.008   0.415   2.060 -0.3029 -0.1019  0.6140
 5281TIP3    H137258   4.057   0.336   2.082 -1.7604 -1.0727  0.4960
 5281TIP3    H237259   3.917   0.391   2.075 -0.9737  0.7884 -1.6740
 5282TIP3   OH237260   1.034   4.682   3.682 -0.4710  0.5136 -0.2628
 5282TIP3    H137261   1.021   4.741   3.607 -1.4938  0.0106 -0.4907
 5282TIP3    H237262   0.996   4.599   3.654 -0.5683  0.2301  0.6937
 5283TIP3   OH237263   0.936   3.346  11.587 -0.0594  0.0991 -0.0427
 5283TIP3    H137264   0.939   3.252  11.607  0.8986 -0.4408 -2.3390
 5283TIP3    H237265   0.844   3.365  11.572 -0.1021 -0.8755 -1.1297
 5284TIP3   OH237266   1.490   5.728  10.564  0.4397  0.3211  0.8098
 5284TIP3    H137267   1.532   5.656  10.516  0.0371  0.5633  0.0773
 5284TIP3    H237268   1.447   5.685  10.637 -0.9174 -0.3858 -0.3544
 5285TIP3   OH237269   3.687   6.071  15.433  0.0352 -0.0780  0.3038
 5285TIP3    H137270   3.778   6.083  15.406  0.1420 -0.6114  0.4153
 5285TIP3    H237271   3.689   6.077  15.528  0.4520 -2.9972  0.5711
 5286TIP3   OH237272   2.357   1.712   0.877  0.3347  0.6031  0.4588
 5286TIP3    H137273   2.430   1.656   0.907 -1.3396 -0.6807  2.3852
 5286TIP3    H237274   2.400   1.785   0.832  2.7453 -0.7984  0.2989
 5287TIP3   OH237275   0.794   2.155  12.959  0.3704 -0.2198 -0.0057
 5287TIP3    H137276   0.738   2.084  12.928  1.5196 -2.0463  1.8623
 5287TIP3    H237277   0.811   2.135  13.051  0.1517  2.9184  0.8365
 5288TIP3   OH237278   4.479   4.778  13.329 -0.7584  0.5373 -0.4722
 5288TIP3    H137279   4.409   4.798  13.265 -2.9942 -0.3577  1.5426
 5288TIP3    H237280   4.489   4.859  13.379 -1.3804  0.2733  0.1052
 5289TIP3   OH237281   3.036   1.652  11.508  0.0439  0.0861  0.3847
 5289TIP3    H137282   3.005   1.721  11.566 -0.6790 -0.2615  0.4269
 5289TIP3    H237283   3.057   1.696  11.426 -0.6536  0.3257  0.3300
 5290TIP3   OH237284   0.923   4.195  11.771  0.7395 -0.1244  0.3991
 5290TIP3    H137285   0.880   4.255  11.833 -1.1527  1.1446 -1.9510
 5290TIP3    H237286   0.992   4.248  11.730 -0.2993  0.2330 -0.9827
 5291TIP3   OH237287   6.226   6.146   2.783 -0.3389 -0.6653 -0.1293
 5291TIP3    H137288   6.142   6.187   2.802  0.4251  0.4182  1.1359
 5291TIP3    H237289   6.250   6.102   2.865 -0.4968 -2.5557 -1.0351
 5292TIP3   OH237290   0.166   6.438  15.364 -0.1004 -0.1242  0.0051
 5292TIP3    H137291   0.219   6.398  15.434 -1.0808 -0.3434  0.6399
 5292TIP3    H237292   0.134   6.519  15.402 -0.5860 -0.2127 -0.2185
 5293TIP3   OH237293   6.044   6.160  11.337 -0.2552  0.3347  0.4020
 5293TIP3    H137294   6.125   6.211  11.336  0.1622 -0.3151  0.7340
 5293TIP3    H237295   6.070   6.073  11.304 -1.0929  0.5275 -0.8435
 5294TIP3   OH237296   0.489   3.398  15.198 -0.2920 -0.5403  0.2642
 5294TIP3    H137297   0.503   3.304  15.196  1.0350 -0.3569 -0.5555
 5294TIP3    H237298   0.430   3.413  15.272  0.2740 -1.9101  1.0189
 5295TIP3   OH237299   4.891   5.326   5.267 -0.5784 -0.1427  0.3971
 5295TIP3    H137300   4.941   5.377   5.331 -0.5472 -1.3235  1.3371
 5295TIP3    H237301   4.835   5.391   5.225 -1.2121  0.5753  2.2127
 5296TIP3   OH237302   0.133   4.914   2.911 -0.4272 -0.0620  0.3396
 5296TIP3    H137303   0.050   4.903   2.959 -1.2138  1.5734 -0.6048
 5296TIP3    H237304   0.116   4.875   2.825 -0.5799  1.2002 -0.2156
 5297TIP3   OH237305   5.931   2.680   6.504  0.5315  0.1006 -0.2045
 5297TIP3    H137306   5.858   2.619   6.509 -0.4479  1.2966  0.5420
 5297TIP3    H237307   5.994   2.647   6.568  1.3211 -1.7231 -1.8128
 5298TIP3   OH237308   4.454   5.929  15.885  0.0898 -0.3544 -0.1069
 5298TIP3    H137309   4.363   5.944  15.913  0.2330 -0.3793  0.3826
 5298TIP3    H237310   4.506   5.955  15.961  0.6907  2.9746 -1.4993
 5299TIP3   OH237311   3.643   3.360   5.201  0.2003  0.2804  0.4316
 5299TIP3    H137312   3.604   3.448   5.206 -0.3857  0.1084 -0.7024
 5299TIP3    H237313   3.616   3.327   5.115  2.1763 -0.1862 -0.0680
 5300TIP3   OH237314   2.126   4.718  16.491 -0.1799  0.4015  0.1246
 5300TIP3    H137315   2.066   4.668  16.546  2.0531  0.3140  2.6494
 5300TIP3    H237316   2.157   4.654  16.426  0.2119 -0.6407  1.3095
 5301TIP3   OH237317   1.767   2.551  10.964 -0.5481  0.4360  0.1205
 5301TIP3    H137318   1.761   2.567  11.058  1.5971 -0.1310  0.4125
 5301TIP3    H237319   1.834   2.613  10.934 -0.3312 -0.2312 -0.8082
 5302TIP3   OH237320   5.121   1.355   2.373 -0.8109 -0.0552  0.7074
 5302TIP3    H137321   5.188   1.353   2.305 -0.5502  1.8691  0.8417
 5302TIP3    H237322   5.116   1.265   2.406 -1.2354 -1.1688 -2.1059
 5303TIP3   OH237323   6.244   3.394   1.565  1.1137 -0.6962 -0.2502
 5303TIP3    H137324   6.273   3.405   1.474  1.5419 -1.0257 -0.1577
 5303TIP3    H237325   6.308   3.333   1.603  3.2447  2.3133  1.3726
 5304TIP3   OH237326   4.182   3.613  13.019 -0.3780 -0.3878  0.3890
 5304TIP3    H137327   4.096   3.654  13.010 -0.2917 -0.1337  0.7185
 5304TIP3    H237328   4.164   3.524  13.048 -0.4861 -0.0098  1.5050
 5305TIP3   OH237329   3.668   0.338   4.856  0.0089  0.0364 -0.1010
 5305TIP3    H137330   3.723   0.276   4.904 -2.3820 -1.7113  0.5932
 5305TIP3    H237331   3.694   0.328   4.765 -0.5356 -2.3915 -0.0747
 5306TIP3   OH237332   3.984   1.197  16.888  0.3709  0.3911  0.0571
 5306TIP3    H137333   3.906   1.183  16.835  0.1939  1.6499 -0.0549
 5306TIP3    H237334   4.056   1.196  16.826  0.4009 -0.2805  0.0950
 5307TIP3   OH237335   4.287   1.735  14.691  0.4015  0.1204  0.2340
 5307TIP3    H137336   4.374   1.744  14.653  0.3233  0.2695  0.0912
 5307TIP3    H237337   4.287   1.648  14.732  0.4456 -0.0839 -0.1994
 5308TIP3   OH237338   4.389   6.339   2.418 -0.5846  0.0587 -0.2391
 5308TIP3    H137339   4.344   6.387   2.349 -0.6684  0.8913  0.3837
 5308TIP3    H237340   4.479   6.372   2.416 -0.6538  0.2820  0.2245
 5309TIP3   OH237341   3.721   6.542   4.109 -0.0760 -0.0343 -0.0107
 5309TIP3    H137342   3.755   6.538   4.199 -1.8560  1.5169  0.8147
 5309TIP3    H237343   3.665   6.620   4.109 -0.9057 -0.5725 -2.2072
 5310TIP3   OH237344   2.934   2.235   5.210  0.4005 -0.2966 -1.1694
 5310TIP3    H137345   3.008   2.201   5.260 -0.3299  0.8853  0.8529
 5310TIP3    H237346   2.974   2.289   5.142  1.4206 -1.1832 -1.2994
 5311TIP3   OH237347   3.454   2.201   4.663  0.1589  0.0738 -0.5188
 5311TIP3    H137348   3.517   2.223   4.732 -0.2343 -0.0788 -0.1075
 5311TIP3    H237349   3.409   2.284   4.646 -1.2633 -0.3537  0.9710
 5312TIP3   OH237350   1.737   0.366   4.668  0.1002  0.0452 -0.2098
 5312TIP3    H137351   1.642   0.362   4.681 -0.1274  0.8355 -1.4789
 5312TIP3    H237352   1.768   0.279   4.693 -1.4061 -1.3961 -2.9009
 5313TIP3   OH237353   2.075   1.745  13.250 -0.1481  0.2158 -0.1038
 5313TIP3    H137354   2.112   1.754  13.338 -0.3928 -0.3584  0.0636
 5313TIP3    H237355   2.129   1.802  13.195 -0.2449  0.8974  0.4848
 5314TIP3   OH237356   4.768   6.238   0.087  0.4422  0.3914  0.0808
 5314TIP3    H137357   4.810   6.153   0.077 -0.1895  0.2210 -1.3943
 5314TIP3    H237358   4.786   6.264   0.178  2.4601 -0.3203 -0.0667
 5315TIP3   OH237359   0.547   1.882   6.022 -0.6705 -0.1370 -0.8700
 5315TIP3    H137360   0.582   1.886   5.933 -0.0390 -0.2545 -0.6340
 5315TIP3    H237361   0.551   1.972   6.053 -1.0910 -0.0604 -1.0321
 5316TIP3   OH237362   6.668   4.067  13.222  0.4142  0.1723  0.3764
 5316TIP3    H137363   6.623   4.091  13.142  1.6657  0.6235 -0.2235
 5316TIP3    H237364   6.611   4.003  13.265  0.2891 -1.0241 -1.4808
 5317TIP3   OH237365   5.847   0.768  11.190 -0.7261 -0.3821  0.1029
 5317TIP3    H137366   5.792   0.764  11.111 -2.8292  0.9862  1.3925
 5317TIP3    H237367   5.798   0.720  11.256  0.1509 -0.0416  1.0168
 5318TIP3   OH237368   1.736   3.216   5.279 -0.3288 -0.2774  0.2373
 5318TIP3    H137369   1.680   3.281   5.237 -0.5637  0.4473  1.6326
 5318TIP3    H237370   1.709   3.132   5.240 -1.8931  0.1427  0.3708
 5319TIP3   OH237371   0.919   4.746  15.540  0.0330  0.2033  0.0965
 5319TIP3    H137372   0.852   4.807  15.572  0.4912 -0.2750  2.1393
 5319TIP3    H237373   0.955   4.789  15.462 -0.6146  1.8876  0.6679
 5320TIP3   OH237374   5.361   0.636   3.864  0.3223 -0.5112  0.5013
 5320TIP3    H137375   5.295   0.614   3.930 -2.8531  0.8725 -1.9672
 5320TIP3    H237376   5.396   0.551   3.836 -1.8751 -1.4926  0.5214
 5321TIP3   OH237377   4.858   6.615  14.088 -0.2085  0.4275  0.3218
 5321TIP3    H137378   4.898   6.624  14.002 -1.6398 -0.5711 -0.4781
 5321TIP3    H237379   4.910   6.546  14.131 -0.0872  0.2535 -0.0992
 5322TIP3   OH237380   3.443   6.305  12.166  0.6775 -0.0619  0.5223
 5322TIP3    H137381   3.418   6.390  12.202 -0.1241 -0.3456  0.6572
 5322TIP3    H237382   3.444   6.247  12.242 -0.3333 -0.5097  0.2052
 5323TIP3   OH237383   2.371   0.184  11.132 -0.3902  0.3310 -0.2655
 5323TIP3    H137384   2.333   0.272  11.131  0.8979  0.8982 -1.7476
 5323TIP3    H237385   2.395   0.166  11.041 -1.9393 -2.1727 -0.2671
 5324TIP3   OH237386   1.807   3.216  11.505 -0.1027 -0.6305 -0.3169
 5324TIP3    H137387   1.901   3.206  11.522  0.1869 -2.5560 -2.5492
 5324TIP3    H237388   1.781   3.134  11.465 -2.3520  0.5299 -1.4259
 5325TIP3   OH237389   5.403   5.572  13.890 -0.2579 -0.4203  0.9608
 5325TIP3    H137390   5.405   5.598  13.798  0.7478 -0.5094  0.9542
 5325TIP3    H237391   5.363   5.485  13.890 -1.1661 -0.0130  0.7156
 5326TIP3   OH237392   4.921   1.202   2.151  0.0362  0.0541 -0.0706
 5326TIP3    H137393   4.925   1.294   2.180  0.4453 -0.9911  3.8261
 5326TIP3    H237394   4.827   1.183   2.148 -0.0413  0.4727 -0.4059
 5327TIP3   OH237395   2.893   2.524  12.889 -0.0212 -0.1573 -0.1692
 5327TIP3    H137396   2.939   2.537  12.972  2.5034  0.0334 -1.4968
 5327TIP3    H237397   2.959   2.545  12.822 -2.2227  0.6036 -2.2261
 5328TIP3   OH237398   4.360   4.378  15.928 -0.1157  0.1068  0.5888
 5328TIP3    H137399   4.453   4.359  15.917 -0.2609  0.0143 -0.5487
 5328TIP3    H237400   4.328   4.393  15.839 -2.2070 -4.5365  0.3223
 5329TIP3   OH237401   0.239   6.087   3.233  0.0458 -0.0597 -0.5571
 5329TIP3    H137402   0.324   6.073   3.275 -0.1359  0.2674 -0.0774
 5329TIP3    H237403   0.183   6.120   3.303 -0.3913  0.0232 -0.9458
 5330TIP3   OH237404   5.299   3.692  14.094 -0.3823  0.0746 -0.1300
 5330TIP3    H137405   5.249   3.680  14.014  1.6091  2.9405 -2.0140
 5330TIP3    H237406   5.383   3.649  14.077  0.4049  1.4972 -0.0472
 5331TIP3   OH237407   4.740   4.379   6.205 -0.2906 -0.2617 -0.1454
 5331TIP3    H137408   4.746   4.474   6.217 -0.8635 -0.4097  1.5586
 5331TIP3    H237409   4.829   4.352   6.180 -0.0356  0.6644 -0.2803
 5332TIP3   OH237410   2.546   0.851   5.589  0.0104  0.2827 -0.2962
 5332TIP3    H137411   2.561   0.756   5.596 -2.0990 -0.1617 -1.0657
 5332TIP3    H237412   2.624   0.884   5.545  0.3769 -1.2429 -0.8774
 5333TIP3   OH237413   0.293   3.992   3.272  0.6827  0.1960  0.4342
 5333TIP3    H137414   0.270   3.903   3.298  0.3427 -0.2257 -1.1806
 5333TIP3    H237415   0.231   4.048   3.319  3.0863  0.0029  4.3257
 5334TIP3   OH237416   0.033   2.874   3.560 -0.3916 -0.0263 -0.1526
 5334TIP3    H137417  -0.055   2.912   3.561  0.5335  2.2938  0.4976
 5334TIP3    H237418   0.031   2.811   3.488 -2.1224  1.1389 -1.2162
 5335TIP3   OH237419   1.159   0.883  15.638 -0.0703  0.2646  0.3054
 5335TIP3    H137420   1.240   0.933  15.651 -0.1820  0.4267  0.3762
 5335TIP3    H237421   1.159   0.819  15.709  0.8360 -0.8552 -0.6502
 5336TIP3   OH237422   3.995   5.506   2.893  0.2766  0.4523  0.2316
 5336TIP3    H137423   4.053   5.545   2.959 -0.0664  0.9847  0.2291
 5336TIP3    H237424   4.047   5.506   2.813 -0.0055  1.7668  0.0149
 5337TIP3   OH237425   6.032   5.910  15.509  0.0289  0.1657 -0.0451
 5337TIP3    H137426   5.975   5.886  15.582  1.1262 -1.9431  0.2007
 5337TIP3    H237427   6.081   5.986  15.541 -0.5029  0.1412  0.8708
 5338TIP3   OH237428   0.539   0.473  14.685  0.7584 -0.6570 -0.1457
 5338TIP3    H137429   0.564   0.561  14.654 -2.1261  0.2710 -0.1320
 5338TIP3    H237430   0.540   0.419  14.606 -3.5146  0.9716 -1.5887
 5339TIP3   OH237431   1.995   4.404  14.195  0.2929 -0.5208 -0.2424
 5339TIP3    H137432   1.993   4.311  14.216  0.5924  0.0571  2.7288
 5339TIP3    H237433   1.906   4.435  14.213  0.1737 -0.2288 -1.2814
 5340TIP3   OH237434   6.703   3.944   2.691  0.3879  0.1488  0.0477
 5340TIP3    H137435   6.770   3.933   2.624 -1.9685  1.0253 -2.6536
 5340TIP3    H237436   6.641   3.874   2.675 -0.1189  0.2105  1.5457
 5341TIP3   OH237437   5.731   5.978   3.337  0.2576  0.1354 -0.7141
 5341TIP3    H137438   5.712   6.071   3.348 -4.0309 -0.6467  0.6352
 5341TIP3    H237439   5.722   5.963   3.243 -1.1349  0.7860 -0.7056
 5342TIP3   OH237440   3.511   5.748  10.301  0.0996  0.0127  0.1145
 5342TIP3    H137441   3.526   5.721  10.211 -0.2660  0.3849 -0.0622
 5342TIP3    H237442   3.475   5.836  10.294 -1.3686 -0.5079  0.5270
 5343TIP3   OH237443   1.373   6.709  10.835  0.7149  0.4290  0.6495
 5343TIP3    H137444   1.355   6.671  10.921  0.4095 -1.8446 -0.3519
 5343TIP3    H237445   1.355   6.638  10.773  0.8768  2.0106 -1.3096
 5344TIP3   OH237446   0.302   4.811   6.034 -0.2267  0.5274 -0.1600
 5344TIP3    H137447   0.343   4.833   5.950 -1.1953 -0.2114 -0.8548
 5344TIP3    H237448   0.287   4.717   6.029 -1.6753  0.7139  0.1988
 5345TIP3   OH237449   5.018   6.158  16.358  0.4819 -0.5460 -0.2966
 5345TIP3    H137450   5.017   6.178  16.452  1.4983 -1.4588 -0.0686
 5345TIP3    H237451   4.966   6.227  16.318  1.7286  1.0523  0.7149
 5346TIP3   OH237452   6.600   4.944   2.062 -0.4874  0.1529 -0.2549
 5346TIP3    H137453   6.647   5.001   2.001 -1.6208 -0.0887 -1.4023
 5346TIP3    H237454   6.532   5.000   2.099 -1.5031 -0.3636 -1.2650
 5347TIP3   OH237455   0.675   6.131  16.654  0.2768  0.0892 -0.2977
 5347TIP3    H137456   0.621   6.052  16.643 -0.4343  0.6215 -0.6883
 5347TIP3    H237457   0.618   6.203  16.629  1.0293  0.7098 -0.2715
 5348TIP3   OH237458   6.694   4.278  14.049  0.1757  0.2425  1.1369
 5348TIP3    H137459   6.614   4.306  14.005 -0.2075 -2.0329  0.2952
 5348TIP3    H237460   6.761   4.340  14.018 -0.3987 -0.3187 -1.4472
 5349TIP3   OH237461   6.284   1.179   0.998 -0.6439 -0.1104  0.0265
 5349TIP3    H137462   6.320   1.196   0.911 -0.9866 -0.3020 -0.1533
 5349TIP3    H237463   6.332   1.239   1.056  0.3890 -0.7722 -0.1140
 5350TIP3   OH237464   2.165   5.263  12.725 -0.4573 -0.0312  0.1724
 5350TIP3    H137465   2.125   5.323  12.663 -1.6231  1.1276  1.9624
 5350TIP3    H237466   2.092   5.210  12.757  0.0109 -0.1677  1.0311
 5351TIP3   OH237467   5.752   2.743  14.707 -0.2734  0.2243  0.7298
 5351TIP3    H137468   5.789   2.771  14.791 -0.5747 -1.3946  1.4510
 5351TIP3    H237469   5.827   2.734  14.649 -0.0133  0.9853  0.9456
 5352TIP3   OH237470   0.596   5.460   2.141  0.7456  0.0161  0.3133
 5352TIP3    H137471   0.511   5.417   2.138  0.6300  0.1601  1.1191
 5352TIP3    H237472   0.647   5.419   2.071 -0.4968  1.0935 -1.2522
 5353TIP3   OH237473   3.188   1.935   5.622  0.0344  0.3098  0.6245
 5353TIP3    H137474   3.095   1.953   5.633  0.1298  0.5447  1.0903
 5353TIP3    H237475   3.232   2.003   5.674  0.4354 -0.8768  1.9034
 5354TIP3   OH237476   6.181   1.577  16.160 -0.0495  0.6899 -0.3813
 5354TIP3    H137477   6.086   1.575  16.152 -0.0245 -0.6807 -0.6193
 5354TIP3    H237478   6.212   1.611  16.076 -0.3534  2.3219  0.1437
 5355TIP3   OH237479   3.370   3.205   0.174  0.2590  0.2060 -0.2930
 5355TIP3    H137480   3.440   3.159   0.219  0.4764 -2.0020 -2.6231
 5355TIP3    H237481   3.292   3.152   0.191 -0.4798  1.5428  0.6567
 5356TIP3   OH237482   4.480   1.700   2.645  0.0334  0.5591 -0.2999
 5356TIP3    H137483   4.400   1.721   2.694 -0.0478 -0.4249  0.0056
 5356TIP3    H237484   4.527   1.637   2.700  1.0268  1.1252 -0.4818
 5357TIP3   OH237485   4.928   3.650  12.812 -0.1319 -0.0265 -0.1659
 5357TIP3    H137486   4.868   3.643  12.737 -0.0065 -1.0977 -0.1811
 5357TIP3    H237487   4.945   3.744  12.820 -1.8675  0.3189 -0.1115
 5358TIP3   OH237488   6.582   0.382   1.067 -0.1878 -0.3872 -0.0248
 5358TIP3    H137489   6.572   0.451   1.001  2.0357 -0.4378 -0.4944
 5358TIP3    H237490   6.507   0.325   1.053 -0.3600  0.1959 -1.8014
 5359TIP3   OH237491   3.161   4.138  14.160 -0.4575 -0.0528 -0.4803
 5359TIP3    H137492   3.229   4.138  14.092 -1.2158  1.6516 -1.2883
 5359TIP3    H237493   3.191   4.072  14.223  1.4755  0.0040 -1.2677
 5360TIP3   OH237494   5.375   2.584   1.281 -0.0382 -0.1195 -0.3593
 5360TIP3    H137495   5.363   2.569   1.187  0.2636  1.9428 -0.7836
 5360TIP3    H237496   5.463   2.551   1.299  0.9161  1.6696 -1.3985
 5361TIP3   OH237497   2.523   4.467   4.868 -0.0734 -0.8977 -0.1681
 5361TIP3    H137498   2.545   4.559   4.855 -0.4049 -0.9412 -1.1517
 5361TIP3    H237499   2.499   4.435   4.780  1.2888 -2.2650 -0.0949
 5362TIP3   OH237500   2.494   1.086   2.241  0.9475 -0.1712 -0.3123
 5362TIP3    H137501   2.487   1.103   2.335 -0.7165  1.4149 -0.6750
 5362TIP3    H237502   2.453   0.999   2.230  0.2782  0.0475  0.3243
 5363TIP3   OH237503   0.199   0.979  15.702  0.3952 -0.1898 -0.7405
 5363TIP3    H137504   0.263   0.913  15.726  0.1641 -0.3460 -0.5509
 5363TIP3    H237505   0.229   1.059  15.746 -0.4586 -0.6576  0.7612
 5364TIP3   OH237506   4.771   1.002   5.343  0.5702 -0.2265  0.2488
 5364TIP3    H137507   4.767   0.979   5.250 -0.7288  1.3167 -0.1245
 5364TIP3    H237508   4.805   0.923   5.386  0.0810 -1.3795 -1.3876
 5365TIP3   OH237509   5.411   4.621  14.877  0.0114 -0.0752  0.4251
 5365TIP3    H137510   5.439   4.670  14.954  0.4766 -0.2795  0.3899
 5365TIP3    H237511   5.334   4.572  14.905  1.5464 -2.0011  1.4504
 5366TIP3   OH237512   2.520   1.153   0.843 -0.0500 -0.0825  0.1362
 5366TIP3    H137513   2.521   1.066   0.803 -0.3363 -0.2463  0.4739
 5366TIP3    H237514   2.510   1.213   0.770 -0.2265 -0.3580 -0.0690
 5367TIP3   OH237515   1.818   2.196   1.575  0.7178 -0.3010 -0.2119
 5367TIP3    H137516   1.790   2.108   1.547  0.4214 -0.2247 -0.1558
 5367TIP3    H237517   1.799   2.199   1.669 -1.1822  0.5348 -0.5740
 5368TIP3   OH237518   1.434   1.376   1.490 -0.1674  0.1306  0.1476
 5368TIP3    H137519   1.511   1.338   1.533  0.5224  1.3478  0.0371
 5368TIP3    H237520   1.457   1.379   1.398 -0.7067 -0.3008 -0.0041
 5369TIP3   OH237521   2.955   1.451   2.218 -0.3527  0.0425  0.1296
 5369TIP3    H137522   2.955   1.356   2.225 -0.4714  0.1316  1.8105
 5369TIP3    H237523   2.989   1.481   2.302  0.6328  1.4823 -0.7338
 5370TIP3   OH237524   5.943   0.617  16.236 -0.4466  0.4429 -0.4749
 5370TIP3    H137525   6.015   0.679  16.248 -0.4717  0.3251  0.3612
 5370TIP3    H237526   5.980   0.546  16.183 -0.4954  1.2862 -1.6778
 5371TIP3   OH237527   4.434   5.002  13.483 -0.6524  0.1407 -0.4024
 5371TIP3    H137528   4.382   5.056  13.423 -0.3733  0.2337 -0.5677
 5371TIP3    H237529   4.373   4.975  13.551 -0.9416  0.1556 -0.6528
 5372TIP3   OH237530   1.039   4.001  12.654  0.1363  0.4943  0.0391
 5372TIP3    H137531   1.106   4.035  12.594  0.0546  1.4682  0.4800
 5372TIP3    H237532   1.050   3.906  12.650 -0.1228  0.5003 -1.7966
 5373TIP3   OH237533   0.840   1.251   4.296 -0.3399  0.5681  0.1002
 5373TIP3    H137534   0.820   1.181   4.234  1.8071 -0.4219  0.4358
 5373TIP3    H237535   0.829   1.332   4.246 -0.9480 -0.0848 -0.8518
 5374TIP3   OH237536   6.503   3.623   1.363  0.1179 -0.1638  0.3596
 5374TIP3    H137537   6.533   3.565   1.293 -0.2035 -1.7229  1.4652
 5374TIP3    H237538   6.430   3.672   1.324  0.8447  0.0307 -0.8070
 5375TIP3   OH237539   2.594   3.639  11.761  0.0930 -0.1472 -0.0310
 5375TIP3    H137540   2.653   3.713  11.747 -1.1457  0.7571 -0.7437
 5375TIP3    H237541   2.515   3.679  11.798  0.2256 -1.4384  1.7935
 5376TIP3   OH237542   5.579   2.795  15.694  0.3592  0.5803 -0.4724
 5376TIP3    H137543   5.596   2.712  15.739 -1.7680 -0.6484 -1.7883
 5376TIP3    H237544   5.523   2.844  15.755  0.0099  0.2300 -0.5145
 5377TIP3   OH237545   1.748   3.135   0.389 -0.5044 -0.3900 -0.3670
 5377TIP3    H137546   1.754   3.053   0.438 -0.8505  0.0257  0.3808
 5377TIP3    H237547   1.792   3.116   0.305  0.6810 -0.9158  0.3483
 5378TIP3   OH237548   2.814   3.399  13.402 -0.4606 -0.0272  0.0823
 5378TIP3    H137549   2.850   3.317  13.437  0.4809  1.1824  2.1200
 5378TIP3    H237550   2.890   3.444  13.365 -0.4940  0.9628  1.1710
 5379TIP3   OH237551   4.844   5.968   3.888 -0.1111 -0.0525  0.2033
 5379TIP3    H137552   4.752   5.983   3.866  0.0949 -0.0948 -0.7374
 5379TIP3    H237553   4.879   5.920   3.813  0.8772  0.6938  0.1644
 5380TIP3   OH237554   6.003   6.635  16.217  0.0990 -0.1416  0.5086
 5380TIP3    H137555   6.084   6.655  16.265  1.5367 -0.9268 -1.4374
 5380TIP3    H237556   5.986   6.543  16.236 -1.5523  0.5018  2.5010
 5381TIP3   OH237557   2.434   3.798  13.559 -0.1482  0.0534  0.4043
 5381TIP3    H137558   2.462   3.746  13.635 -1.6042 -1.2723  0.0733
 5381TIP3    H237559   2.514   3.841  13.529  0.4181  0.8494  2.8482
 5382TIP3   OH237560   6.226   6.196  15.306 -0.4348 -0.4499  0.4129
 5382TIP3    H137561   6.252   6.275  15.259 -2.2801  1.0557  1.7553
 5382TIP3    H237562   6.134   6.183  15.282 -0.0381 -2.5040 -0.1440
 5383TIP3   OH237563   6.026   5.735   2.696 -0.6995  0.1986  0.7111
 5383TIP3    H137564   6.004   5.825   2.670 -0.6332 -0.0928 -0.3889
 5383TIP3    H237565   6.026   5.738   2.792  1.1827  1.8314  0.7299
 5384TIP3   OH237566   5.650   3.115  15.293  0.2579 -0.1018 -0.2657
 5384TIP3    H137567   5.583   3.102  15.361  0.3561 -0.3792 -0.2183
 5384TIP3    H237568   5.602   3.102  15.210  0.2291 -0.1962 -0.2346
 5385TIP3   OH237569   4.642   0.754  13.478 -0.0286 -0.6967  0.2884
 5385TIP3    H137570   4.572   0.758  13.413 -0.8574 -3.2792  0.9206
 5385TIP3    H237571   4.666   0.662  13.482 -0.1109 -0.7045  3.7368
 5386TIP3   OH237572   4.576   3.126  12.015 -0.2130  0.4022 -0.3085
 5386TIP3    H137573   4.539   3.038  12.017  2.0200 -0.6111  0.1713
 5386TIP3    H237574   4.501   3.185  12.012 -1.8267 -1.4538  1.3451
 5387TIP3   OH237575   1.939   4.090  16.666 -0.4308  0.2019 -0.2177
 5387TIP3    H137576   2.014   4.100  16.607 -0.0907 -1.1456 -0.0686
 5387TIP3    H237577   1.915   3.997  16.658 -1.6216  0.4438  0.2963
 5388TIP3   OH237578   2.998   5.124  12.894  0.2195  0.0733 -0.8571
 5388TIP3    H137579   2.988   5.036  12.931  1.8339 -0.2681 -1.1765
 5388TIP3    H237580   2.924   5.133  12.833 -0.6055 -0.6005  0.0113
 5389TIP3   OH237581   6.560   1.075   0.306 -0.2960 -0.4986  0.0385
 5389TIP3    H137582   6.614   0.998   0.321 -1.1910 -1.1576 -0.0419
 5389TIP3    H237583   6.529   1.067   0.216 -1.0716 -0.4996  0.2889
 5390TIP3   OH237584   0.181   0.636   4.702  0.6595 -0.4022  0.6954
 5390TIP3    H137585   0.218   0.559   4.745 -0.5752 -1.1945  0.3786
 5390TIP3    H237586   0.090   0.613   4.685  0.6499  0.5681 -0.7366
 5391TIP3   OH237587   5.683   3.983   6.140  0.4294 -0.3193 -0.3728
 5391TIP3    H137588   5.729   4.067   6.147  1.4062 -0.9097  0.4975
 5391TIP3    H237589   5.597   3.999   6.180  0.4542  0.3790 -0.5945
 5392TIP3   OH237590   2.166   5.842  11.752  0.2686  0.2550 -0.3095
 5392TIP3    H137591   2.262   5.846  11.752  0.2716  1.2401 -1.8370
 5392TIP3    H237592   2.144   5.769  11.695  0.1003 -0.1537  0.2704
 5393TIP3   OH237593   5.688   6.292   3.852  0.6576  0.2340  0.5972
 5393TIP3    H137594   5.731   6.219   3.806  0.9711  0.3286  0.7381
 5393TIP3    H237595   5.618   6.250   3.902 -0.1874  0.2188 -0.5640
 5394TIP3   OH237596   4.870   2.595   6.150 -0.1475  0.0908 -0.1207
 5394TIP3    H137597   4.891   2.674   6.100  0.5260 -1.3971 -2.3253
 5394TIP3    H237598   4.786   2.565   6.115 -0.9589  0.3851  1.4776
 5395TIP3   OH237599   4.569   0.881  16.160 -0.3609  0.2151 -0.2871
 5395TIP3    H137600   4.476   0.890  16.139 -0.3364 -1.2575 -1.2272
 5395TIP3    H237601   4.595   0.967  16.193 -2.5887  0.0446  2.2942
 5396TIP3   OH237602   4.331   4.035  12.758  0.2807 -0.4258  0.0158
 5396TIP3    H137603   4.355   4.090  12.834  0.9234  0.4433 -0.7944
 5396TIP3    H237604   4.403   3.973  12.749 -0.2377 -1.1493  0.6617
 5397TIP3   OH237605   3.545   4.558  14.939  0.0943 -0.0163 -0.2682
 5397TIP3    H137606   3.621   4.537  14.994 -0.0893  1.8674  0.7997
 5397TIP3    H237607   3.474   4.505  14.974  0.2317  0.3912  0.6391
 5398TIP3   OH237608   6.553   6.491  15.288 -0.0449  0.0013  0.1073
 5398TIP3    H137609   6.461   6.516  15.299 -0.2213 -0.6632  0.1612
 5398TIP3    H237610   6.596   6.571  15.259 -0.6107  0.3613  0.2459
 5399TIP3   OH237611   5.396   3.100   0.478  0.0285  0.0958  0.1442
 5399TIP3    H137612   5.310   3.063   0.500 -1.1486  2.1669 -0.7242
 5399TIP3    H237613   5.456   3.025   0.485 -2.3662 -2.4152 -2.8926
 5400TIP3   OH237614   2.446   3.935  11.410  0.2053  0.3362  0.3558
 5400TIP3    H137615   2.387   3.924  11.484 -0.5723  1.2888 -0.1070
 5400TIP3    H237616   2.523   3.979  11.447  1.2176 -1.9970  1.2094
 5401TIP3   OH237617   3.254   3.425   1.885  0.0115 -0.3805  0.0723
 5401TIP3    H137618   3.222   3.513   1.905  0.7967 -0.4030  1.5266
 5401TIP3    H237619   3.210   3.368   1.948  1.8109 -0.5880  1.2240
 5402TIP3   OH237620   1.665   1.127  11.882  0.1328 -0.6542  0.4597
 5402TIP3    H137621   1.636   1.085  11.963 -0.1860 -2.0807 -0.3631
 5402TIP3    H237622   1.754   1.155  11.900 -0.5379  0.7172  1.8932
 5403TIP3   OH237623   6.698   4.980   0.031  0.4873 -0.3047 -0.4769
 5403TIP3    H137624   6.647   4.908   0.068 -0.6473  1.6573  2.0307
 5403TIP3    H237625   6.633   5.045   0.005  1.5725  0.7679 -0.6139
 5404TIP3   OH237626   1.947   5.254   1.534 -0.7928 -0.3493 -0.2823
 5404TIP3    H137627   2.031   5.208   1.532 -0.9130 -0.5419 -1.2555
 5404TIP3    H237628   1.910   5.232   1.620  0.4593  0.3288  0.4604
 5405TIP3   OH237629   5.013   4.254  16.469 -0.3958  0.1743 -0.1423
 5405TIP3    H137630   4.943   4.195  16.442 -1.1944  1.0636 -0.0859
 5405TIP3    H237631   5.080   4.246  16.401 -0.5629 -0.6686 -0.2113
 5406TIP3   OH237632   0.955   0.541   0.185 -0.6277 -0.3104  0.1786
 5406TIP3    H137633   0.978   0.561   0.094 -1.5848  1.0390  0.1979
 5406TIP3    H237634   1.000   0.458   0.204  0.5996  0.0259 -1.1118
 5407TIP3   OH237635   0.725   3.258  14.568 -0.1868  0.4153  0.2730
 5407TIP3    H137636   0.755   3.268  14.478  0.0005  1.5214  0.4375
 5407TIP3    H237637   0.630   3.259  14.562 -0.1988  1.9004  0.1848
 5408TIP3   OH237638   5.458   1.948  15.856  0.0645  0.7743  0.6459
 5408TIP3    H137639   5.450   2.021  15.917 -0.9071  2.6266 -1.5433
 5408TIP3    H237640   5.546   1.956  15.821  1.0804 -1.0362  2.5708
 5409TIP3   OH237641   0.325   2.453   2.538 -0.4604  0.0178 -0.4791
 5409TIP3    H137642   0.298   2.455   2.446  0.9227  2.5451 -0.9037
 5409TIP3    H237643   0.400   2.511   2.543 -0.1443 -0.4739  2.1794
 5410TIP3   OH237644   5.517   0.188  15.977  0.2445  0.1055  0.2308
 5410TIP3    H137645   5.573   0.141  15.915  0.6962 -0.0805  0.7727
 5410TIP3    H237646   5.578   0.234  16.035 -0.1791  0.6318  0.2753
 5411TIP3   OH237647   6.443   5.918   1.784  0.2704  0.0845  0.2388
 5411TIP3    H137648   6.502   5.962   1.845  0.5457  1.4183 -0.9201
 5411TIP3    H237649   6.376   5.984   1.764 -1.2227 -1.1495  0.9528
 5412TIP3   OH237650   6.458   5.154  14.678  0.3417 -0.2409 -0.1019
 5412TIP3    H137651   6.549   5.179  14.667 -0.0553  0.7419 -1.4787
 5412TIP3    H237652   6.428   5.205  14.753  1.1035 -1.1741  0.8688
 5413TIP3   OH237653   1.207   3.730  16.890  0.2076 -0.2645  0.0083
 5413TIP3    H137654   1.250   3.713  16.806 -2.2998 -0.3051 -1.3734
 5413TIP3    H237655   1.162   3.649  16.911 -0.1660  0.1296  0.7809
 5414TIP3   OH237656   0.204   2.152  15.427 -0.1556 -0.1631  0.1501
 5414TIP3    H137657   0.229   2.227  15.481 -0.5132  0.1246 -0.0729
 5414TIP3    H237658   0.267   2.084  15.448 -0.3710 -0.0987  1.0301
 5415TIP3   OH237659   6.037   4.208   2.890  0.2223  0.6550  0.7288
 5415TIP3    H137660   6.001   4.284   2.844 -0.1882 -0.8009 -1.4905
 5415TIP3    H237661   5.981   4.136   2.863  0.9737 -0.5749  2.3080
 5416TIP3   OH237662   3.051   6.135  10.985 -0.3873  0.0287  0.0977
 5416TIP3    H137663   3.014   6.221  11.007  0.4348  0.2441  0.7186
 5416TIP3    H237664   2.992   6.072  11.027 -1.1898  0.2577 -0.6489
 5417TIP3   OH237665   3.604   1.591   5.241 -0.3025 -0.1933 -0.1746
 5417TIP3    H137666   3.664   1.565   5.170  0.2328 -2.7121  1.0828
 5417TIP3    H237667   3.517   1.588   5.201 -0.0527 -2.0216 -0.6870
 5418TIP3   OH237668   4.277   4.388  17.082 -0.0722 -0.1604  0.4634
 5418TIP3    H137669   4.203   4.438  17.116 -0.2471 -0.3281  0.3310
 5418TIP3    H237670   4.339   4.454  17.052 -0.1823 -0.0206  0.5443
 5419TIP3   OH237671   3.748   2.366   1.383 -0.1761 -0.1898 -0.0175
 5419TIP3    H137672   3.810   2.393   1.315  0.5077 -1.0725  0.2284
 5419TIP3    H237673   3.799   2.308   1.440 -1.4720 -1.7410 -0.3598
 5420TIP3   OH237674   0.013   6.101   3.054 -0.0476  0.3883  0.1045
 5420TIP3    H137675   0.076   6.113   3.125  1.5343 -2.4621 -0.6676
 5420TIP3    H237676   0.042   6.162   2.986 -0.3139  1.6295  1.0706
 5421TIP3   OH237677   2.133   1.793   5.906 -0.3583  0.0762  0.2612
 5421TIP3    H137678   2.133   1.766   5.814  1.5882 -1.0459  0.5390
 5421TIP3    H237679   2.040   1.799   5.929 -0.8852  0.1362 -1.6846
 5422TIP3   OH237680   1.914   6.163  16.901  0.1868 -0.3793  0.1893
 5422TIP3    H137681   1.860   6.187  16.827 -0.4419 -0.1940  0.6990
 5422TIP3    H237682   1.993   6.125  16.862 -0.5502 -1.1934 -0.5631
 5423TIP3   OH237683   1.137   6.118   3.450  0.1114  0.4389  0.2670
 5423TIP3    H137684   1.232   6.132   3.456  0.1282  1.0859 -1.1516
 5423TIP3    H237685   1.122   6.041   3.505  1.3475  0.7197  1.0615
 5424TIP3   OH237686   5.196   4.657  14.588 -0.0472 -0.2178 -0.2391
 5424TIP3    H137687   5.174   4.572  14.624  0.2791 -0.3092 -0.2533
 5424TIP3    H237688   5.139   4.666  14.511 -1.7174  0.5516  1.0252
 5425TIP3   OH237689   4.698   2.541   5.541 -0.0678 -0.0588 -0.2524
 5425TIP3    H137690   4.617   2.532   5.491 -0.0377 -0.2196 -0.2729
 5425TIP3    H237691   4.764   2.496   5.487  0.4425  1.7110 -1.1990
 5426TIP3   OH237692   3.087   4.802   3.096 -0.2593  0.3601 -0.1663
 5426TIP3    H137693   3.062   4.726   3.148  0.5912  1.1448  1.4455
 5426TIP3    H237694   3.032   4.797   3.018 -0.9970 -1.2908  0.4318
 5427TIP3   OH237695   5.940   3.923   6.294 -0.1158  0.0654  0.3567
 5427TIP3    H137696   6.017   3.979   6.304 -0.4587  0.3000  1.9543
 5427TIP3    H237697   5.922   3.892   6.382 -0.8353 -1.3818 -0.2698
 5428TIP3   OH237698   0.304   1.600  14.084  0.7403  0.2816 -0.3020
 5428TIP3    H137699   0.247   1.574  14.157  0.0584 -2.1243 -1.6083
 5428TIP3    H237700   0.323   1.519  14.037  0.6278  1.8027 -3.2110
 5429TIP3   OH237701   3.026   2.995   6.770 -0.5009  0.4485 -0.7984
 5429TIP3    H137702   3.107   2.945   6.769 -0.6253  0.2427 -2.3612
 5429TIP3    H237703   3.007   3.009   6.863  0.0089 -1.6119 -0.3488
 5430TIP3   OH237704   0.217   6.799   4.955 -0.1465  0.0434 -0.1925
 5430TIP3    H137705   0.312   6.801   4.959 -0.1441  0.4250 -0.3563
 5430TIP3    H237706   0.191   6.734   5.021  0.2294 -0.1832 -0.2648
 5431TIP3   OH237707   2.291   6.513  11.092  0.2618 -0.0006  0.1525
 5431TIP3    H137708   2.343   6.588  11.064  2.6036 -1.2361  0.8540
 5431TIP3    H237709   2.226   6.550  11.152  1.0009  1.5462  0.0657
 5432TIP3   OH237710   2.497   5.220  14.568  0.5198 -0.0606 -0.3238
 5432TIP3    H137711   2.483   5.308  14.602  0.5148  0.0109 -0.5110
 5432TIP3    H237712   2.590   5.201  14.586 -0.1517 -1.2108  2.5193
 5433TIP3   OH237713   3.798   4.960  16.032 -0.1416  0.1073  0.2471
 5433TIP3    H137714   3.789   4.894  16.102  3.2509 -1.5348 -0.6936
 5433TIP3    H237715   3.744   5.033  16.063 -0.7130 -1.4401  3.4243
 5434TIP3   OH237716   1.078   1.535   2.837 -0.6539  0.3070 -0.0370
 5434TIP3    H137717   1.056   1.451   2.797  2.4164  0.5015 -2.5354
 5434TIP3    H237718   1.128   1.512   2.915 -0.8571 -0.1595 -0.0397
 5435TIP3   OH237719   5.867   1.338   1.296 -0.0131 -0.1724  0.1962
 5435TIP3    H137720   5.864   1.245   1.315  2.5838 -0.1382  1.1951
 5435TIP3    H237721   5.823   1.347   1.211  0.9590 -2.5193 -0.6288
 5436TIP3   OH237722   4.608   3.642  16.684  0.3604 -0.1220  0.2994
 5436TIP3    H137723   4.681   3.663  16.741  1.5234 -1.3018 -0.6910
 5436TIP3    H237724   4.648   3.605  16.605 -1.3007 -0.7894 -0.2931
 5437TIP3   OH237725   0.183   4.951  15.006 -0.2532 -0.0252 -0.2263
 5437TIP3    H137726   0.161   5.039  14.973  0.8794  0.2866 -0.1839
 5437TIP3    H237727   0.230   4.910  14.934  0.7917  0.0630  0.3885
 5438TIP3   OH237728   6.130   3.794  16.030 -0.5751 -0.6122  0.1471
 5438TIP3    H137729   6.057   3.848  16.060  0.4641  0.5111  0.7336
 5438TIP3    H237730   6.148   3.824  15.941 -0.7513 -0.8222  0.0387
 5439TIP3   OH237731   1.875   3.580  15.777 -0.2429 -0.2358  0.0509
 5439TIP3    H137732   1.845   3.512  15.716  0.4039 -2.4983  2.0888
 5439TIP3    H237733   1.797   3.604  15.826 -0.3857  0.1716 -0.3734
 5440TIP3   OH237734   3.083   1.569   0.733 -0.1622 -0.2667 -0.3208
 5440TIP3    H137735   3.087   1.647   0.788  2.4771 -0.1536 -0.5378
 5440TIP3    H237736   3.004   1.523   0.762 -1.2045  1.9013  0.5520
 5441TIP3   OH237737   3.873   3.029  11.892 -0.0935 -0.3457  0.3028
 5441TIP3    H137738   3.880   2.949  11.838  0.7027  0.4299 -0.7936
 5441TIP3    H237739   3.907   3.003  11.977  0.9822 -0.9775 -0.2851
 5442TIP3   OH237740   0.534   6.168   1.561  0.1184  0.1603  0.2041
 5442TIP3    H137741   0.520   6.085   1.515 -0.0831  1.3821 -2.0590
 5442TIP3    H237742   0.607   6.150   1.620  1.4835 -1.0629 -1.7550
 5443TIP3   OH237743   0.681   3.441  11.566 -0.0411 -0.0061 -0.3500
 5443TIP3    H137744   0.592   3.405  11.571  0.0099  0.0205  1.1306
 5443TIP3    H237745   0.672   3.531  11.597  0.2988  0.4265 -1.4529
 5444TIP3   OH237746   2.564   2.599   0.213  0.1356 -0.0852  0.8284
 5444TIP3    H137747   2.655   2.619   0.191  0.4575  0.0398  2.2186
 5444TIP3    H237748   2.519   2.683   0.207  0.4088  0.1170  1.5197
 5445TIP3   OH237749   5.251   0.614   2.687 -0.1886  0.0311  0.2876
 5445TIP3    H137750   5.283   0.541   2.634  1.6494  1.7611 -1.1606
 5445TIP3    H237751   5.171   0.643   2.643  0.2006  0.1649 -0.3391
 5446TIP3   OH237752   5.927   6.283   0.028 -0.4699 -0.3220  0.4727
 5446TIP3    H137753   6.004   6.340   0.025  1.7774 -3.1166 -1.9814
 5446TIP3    H237754   5.868   6.320  -0.038  1.5220 -1.3289 -2.0681
 5447TIP3   OH237755   2.226   0.162  11.866  0.1803 -0.3305 -0.3418
 5447TIP3    H137756   2.216   0.257  11.860  2.0080  0.1278  2.1352
 5447TIP3    H237757   2.320   0.149  11.877 -0.3117 -2.0477  3.0716
 5448TIP3   OH237758   0.316   3.269   0.144 -0.4628 -0.1385  0.2457
 5448TIP3    H137759   0.364   3.188   0.124 -0.8432 -0.0641 -1.0574
 5448TIP3    H237760   0.381   3.324   0.188 -0.1286 -1.0390  0.9270
 5449TIP3   OH237761   0.120   3.898   2.492  0.1264  0.4967 -0.6879
 5449TIP3    H137762   0.157   3.828   2.545  1.6206  1.2066 -0.7356
 5449TIP3    H237763   0.115   3.861   2.404  0.1562  0.1957 -0.5642
 5450TIP3   OH237764   2.590   4.233   0.726 -0.4642  0.0020 -0.1986
 5450TIP3    H137765   2.507   4.280   0.723  0.1499  1.3557  2.0168
 5450TIP3    H237766   2.645   4.285   0.784  1.0747 -2.2255  0.4566
 5451TIP3   OH237767   4.480   5.629  12.704  0.0163  0.5382  0.0898
 5451TIP3    H137768   4.420   5.645  12.631  0.4236 -0.6270 -0.5279
 5451TIP3    H237769   4.547   5.697  12.695  0.5111 -0.0756 -1.1458
 5452TIP3   OH237770   5.457   0.474  11.001  0.1221 -1.0099  0.0568
 5452TIP3    H137771   5.405   0.399  10.971 -2.2588  0.5560  0.0525
 5452TIP3    H237772   5.430   0.486  11.092  1.2559 -0.7397  0.3755
 5453TIP3   OH237773   0.586   4.571  12.215  0.0598 -0.0190  0.3175
 5453TIP3    H137774   0.547   4.615  12.140  1.5221  1.3069  0.2867
 5453TIP3    H237775   0.529   4.496  12.232 -1.5602  0.9506 -0.6769
 5454TIP3   OH237776   2.330   2.566   4.129  0.0558  0.2966 -0.2063
 5454TIP3    H137777   2.268   2.622   4.083 -0.5945  0.6101  0.9898
 5454TIP3    H237778   2.407   2.620   4.142 -0.4394  0.8226  0.6361
 5455TIP3   OH237779   5.887   1.372  12.502  0.9312  0.4055  0.5249
 5455TIP3    H137780   5.834   1.440  12.461 -0.9744 -1.1623  0.2355
 5455TIP3    H237781   5.859   1.372  12.594  0.4051 -0.3991  0.3795
 5456TIP3   OH237782   5.159   1.343   5.820  0.4565  0.3054  0.2491
 5456TIP3    H137783   5.094   1.411   5.804 -0.8061 -0.8139  0.4137
 5456TIP3    H237784   5.195   1.363   5.906 -1.0767 -0.1223  1.0207
 5457TIP3   OH237785   6.064   4.079   3.791 -0.0765 -0.2871  0.1828
 5457TIP3    H137786   6.061   4.131   3.871  0.8471  1.0424 -0.6056
 5457TIP3    H237787   6.108   3.998   3.817  1.0687  0.5066  0.8522
 5458TIP3   OH237788   2.620   5.195   4.557 -0.4869  0.6737 -1.0343
 5458TIP3    H137789   2.616   5.142   4.477 -1.1480 -3.0904  1.2379
 5458TIP3    H237790   2.563   5.270   4.539  1.1802  1.2991 -4.7887
 5459TIP3   OH237791   4.276   5.694   3.586 -0.3547 -0.0477  0.4933
 5459TIP3    H137792   4.364   5.656   3.586 -0.3111 -0.0836 -1.5529
 5459TIP3    H237793   4.236   5.660   3.506 -1.7892  0.9563  0.7537
 5460TIP3   OH237794   5.595   1.611   5.632 -0.3855 -0.2921 -0.2353
 5460TIP3    H137795   5.560   1.634   5.546  1.9727  1.9430 -0.6897
 5460TIP3    H237796   5.667   1.552   5.614 -0.1447 -0.1507  0.2443
 5461TIP3   OH237797   6.400   6.797  11.810  0.9078 -0.1013  0.4144
 5461TIP3    H137798   6.435   6.881  11.838 -0.5216  0.0188  2.0385
 5461TIP3    H237799   6.329   6.818  11.749  0.5257 -0.0936  0.8485
 5462TIP3   OH237800   3.493   5.948   1.619 -0.4875  0.5483 -0.2605
 5462TIP3    H137801   3.488   5.932   1.713 -1.5167  0.0407 -0.3936
 5462TIP3    H237802   3.442   6.028   1.606  1.6222  2.0156 -0.0960
 5463TIP3   OH237803   5.684   1.109   0.927  0.1991 -0.0112  0.1303
 5463TIP3    H137804   5.628   1.148   0.860  0.8189 -1.1304 -1.0702
 5463TIP3    H237805   5.733   1.041   0.882  1.5540  0.0289  1.4485
 5464TIP3   OH237806   3.916   3.260   1.050 -0.2138 -0.1701 -0.5353
 5464TIP3    H137807   3.835   3.252   1.100  0.1309 -0.5120 -0.0059
 5464TIP3    H237808   3.933   3.171   1.018  0.5284 -0.3625  0.3165
 5465TIP3   OH237809   0.636   6.039  13.622  0.0778  0.1102  0.3608
 5465TIP3    H137810   0.603   6.071  13.537  1.3649 -2.2165 -1.1356
 5465TIP3    H237811   0.710   6.096  13.642  0.3408  0.1130 -0.5768
 5466TIP3   OH237812   0.246   0.221  12.133  0.1545  0.4082 -0.4435
 5466TIP3    H137813   0.152   0.204  12.122  0.7009 -1.4883 -3.0119
 5466TIP3    H237814   0.260   0.213  12.228 -2.1586  0.2610 -0.0357
 5467TIP3   OH237815   1.195   3.376   3.878 -0.1420 -0.4170 -0.4110
 5467TIP3    H137816   1.144   3.408   3.952  0.5110 -0.8191  0.2219
 5467TIP3    H237817   1.239   3.297   3.910  1.3077  0.2105 -0.7490
 5468TIP3   OH237818   5.819   6.707   4.758 -0.3485  0.5742 -0.2214
 5468TIP3    H137819   5.793   6.784   4.809  0.9458  0.9989 -0.1758
 5468TIP3    H237820   5.738   6.680   4.715 -0.6300  2.6455 -1.1473
 5469TIP3   OH237821   2.449   6.049  16.719  0.1114 -0.4055  0.2458
 5469TIP3    H137822   2.431   6.085  16.633 -0.0609 -2.5853 -0.6890
 5469TIP3    H237823   2.432   6.121  16.779 -0.0478  1.0813 -1.5070
 5470TIP3   OH237824   1.558   0.133  12.063  0.2530  0.3810  0.9614
 5470TIP3    H137825   1.554   0.170  11.975  1.3036 -0.1744  0.6671
 5470TIP3    H237826   1.480   0.168  12.107  1.2639  3.1642  0.7802
 5471TIP3   OH237827   1.194   6.008  13.731 -0.0249 -0.0018 -0.3781
 5471TIP3    H137828   1.123   6.002  13.667 -0.3745 -1.7945  0.1192
 5471TIP3    H237829   1.273   6.014  13.677 -0.5428  3.4943 -0.9543
 5472TIP3   OH237830   0.840   6.651  16.210 -0.0802  0.0102  0.1630
 5472TIP3    H137831   0.871   6.700  16.133 -1.2675 -0.1539 -0.4472
 5472TIP3    H237832   0.832   6.561  16.178 -0.9132  0.0044  0.3789
 5473TIP3   OH237833   5.680   4.018  11.177 -0.4521  0.2218 -0.0719
 5473TIP3    H137834   5.721   4.089  11.226 -0.8835  0.2597  0.2357
 5473TIP3    H237835   5.735   4.008  11.099  0.9693 -0.6584  0.9831
 5474TIP3   OH237836   0.106   1.502   6.192  0.2570  0.3023  0.2418
 5474TIP3    H137837   0.146   1.478   6.109 -0.5841 -1.0059  0.1700
 5474TIP3    H237838   0.093   1.596   6.187  1.2433  0.4046 -0.6408
 5475TIP3   OH237839   4.585   5.481   3.353 -0.1540  0.1756 -0.2921
 5475TIP3    H137840   4.554   5.567   3.324 -0.3307  0.7364  1.4285
 5475TIP3    H237841   4.672   5.499   3.391 -0.6600 -0.1857  1.0870
 5476TIP3   OH237842   6.745   4.128  12.298 -0.1942  0.0691  0.2546
 5476TIP3    H137843   6.702   4.199  12.347  1.3171  0.8021  0.5873
 5476TIP3    H237844   6.709   4.135  12.209  0.1109  1.4206  0.2187
 5477TIP3   OH237845   4.795   4.844   6.041  0.1824 -0.1208  0.2383
 5477TIP3    H137846   4.831   4.901   5.973  0.3433 -1.9576 -1.2907
 5477TIP3    H237847   4.704   4.830   6.016  0.0793 -0.3522  0.7250
 5478TIP3   OH237848   1.303   1.371  15.698 -0.4412  0.0111  0.6471
 5478TIP3    H137849   1.211   1.344  15.701 -0.9876  1.8454  1.4986
 5478TIP3    H237850   1.328   1.359  15.606 -1.9687  0.8049  0.0855
 5479TIP3   OH237851   1.679   4.464   4.196  0.3533 -0.2557 -0.0442
 5479TIP3    H137852   1.721   4.431   4.276  2.9639 -0.9068 -1.5772
 5479TIP3    H237853   1.638   4.387   4.158  0.8832 -0.3817 -0.3634
 5480TIP3   OH237854   3.185   6.254  15.049 -0.7493  0.3069 -0.1663
 5480TIP3    H137855   3.216   6.242  15.139  0.1076  2.9610 -0.0360
 5480TIP3    H237856   3.263   6.247  14.995 -1.1829 -0.7382 -0.6944
 5481TIP3   OH237857   3.541   0.197  16.005  0.8006 -0.0594  0.1900
 5481TIP3    H137858   3.561   0.128  16.068  0.0974 -1.1325 -0.7191
 5481TIP3    H237859   3.554   0.156  15.919 -0.0797  0.7943 -0.3773
 5482TIP3   OH237860   4.313   1.341  13.481 -0.5735  0.1406 -0.3523
 5482TIP3    H137861   4.380   1.359  13.415 -0.4429 -0.7853 -0.4811
 5482TIP3    H237862   4.332   1.252  13.512 -1.5663 -0.0297 -0.1836
 5483TIP3   OH237863   3.009   0.798  16.705  0.0199  0.0010  0.4815
 5483TIP3    H137864   3.001   0.863  16.775 -0.5443 -0.5440  0.9273
 5483TIP3    H237865   2.919   0.769  16.688  0.3691 -1.6402  1.2277
 5484TIP3   OH237866   0.102   3.516   6.756 -0.2935 -0.3735 -0.8143
 5484TIP3    H137867   0.070   3.570   6.685  1.7037  0.6652 -0.9862
 5484TIP3    H237868   0.195   3.503   6.737  0.5068  0.5793  1.9405
 5485TIP3   OH237869   2.742   3.950  12.410  0.1892 -0.1251  0.1516
 5485TIP3    H137870   2.812   3.913  12.464 -0.3732  0.4544  1.3242
 5485TIP3    H237871   2.780   4.030  12.373 -0.4513  1.3833  2.5258
 5486TIP3   OH237872   4.156   5.120   1.808  0.5450  0.5748  0.5139
 5486TIP3    H137873   4.230   5.108   1.869  0.1599 -0.6079  0.7724
 5486TIP3    H237874   4.135   5.213   1.815  2.1806  1.0018  0.2339
 5487TIP3   OH237875   3.800   0.876   1.293 -0.5366  0.3718  0.1601
 5487TIP3    H137876   3.840   0.867   1.207 -0.6852 -0.0010  0.1260
 5487TIP3    H237877   3.873   0.893   1.353 -0.4237  0.5407 -0.0250
 5488TIP3   OH237878   1.425   5.815  12.003  0.1994 -0.3635  0.0180
 5488TIP3    H137879   1.438   5.886  11.941 -0.1846 -0.8561 -0.6314
 5488TIP3    H237880   1.501   5.821  12.061 -0.2855  1.1417  0.5536
 5489TIP3   OH237881   4.269   2.852   4.484 -0.0545 -0.0780  0.3415
 5489TIP3    H137882   4.245   2.886   4.397 -0.4433  0.1238  0.5229
 5489TIP3    H237883   4.216   2.773   4.494 -1.5828  0.9985  1.2253
 5490TIP3   OH237884   1.883   0.469  12.063  0.1894  0.2131 -0.0062
 5490TIP3    H137885   1.937   0.391  12.077  1.7538  1.0398 -1.1143
 5490TIP3    H237886   1.844   0.488  12.149  0.9781 -0.9191  0.6137
 5491TIP3   OH237887   6.026   6.765  12.463 -0.3360 -0.0033 -0.0839
 5491TIP3    H137888   6.032   6.832  12.395  0.2957  0.1956  0.1640
 5491TIP3    H237889   5.981   6.809  12.536 -0.2845  0.0300 -0.0718
 5492TIP3   OH237890   0.660   4.050   5.719  0.1509 -0.6288 -0.0463
 5492TIP3    H137891   0.676   4.142   5.742 -0.7784 -0.2370 -0.8747
 5492TIP3    H237892   0.646   4.052   5.624  3.9981 -2.1748 -0.8243
 5493TIP3   OH237893   6.617   5.267   4.319  0.1432  0.3720 -0.1001
 5493TIP3    H137894   6.572   5.267   4.234  1.6994  1.8197 -1.0004
 5493TIP3    H237895   6.588   5.348   4.361  0.7014  0.5293 -0.0143
 5494TIP3   OH237896   3.770   5.835   1.029 -0.0990 -0.6263 -0.0092
 5494TIP3    H137897   3.749   5.928   1.025  0.1930 -0.5988 -2.1505
 5494TIP3    H237898   3.687   5.790   1.014 -0.3591 -0.7628  1.6589
 5495TIP3   OH237899   2.437   2.263   0.448 -0.4074 -0.0460 -0.2333
 5495TIP3    H137900   2.448   2.219   0.364  2.8178 -0.0494  0.0754
 5495TIP3    H237901   2.470   2.352   0.433 -1.2969  0.4601  0.6727
 5496TIP3   OH237902   6.621   6.755  14.565 -0.4029  0.1685 -0.4174
 5496TIP3    H137903   6.640   6.667  14.597  2.0788  0.5785 -0.5550
 5496TIP3    H237904   6.613   6.745  14.470  2.3289  0.3345 -0.7606
 5497TIP3   OH237905   4.094   2.139  16.412 -0.0795  0.2319 -0.7423
 5497TIP3    H137906   4.148   2.070  16.449  0.7418  1.6976  0.9377
 5497TIP3    H237907   4.013   2.138  16.464  0.5296  1.4324  0.2801
 5498TIP3   OH237908   4.246   2.084   0.548  0.1493  0.3453  0.1429
 5498TIP3    H137909   4.201   2.036   0.618 -2.2344  2.7535  0.4498
 5498TIP3    H237910   4.200   2.058   0.468 -1.1185  1.9146  0.3050
 5499TIP3   OH237911   3.679   6.693   0.272 -0.3074  0.1374  0.3261
 5499TIP3    H137912   3.648   6.776   0.308 -2.1416 -0.2154 -0.3438
 5499TIP3    H237913   3.616   6.628   0.302 -1.9797 -0.1900 -3.2599
 5500TIP3   OH237914   2.064   6.519   4.091  0.2716  0.3112 -0.2296
 5500TIP3    H137915   2.147   6.565   4.105 -1.2786  3.1656  0.4874
 5500TIP3    H237916   2.082   6.457   4.021  3.0446  0.6835  0.0492
 5501TIP3   OH237917   5.231   1.351  16.812 -0.0722 -0.1861 -0.3607
 5501TIP3    H137918   5.306   1.391  16.857 -1.6884  1.3999  1.0778
 5501TIP3    H237919   5.221   1.402  16.732 -0.5331  0.6424  0.2076
 5502TIP3   OH237920   2.476   5.487   3.418 -0.9181  0.9020 -0.1387
 5502TIP3    H137921   2.408   5.486   3.351 -0.8106 -1.7458 -0.3444
 5502TIP3    H237922   2.429   5.485   3.501 -1.0921  0.9521 -0.2374
 5503TIP3   OH237923   2.586   4.331  13.671 -0.1225  0.1208 -0.3422
 5503TIP3    H137924   2.506   4.348  13.623  2.1149  1.9515 -3.8044
 5503TIP3    H237925   2.618   4.418  13.697  0.2728 -0.6382  1.9655
 5504TIP3   OH237926   6.217   5.810   3.193  0.0247 -0.0008 -0.3126
 5504TIP3    H137927   6.225   5.805   3.289  0.0585 -0.1517 -0.3230
 5504TIP3    H237928   6.125   5.790   3.175 -0.0286  0.2246 -0.2986
 5505TIP3   OH237929   6.639   1.902   5.945  0.1076  0.0152 -1.1724
 5505TIP3    H137930   6.618   1.960   6.018  2.2151 -2.8592  2.0653
 5505TIP3    H237931   6.568   1.837   5.946 -0.0188  0.1393 -1.9147
 5506TIP3   OH237932   1.081   0.197   4.900  0.9096 -0.5286 -0.0035
 5506TIP3    H137933   1.017   0.199   4.971  0.8810 -0.9129 -0.0180
 5506TIP3    H237934   1.077   0.284   4.861  0.0171 -0.7083 -0.3339
 5507TIP3   OH237935   4.993   6.415  14.185  0.2699  0.3165  0.2755
 5507TIP3    H137936   5.080   6.400  14.147  0.8343 -0.2411  1.7284
 5507TIP3    H237937   4.962   6.328  14.210 -0.5224  0.5664  0.2011
 5508TIP3   OH237938   2.288   4.687   0.583  0.4344 -0.8077  0.3171
 5508TIP3    H137939   2.280   4.601   0.542 -0.2037 -1.2766  1.3861
 5508TIP3    H237940   2.370   4.683   0.633  1.0979 -0.3130 -0.6971
 5509TIP3   OH237941   1.562   5.895   0.261  0.0445  0.4588 -0.5133
 5509TIP3    H137942   1.642   5.948   0.271 -0.0987  0.2958  2.2645
 5509TIP3    H237943   1.557   5.878   0.167  2.3878  1.8326 -0.9889
 5510TIP3   OH237944   3.045   1.974   4.819  0.1901  0.1172 -0.3240
 5510TIP3    H137945   3.116   1.911   4.836 -1.6673 -2.2541 -0.8495
 5510TIP3    H237946   3.089   2.059   4.820  2.9562 -1.1803 -0.1306
 5511TIP3   OH237947   1.358   5.792  13.940 -0.0069  0.3264 -0.8971
 5511TIP3    H137948   1.323   5.764  13.855 -0.6057 -0.5500 -0.3619
 5511TIP3    H237949   1.354   5.715  13.995 -1.6574  1.4142  0.5962
 5512TIP3   OH237950   5.015   2.236  16.820 -0.2105 -0.3119  0.5316
 5512TIP3    H137951   5.039   2.278  16.738  2.9060 -1.2409  0.8264
 5512TIP3    H237952   4.996   2.145  16.797 -0.2086 -0.3623  0.7242
 5513TIP3   OH237953   6.073   2.244  15.995 -0.1631  0.1911  0.1319
 5513TIP3    H137954   6.010   2.282  16.055  2.0756  3.7890  0.5174
 5513TIP3    H237955   6.059   2.290  15.912  0.6816 -0.3478 -0.3322
 5514TIP3   OH237956   6.027   0.448   3.457 -0.6602 -0.3932  0.1817
 5514TIP3    H137957   5.964   0.406   3.516 -0.4976 -0.0301  0.6125
 5514TIP3    H237958   6.108   0.452   3.507 -0.3034 -0.8009 -0.3506
 5515TIP3   OH237959   3.000   0.980  16.890 -0.3522  0.0461  0.5393
 5515TIP3    H137960   2.947   0.979  16.970  0.0811  0.9216  0.8502
 5515TIP3    H237961   3.031   1.071  16.883  2.0814 -0.6714  1.0204
 5516TIP3   OH237962   5.758   6.510   5.905 -0.7906  0.2165 -0.4270
 5516TIP3    H137963   5.848   6.530   5.880 -1.0384  1.0607 -0.6526
 5516TIP3    H237964   5.732   6.581   5.963 -1.1534 -0.2836  0.0379
 5517TIP3   OH237965   5.458   5.054   3.833  0.6907  0.7501 -0.0443
 5517TIP3    H137966   5.467   5.020   3.922 -0.4704 -1.1724 -0.6071
 5517TIP3    H237967   5.371   5.095   3.833 -0.4016 -1.4130 -0.8852
 5518TIP3   OH237968   5.754   6.116  17.033  0.0935 -0.3120 -0.2702
 5518TIP3    H137969   5.672   6.162  17.053  0.2820 -0.0673 -0.0584
 5518TIP3    H237970   5.818   6.154  17.093  0.3145 -0.6575 -0.2870
 5519TIP3   OH237971   0.107   2.354  12.416  0.0398 -0.5542  0.1018
 5519TIP3    H137972   0.070   2.389  12.335 -0.8635  1.2122  1.2113
 5519TIP3    H237973   0.148   2.272  12.390  0.8827  0.5520 -2.3741
 5520TIP3   OH237974   0.952   6.622  16.717  0.0475 -0.4128 -0.6433
 5520TIP3    H137975   0.930   6.714  16.725  0.0994 -0.3852 -0.8167
 5520TIP3    H237976   1.021   6.608  16.782 -1.6652 -0.9053  1.1769
 5521TIP3   OH237977   3.078   2.391   3.309  0.0283  0.3170 -0.0574
 5521TIP3    H137978   3.001   2.366   3.259  0.0279 -2.6965  1.2865
 5521TIP3    H237979   3.061   2.361   3.398  2.8603 -0.8628  0.2067
 5522TIP3   OH237980   2.818   0.135   0.649  0.5826 -0.4840 -0.1645
 5522TIP3    H137981   2.869   0.185   0.585 -0.9531 -0.1487 -1.1823
 5522TIP3    H237982   2.791   0.201   0.713  1.4996 -0.6905  0.4662
 5523TIP3   OH237983   1.256   4.238  13.112  0.2151 -0.1268 -0.4339
 5523TIP3    H137984   1.187   4.243  13.045 -1.3378 -1.3277  0.9792
 5523TIP3    H237985   1.302   4.321  13.105 -1.4891  0.8086 -1.3493
 5524TIP3   OH237986   1.464   5.640   2.702 -0.7486  0.6235 -0.1751
 5524TIP3    H137987   1.462   5.549   2.673  0.1098  0.7197 -0.5705
 5524TIP3    H237988   1.434   5.690   2.625 -1.0185  0.6904 -0.0272
 5525TIP3   OH237989   0.106   3.845  12.339  0.7463 -0.6230 -0.1152
 5525TIP3    H137990   0.154   3.928  12.347  2.3196 -1.6257  1.9055
 5525TIP3    H237991   0.170   3.784  12.303 -0.2231 -1.1336 -1.0164
 5526TIP3   OH237992   3.711   5.026   5.091 -0.4046  0.3990  0.0944
 5526TIP3    H137993   3.645   4.957   5.091  0.0124 -0.0121 -0.7362
 5526TIP3    H237994   3.794   4.980   5.083 -0.0655  0.9504  0.3919
 5527TIP3   OH237995   4.792   1.038  16.708  0.7072  0.3434  0.4234
 5527TIP3    H137996   4.801   0.973  16.638  0.1952  1.1872 -0.4415
 5527TIP3    H237997   4.739   0.994  16.775  0.2034 -0.0723 -0.2348
 5528TIP3   OH237998   4.224   5.619  16.056 -0.1088  0.7186  0.1011
 5528TIP3    H137999   4.199   5.658  15.971 -0.5453  0.2408  0.0093
 5528TIP3    H238000   4.142   5.614  16.105 -0.0674 -0.1696  0.0814
 5529TIP3   OH238001   4.394   5.458  12.184  0.2707  0.5161 -0.1578
 5529TIP3    H138002   4.435   5.492  12.264 -1.4751  0.8120  0.6473
 5529TIP3    H238003   4.300   5.458  12.202 -0.0819 -0.7658 -1.6999
 5530TIP3   OH238004   4.479   2.127  16.431  0.0187  0.2633 -0.1663
 5530TIP3    H138005   4.567   2.128  16.469 -1.1848 -2.4334  3.1899
 5530TIP3    H238006   4.422   2.102  16.503 -3.8849  3.6086 -1.6774
 5531TIP3   OH238007   3.914   2.293   2.749 -0.1010 -0.1674  0.1046
 5531TIP3    H138008   3.849   2.239   2.704 -0.0126  1.1282 -1.6827
 5531TIP3    H238009   3.920   2.256   2.837 -1.7278 -1.5914 -0.3442
 5532TIP3   OH238010   0.523   5.483  13.648  0.5083 -0.3018  0.2723
 5532TIP3    H138011   0.473   5.509  13.725  1.0853  1.1371  0.2010
 5532TIP3    H238012   0.538   5.565  13.600  0.0446 -1.1681 -1.4586
 5533TIP3   OH238013   3.042   2.236  10.547  0.3590 -0.4249  0.5457
 5533TIP3    H138014   2.992   2.178  10.604 -0.3463 -0.2984  0.0610
 5533TIP3    H238015   3.133   2.208  10.558  0.1285 -0.9946  1.0384
 5534TIP3   OH238016   1.496   3.289   4.231 -0.2644  0.5700 -0.3425
 5534TIP3    H138017   1.445   3.259   4.156 -0.8675  0.2472  0.1941
 5534TIP3    H238018   1.437   3.347   4.279 -0.1114  0.2410  0.2520
 5535TIP3   OH238019   0.136   5.060  13.372 -0.2029  0.6010  0.1711
 5535TIP3    H138020   0.214   5.111  13.395 -0.1536  0.1093  1.1497
 5535TIP3    H238021   0.122   5.003  13.447 -1.0100  0.0761 -0.3646
 5536TIP3   OH238022   2.928   3.216   1.510  0.4893 -0.2867 -0.2451
 5536TIP3    H138023   2.878   3.248   1.585 -0.1853  0.6479 -1.0551
 5536TIP3    H238024   2.890   3.130   1.491  0.4189 -0.3696  0.2510
 5537TIP3   OH238025   0.150   4.846   0.015 -0.3046 -0.1168  0.5070
 5537TIP3    H138026   0.063   4.878  -0.010 -0.6896 -1.4115  0.0596
 5537TIP3    H238027   0.184   4.806  -0.065  0.3337 -0.4080  0.9167
 5538TIP3   OH238028   3.424   2.827  14.526  0.0403 -1.0445 -0.2147
 5538TIP3    H138029   3.389   2.854  14.441  3.3174 -1.5714 -1.8822
 5538TIP3    H238030   3.447   2.909  14.570 -1.4103 -0.7845  0.1341
 5539TIP3   OH238031   3.136   0.921   0.368 -0.0404 -0.3033 -0.2129
 5539TIP3    H138032   3.084   0.842   0.376 -0.2604 -0.1580 -0.2073
 5539TIP3    H238033   3.078   0.984   0.326  0.0009 -0.0224  0.1442
 5540TIP3   OH238034   2.475   4.527   3.010  0.5146  0.3898  0.5673
 5540TIP3    H138035   2.405   4.583   3.043  0.9281  0.4335  1.3945
 5540TIP3    H238036   2.435   4.440   3.004 -0.0366  0.6999 -0.4187
 5541TIP3   OH238037   6.566   1.696   5.706 -0.1147 -0.1406 -0.5714
 5541TIP3    H138038   6.620   1.618   5.720  3.9715  1.9015 -3.2342
 5541TIP3    H238039   6.524   1.711   5.791  3.8082 -1.8105  1.9314
 5542TIP3   OH238040   4.158   5.128  15.092  0.5226  0.2420 -0.0582
 5542TIP3    H138041   4.211   5.197  15.130  2.4175 -1.4320  0.4870
 5542TIP3    H238042   4.097   5.103  15.161 -0.8570  1.9317 -0.5741
 5543TIP3   OH238043   0.450   4.196   4.267  0.4016 -0.1377 -0.4063
 5543TIP3    H138044   0.421   4.145   4.192  0.5704 -0.7134 -0.0875
 5543TIP3    H238045   0.497   4.133   4.322 -2.2628 -0.4646  1.6630
 5544TIP3   OH238046   0.563   3.080  11.656 -0.1253  0.5198 -0.0528
 5544TIP3    H138047   0.559   3.171  11.629 -1.5422  1.0686  1.8426
 5544TIP3    H238048   0.621   3.079  11.732  0.8314 -0.3750 -0.7663
 5545TIP3   OH238049   2.089   2.106  13.033 -0.4041 -0.1636 -0.1829
 5545TIP3    H138050   2.130   2.072  13.112 -0.9085 -1.4563 -0.4593
 5545TIP3    H238051   2.034   2.178  13.064 -1.5576 -1.4322  0.8460
 5546TIP3   OH238052   5.720   0.379  16.885 -0.5784  0.0302  0.3516
 5546TIP3    H138053   5.678   0.308  16.836 -0.2928  1.6949 -2.5395
 5546TIP3    H238054   5.813   0.366  16.872 -0.5372  1.1887 -0.6719
 5547TIP3   OH238055   2.161   3.155   3.809  0.1525  0.3221 -0.2480
 5547TIP3    H138056   2.215   3.211   3.752  2.5429  0.4921  1.9542
 5547TIP3    H238057   2.105   3.217   3.856  0.1224  0.4778 -0.4854
 5548TIP3   OH238058   1.205   5.031  16.684  0.2165 -0.1146  0.3805
 5548TIP3    H138059   1.249   5.082  16.752  0.7528  0.9602 -0.7469
 5548TIP3    H238060   1.260   5.042  16.606  0.5115 -2.6628  0.1517
 5549TIP3   OH238061   5.707   6.152   4.314 -0.7228  0.4218 -0.2645
 5549TIP3    H138062   5.691   6.084   4.249 -0.5426  0.7880 -0.6914
 5549TIP3    H238063   5.662   6.120   4.393 -0.6794 -0.1679 -0.4727
 5550TIP3   OH238064   4.652   1.125   1.826  0.0957  0.1793  0.9516
 5550TIP3    H138065   4.639   1.129   1.921 -0.0875  1.0342  0.9019
 5550TIP3    H238066   4.591   1.190   1.791  0.9907  0.7193  0.3455
 5551TIP3   OH238067   3.490   4.850  17.188 -0.1551 -0.5138 -0.1973
 5551TIP3    H138068   3.545   4.810  17.256  2.2493 -0.8095 -2.1755
 5551TIP3    H238069   3.455   4.776  17.139 -2.2738 -0.3167  0.9198
 5552TIP3   OH238070   6.801   3.298  10.644 -0.0113 -0.4440 -0.4039
 5552TIP3    H138071   6.732   3.347  10.600 -0.4009 -0.1633  0.5204
 5552TIP3    H238072   6.758   3.218  10.675  0.0946 -0.2978  0.1207
 5553TIP3   OH238073   0.865   0.917   1.787 -0.0307 -0.3888  0.2473
 5553TIP3    H138074   0.930   0.870   1.735  0.6070  0.0554  0.6280
 5553TIP3    H238075   0.834   0.854   1.851  0.7688 -0.3227  0.7111
 5554TIP3   OH238076   4.985   0.316  10.533 -0.0563  0.1360  0.5430
 5554TIP3    H138077   5.012   0.402  10.564  0.7083 -0.2987  1.1121
 5554TIP3    H238078   4.980   0.325  10.438  0.0424  0.8064  0.6026
 5555TIP3   OH238079   6.727   3.969  12.551 -0.8344  0.3217 -0.4935
 5555TIP3    H138080   6.775   3.939  12.473 -1.4272 -0.6256 -0.5134
 5555TIP3    H238081   6.773   3.928  12.624  0.2734  1.9315 -0.2449
 5556TIP3   OH238082   2.765   4.172  13.835 -0.3950  0.5796 -0.1000
 5556TIP3    H138083   2.764   4.076  13.837  1.3954  0.5259 -0.1050
 5556TIP3    H238084   2.688   4.195  13.784  0.0045 -0.9298 -1.4800
 5557TIP3   OH238085   0.345   4.071  10.701 -0.4238  0.5279  0.1212
 5557TIP3    H138086   0.328   4.000  10.640  0.5175  0.5979 -0.2439
 5557TIP3    H238087   0.432   4.104  10.676  1.7387 -1.7448  3.6093
 5558TIP3   OH238088   6.373   0.176   1.049 -0.0032  0.7964 -0.2379
 5558TIP3    H138089   6.289   0.221   1.039 -0.4915  0.0206  0.2828
 5558TIP3    H238090   6.367   0.132   1.134  0.4529 -0.2437 -0.7280
 5559TIP3   OH238091   0.578   4.828   0.929  0.0535 -0.1631  0.6014
 5559TIP3    H138092   0.563   4.850   0.837  1.9977  1.3761  0.5763
 5559TIP3    H238093   0.545   4.739   0.938  1.3229 -1.0016 -2.0353
 5560TIP3   OH238094   2.753   5.711  13.780  0.8697  0.2482  0.4948
 5560TIP3    H138095   2.713   5.627  13.801 -1.7772  1.2525 -0.0997
 5560TIP3    H238096   2.819   5.725  13.848  0.4672 -1.6978  1.3362
 5561TIP3   OH238097   3.583   5.598   2.798 -0.0021 -0.3092 -0.2271
 5561TIP3    H138098   3.627   5.515   2.779  0.4947 -0.4459  1.4014
 5561TIP3    H238099   3.651   5.652   2.838 -0.9334 -0.0028  0.9986
 5562TIP3   OH238100   6.428   0.394  16.073  0.1435 -0.1747 -0.2407
 5562TIP3    H138101   6.471   0.312  16.098  0.1611 -0.0472  0.1514
 5562TIP3    H238102   6.488   0.435  16.011 -0.2011 -0.8048 -1.0237
 5563TIP3   OH238103   1.449   1.730  15.134  0.5618  0.6053 -0.2735
 5563TIP3    H138104   1.410   1.658  15.085 -0.3849  2.6492 -2.7408
 5563TIP3    H238105   1.402   1.731  15.218  0.9669 -1.8822  0.0639
 5564TIP3   OH238106   4.934   6.001   0.092  0.1756  0.2271  0.8019
 5564TIP3    H138107   5.022   5.986   0.057 -0.5996 -0.0136 -1.1933
 5564TIP3    H238108   4.924   5.935   0.161  0.1205 -2.7235 -1.7544
 5565TIP3   OH238109   5.634   3.943  11.654  0.9100 -0.1373  0.2260
 5565TIP3    H138110   5.718   3.920  11.692 -0.2234 -0.1139  3.0213
 5565TIP3    H238111   5.613   4.029  11.692  0.0493  0.2946 -1.1544
 5566TIP3   OH238112   3.525   0.601  14.379 -0.6547 -0.7709 -0.2925
 5566TIP3    H138113   3.584   0.633  14.311 -1.3296 -2.5835 -1.8542
 5566TIP3    H238114   3.583   0.562  14.445 -0.0298 -1.3893 -1.1768
 5567TIP3   OH238115   0.363   0.265   2.631  0.0837  0.1903  0.0145
 5567TIP3    H138116   0.417   0.206   2.683  0.9897  1.1845  0.2450
 5567TIP3    H238117   0.393   0.254   2.541  1.2727  1.3129  0.2398
 5568TIP3   OH238118   4.515   0.550  11.950 -0.7521 -0.5253 -0.3608
 5568TIP3    H138119   4.495   0.601  12.029 -0.5493  0.1443 -0.7391
 5568TIP3    H238120   4.487   0.461  11.972 -1.1353 -0.2514  0.2956
 5569TIP3   OH238121   4.352   0.934  16.030 -0.0107  0.2288  0.4021
 5569TIP3    H138122   4.291   0.992  15.984  3.4420  1.9302 -2.5345
 5569TIP3    H238123   4.339   0.848  15.990 -0.8841  0.4307  0.2422
 5570TIP3   OH238124   6.299   6.770  13.030  0.5032  1.2179  0.2491
 5570TIP3    H138125   6.392   6.789  13.036  0.9660 -1.2420  2.6504
 5570TIP3    H238126   6.256   6.846  13.069  1.5609  1.8888  0.1399
 5571TIP3   OH238127   5.147   4.674   3.667  0.5498  0.5146  0.1742
 5571TIP3    H138128   5.060   4.653   3.702  0.0829  1.4093 -0.3988
 5571TIP3    H238129   5.160   4.612   3.595  0.8567 -0.3218  0.9357
 5572TIP3   OH238130   2.641   4.622   3.248 -0.3353 -0.0906  0.2327
 5572TIP3    H138131   2.590   4.609   3.168  0.5713 -1.8971 -0.0948
 5572TIP3    H238132   2.730   4.637   3.218 -0.5716  3.2151  0.8001
 5573TIP3   OH238133   4.228   3.940   6.123 -0.7964  0.1042 -0.1964
 5573TIP3    H138134   4.258   4.031   6.127 -0.0506 -0.1215 -0.3820
 5573TIP3    H238135   4.141   3.941   6.162 -0.9785  0.9756 -0.6055
 5574TIP3   OH238136   0.405   6.055   4.399  0.2981 -0.3453  0.1308
 5574TIP3    H138137   0.458   6.134   4.388 -0.2007  0.0469  0.4372
 5574TIP3    H238138   0.333   6.066   4.337  0.2616 -0.5894  0.1302
 5575TIP3   OH238139   2.459   5.367   0.097 -0.1585 -0.3563  0.1391
 5575TIP3    H138140   2.460   5.283   0.142  1.3223  0.1747  1.1626
 5575TIP3    H238141   2.481   5.431   0.164 -1.8601  0.9502 -0.4750
 5576TIP3   OH238142   2.058   1.116  12.558 -0.2026  0.2002 -0.4695
 5576TIP3    H138143   2.073   1.207  12.581 -0.9737  0.1197  0.4101
 5576TIP3    H238144   2.000   1.119  12.482 -0.1007  0.4344 -0.5380
 5577TIP3   OH238145   2.896   3.153  13.455 -0.3275 -0.0714  0.1229
 5577TIP3    H138146   2.817   3.100  13.467 -0.6691  0.7441  1.7926
 5577TIP3    H238147   2.966   3.088  13.444 -0.6527 -0.9787  2.5967
 5578TIP3   OH238148   5.135   6.659  11.131  0.1968  0.3047 -0.4336
 5578TIP3    H138149   5.210   6.644  11.073  0.6939  1.9229 -0.2488
 5578TIP3    H238150   5.059   6.636  11.078  0.7344  0.1824 -1.1657
 5579TIP3   OH238151   6.096   6.320   0.816 -0.4766 -0.2732 -0.0224
 5579TIP3    H138152   6.069   6.230   0.831 -0.2819 -0.2241  0.6427
 5579TIP3    H238153   6.187   6.313   0.787 -0.5337 -0.2979 -0.2026
 5580TIP3   OH238154   3.677   2.847   0.479  0.4702  0.0622  0.5534
 5580TIP3    H138155   3.667   2.752   0.487 -0.8021 -0.1022 -2.0064
 5580TIP3    H238156   3.766   2.858   0.444 -0.0045 -0.3595 -0.8548
 5581TIP3   OH238157   6.522   5.697  14.342  0.0687  0.9156  0.2195
 5581TIP3    H138158   6.438   5.651  14.347  0.0649  0.6387 -1.6680
 5581TIP3    H238159   6.588   5.629  14.350  0.1156  0.9981  0.5774
 5582TIP3   OH238160   6.617   5.085  11.849  0.8588 -0.0381 -0.0842
 5582TIP3    H138161   6.599   4.990  11.851  0.6937 -0.0000  0.6624
 5582TIP3    H238162   6.708   5.091  11.823  0.1772 -0.2899 -2.7570
 5583TIP3   OH238163   2.407   0.236   3.873 -0.1138  0.5872  0.1836
 5583TIP3    H138164   2.441   0.170   3.933 -1.3335  1.3442  1.7659
 5583TIP3    H238165   2.328   0.196   3.836  0.1875  0.4382 -0.3047
 5584TIP3   OH238166   0.802   3.423  15.412  0.1750 -0.4318  0.3163
 5584TIP3    H138167   0.734   3.469  15.461  0.4683  0.0277  0.2883
 5584TIP3    H238168   0.868   3.489  15.393  0.4026 -0.7683 -0.0840
 5585TIP3   OH238169   0.726   3.564   5.454  0.0898  0.3645  0.0196
 5585TIP3    H138170   0.783   3.529   5.386 -2.0212  0.5705 -1.9736
 5585TIP3    H238171   0.694   3.647   5.418 -0.3009  0.9895  1.7353
 5586TIP3   OH238172   1.921   3.133   2.206 -0.5424 -0.0935  0.0082
 5586TIP3    H138173   1.835   3.133   2.249 -1.5226 -2.1204 -1.7377
 5586TIP3    H238174   1.903   3.166   2.118  0.6142  0.0714 -0.1750
 5587TIP3   OH238175   0.907   6.296   2.167  0.2800 -0.0244 -0.8683
 5587TIP3    H138176   0.836   6.232   2.164  0.4548 -0.1950 -1.3934
 5587TIP3    H238177   0.961   6.276   2.091 -0.7914  2.0132 -2.2699
 5588TIP3   OH238178   6.329   2.852  14.709  0.8888 -0.0155 -0.1227
 5588TIP3    H138179   6.383   2.782  14.673  1.9285 -0.0844  1.4590
 5588TIP3    H238180   6.358   2.932  14.666 -0.5651 -0.5346 -2.2266
 5589TIP3   OH238181   0.705   0.152  15.700 -0.3373  0.1012 -0.0956
 5589TIP3    H138182   0.672   0.215  15.636  2.6919  0.9163 -1.0292
 5589TIP3    H238183   0.683   0.067  15.662 -0.9109  0.5923 -0.8941
 5590TIP3   OH238184   2.328   1.612  11.142 -0.4661 -0.0351 -0.4976
 5590TIP3    H138185   2.385   1.638  11.070 -0.8821 -0.6195 -1.0556
 5590TIP3    H238186   2.387   1.579  11.209  0.0579  2.1702  0.1755
 5591TIP3   OH238187   4.748   2.996   1.482 -0.1201  0.0116  0.0549
 5591TIP3    H138188   4.751   3.091   1.478  2.5111  0.0805  1.1429
 5591TIP3    H238189   4.834   2.968   1.450 -0.6744 -1.9771  0.1472
 5592TIP3   OH238190   4.015   0.958   1.146 -0.2922  0.1976  0.2632
 5592TIP3    H138191   4.017   0.862   1.145 -0.5883  0.1921  0.5288
 5592TIP3    H238192   4.082   0.983   1.081  1.2086 -0.1690  1.5976
 5593TIP3   OH238193   5.570   0.641   0.952  0.0320  0.0301  0.1173
 5593TIP3    H138194   5.627   0.615   0.879  0.6830  0.1385  0.5861
 5593TIP3    H238195   5.507   0.569   0.959 -1.2339  0.8590 -1.7647
 5594TIP3   OH238196   2.528   1.595  12.056 -0.0257 -0.9125 -0.5305
 5594TIP3    H138197   2.540   1.538  11.980  2.7357 -0.2847 -0.6701
 5594TIP3    H238198   2.617   1.616  12.085 -0.9779 -0.2678  2.2479
 5595TIP3   OH238199   5.216   5.332   5.187  0.2168  0.4263  0.0108
 5595TIP3    H138200   5.133   5.326   5.236 -1.2553  0.3180 -2.3168
 5595TIP3    H238201   5.255   5.245   5.195  0.7348  0.7992  2.0781
 5596TIP3   OH238202   0.347   3.849  14.849  0.2810  0.2405  0.3875
 5596TIP3    H138203   0.377   3.763  14.819  0.2903  0.1133  0.7457
 5596TIP3    H238204   0.252   3.846  14.838  0.4114  0.7430 -0.9969
 5597TIP3   OH238205   4.846   0.049  16.872 -0.1192 -0.6697 -0.3074
 5597TIP3    H138206   4.833   0.103  16.950 -1.4975  0.3623 -1.2201
 5597TIP3    H238207   4.831  -0.041  16.904 -0.1775 -0.3141  0.7229
 5598TIP3   OH238208   2.048   1.528  11.275 -0.6821 -0.6618 -0.0956
 5598TIP3    H138209   2.074   1.602  11.221  0.3319 -1.7519 -1.1549
 5598TIP3    H238210   1.971   1.492  11.231 -1.0162 -0.3978  0.2705
 5599TIP3   OH238211   0.812   6.505  11.892  0.2266 -0.2972  0.5821
 5599TIP3    H138212   0.739   6.516  11.831 -0.8313 -2.1574  1.4364
 5599TIP3    H238213   0.852   6.421  11.867  0.5385 -0.4906  1.6658
 5600TIP3   OH238214   5.155   4.633  15.626 -0.6049 -0.7567 -0.1994
 5600TIP3    H138215   5.121   4.547  15.652 -2.4785 -0.0906 -0.3505
 5600TIP3    H238216   5.142   4.636  15.532 -2.5687  0.4920  0.0616
 5601TIP3   OH238217   3.543   2.495  13.936 -0.5949 -0.2666 -0.0398
 5601TIP3    H138218   3.507   2.562  13.879 -2.0216 -0.9547 -0.0019
 5601TIP3    H238219   3.545   2.416  13.883 -0.3904 -0.5460  0.3743
 5602TIP3   OH238220   2.751   6.481   3.386  0.1009 -0.0315  0.3166
 5602TIP3    H138221   2.721   6.540   3.455  1.3549  1.4669 -0.3589
 5602TIP3    H238222   2.696   6.403   3.395 -2.1407  1.5039  0.7841
 5603TIP3   OH238223   1.232   6.145   0.730 -0.0942  0.0027 -0.3120
 5603TIP3    H138224   1.205   6.236   0.742  0.2033  0.0544 -0.0154
 5603TIP3    H238225   1.184   6.097   0.797  2.2809  0.4215  1.8571
 5604TIP3   OH238226   6.755   2.500  14.913  0.2486 -0.6682 -0.0000
 5604TIP3    H138227   6.811   2.575  14.937  0.1751 -0.9377  1.0769
 5604TIP3    H238228   6.674   2.515  14.961 -0.3316 -0.6853 -0.9508
 5605TIP3   OH238229   2.282   4.605  16.861  0.2455  0.4737 -0.1739
 5605TIP3    H138230   2.304   4.675  16.799  0.0608  0.1845 -0.5691
 5605TIP3    H238231   2.229   4.544  16.811  0.8757 -0.2405  0.0098
 5606TIP3   OH238232   4.355   6.137  12.371  0.1847  0.0439  0.4027
 5606TIP3    H138233   4.379   6.152  12.280  1.0481 -0.3182  0.5635
 5606TIP3    H238234   4.437   6.147  12.420 -0.3058  0.4415  1.1626
 5607TIP3   OH238235   4.033   5.326  15.969  0.4655  0.2478  0.2031
 5607TIP3    H138236   4.065   5.259  16.029  0.5586 -0.0939 -0.2250
 5607TIP3    H238237   4.108   5.346  15.913  0.3558  0.5035  0.1490
 5608TIP3   OH238238   5.807   6.495   3.276  0.4786  0.4622  0.3757
 5608TIP3    H138239   5.896   6.460   3.287  0.2844 -1.0170 -2.0814
 5608TIP3    H238240   5.796   6.504   3.182 -1.7349  1.3646  0.6610
 5609TIP3   OH238241   0.196   0.004   6.001  0.4156 -0.3432 -0.4709
 5609TIP3    H138242   0.166  -0.010   6.091  2.4309  1.0953  0.4910
 5609TIP3    H238243   0.284   0.041   6.010  1.2666 -1.5042 -3.0763
 5610TIP3   OH238244   1.406   3.702  12.376  0.3134 -0.1256  0.2876
 5610TIP3    H138245   1.424   3.624  12.430 -0.8693 -0.6270 -0.0177
 5610TIP3    H238246   1.329   3.678  12.325 -0.6823  1.6014  0.9106
 5611TIP3   OH238247   2.818   1.632   5.955  0.0349 -0.2074 -0.0583
 5611TIP3    H138248   2.842   1.569   6.023 -1.2835  0.1640  0.8055
 5611TIP3    H238249   2.864   1.712   5.979 -0.7865  0.0598  0.7092
 5612TIP3   OH238250   0.312   5.091   3.597  0.0208 -0.8059  0.9221
 5612TIP3    H138251   0.405   5.103   3.617 -0.2573  1.0717  1.3035
 5612TIP3    H238252   0.272   5.176   3.618 -1.4993 -1.0093 -0.8399
 5613TIP3   OH238253   6.399   5.500  15.397  0.0161 -0.3306  0.0387
 5613TIP3    H138254   6.473   5.507  15.458 -0.9001  0.3721  1.0923
 5613TIP3    H238255   6.371   5.409  15.404  0.7045 -0.5800 -0.2996
 5614TIP3   OH238256   0.139   2.051   6.114  0.2285 -0.0982 -1.0577
 5614TIP3    H138257   0.222   2.098   6.129  0.2633 -0.7394  0.9869
 5614TIP3    H238258   0.162   1.959   6.121 -0.5842 -0.2992 -0.9642
 5615TIP3   OH238259   0.570   4.718   4.247  0.1253  0.3274 -0.1172
 5615TIP3    H138260   0.494   4.661   4.242 -0.7826  1.3715  0.9179
 5615TIP3    H238261   0.637   4.666   4.291 -0.8045  0.1623  1.1434
 5616TIP3   OH238262   1.044   2.240  15.333 -0.3029 -0.3478  0.1607
 5616TIP3    H138263   1.059   2.147  15.317 -2.0472 -1.0531  2.2693
 5616TIP3    H238264   1.007   2.272  15.251 -0.6494 -1.7507 -0.2655
 5617TIP3   OH238265   4.965   0.012  14.872 -0.4486  0.1003 -0.3247
 5617TIP3    H138266   4.949   0.036  14.963 -1.6896  0.6411 -0.6621
 5617TIP3    H238267   4.932   0.087  14.821  2.8044  1.1377 -1.1620
 5618TIP3   OH238268   4.845   4.930  14.861  0.2537  0.2492 -0.0359
 5618TIP3    H138269   4.899   4.941  14.783  1.6924  0.0688  0.8937
 5618TIP3    H238270   4.756   4.951  14.832  0.7585  0.2552 -1.6889
 5619TIP3   OH238271   4.834   2.508   1.271 -0.3883 -0.3593  0.0717
 5619TIP3    H138272   4.929   2.497   1.273 -0.5506 -2.2989 -0.6073
 5619TIP3    H238273   4.819   2.576   1.206  0.4201 -2.9334 -3.0491
 5620TIP3   OH238274   3.305   2.883   0.686 -0.2367 -0.4725  0.0129
 5620TIP3    H138275   3.232   2.832   0.650 -0.0802 -1.6200  1.2370
 5620TIP3    H238276   3.383   2.834   0.661  0.0975  0.4639 -0.8278
 5621TIP3   OH238277   0.141   3.452  16.395 -0.0268  0.0791 -0.3846
 5621TIP3    H138278   0.235   3.463  16.408 -0.6782  2.3306  4.0174
 5621TIP3    H238279   0.128   3.357  16.399  1.9227 -0.2175  0.1225
 5622TIP3   OH238280   0.240   4.650   0.822  0.1482 -0.4004 -0.3266
 5622TIP3    H138281   0.306   4.580   0.823  2.3865  1.5805  0.5310
 5622TIP3    H238282   0.268   4.707   0.750 -1.0432  0.1625 -0.3587
 5623TIP3   OH238283   1.822   5.329   5.601  0.5548  0.1653 -0.1662
 5623TIP3    H138284   1.781   5.262   5.655  2.8298 -0.3000  1.1174
 5623TIP3    H238285   1.843   5.284   5.518  1.3286 -0.5268  0.3821
 5624TIP3   OH238286   3.531   5.718   0.466 -0.3925  0.0262 -0.0486
 5624TIP3    H138287   3.459   5.746   0.409 -1.4666  1.0460  1.6985
 5624TIP3    H238288   3.529   5.780   0.539 -0.1428 -2.1319  1.9171
 5625TIP3   OH238289   1.702   3.621  13.219  0.3326  0.2047  0.3853
 5625TIP3    H138290   1.735   3.651  13.134  2.9302  0.2738  1.3391
 5625TIP3    H238291   1.774   3.569  13.256 -1.2236 -0.9226  2.0160
 5626TIP3   OH238292   1.588   3.485   3.108 -1.1067 -0.1493 -0.1090
 5626TIP3    H138293   1.606   3.481   3.014  2.8331  1.7182  0.3780
 5626TIP3    H238294   1.567   3.577   3.125  1.3487  0.2456  1.1822
 5627TIP3   OH238295   3.104   6.145  11.571  0.0064 -0.0850  0.2966
 5627TIP3    H138296   3.040   6.148  11.643  1.2850  1.0510  1.4495
 5627TIP3    H238297   3.155   6.066  11.589 -0.2587 -0.2962  0.1171
 5628TIP3   OH238298   6.262   6.130   4.803 -0.2232 -0.0454 -0.2376
 5628TIP3    H138299   6.264   6.224   4.786 -0.7604 -0.2352 -1.3987
 5628TIP3    H238300   6.308   6.120   4.887 -0.8060  1.3250  0.2749
 5629TIP3   OH238301   5.699   3.825   0.070 -0.1862 -0.0825 -0.5330
 5629TIP3    H138302   5.670   3.813   0.161 -1.5105 -1.2019 -1.0666
 5629TIP3    H238303   5.742   3.743   0.048  4.8512  1.8672  0.5919
 5630TIP3   OH238304   3.917   4.032   2.767 -0.1030 -0.2358  0.4246
 5630TIP3    H138305   3.977   4.000   2.834 -0.4530  1.3731  1.5747
 5630TIP3    H238306   3.842   3.973   2.771  0.2837 -0.7059  0.8021
 5631TIP3   OH238307   3.935   6.252  12.228 -0.0488 -0.1242  0.4884
 5631TIP3    H138308   3.928   6.157  12.225  0.4993 -0.1824  0.9827
 5631TIP3    H238309   3.923   6.275  12.320  1.7166  0.1178  0.6840
 5632TIP3   OH238310   2.331   2.205  15.886 -0.9195 -0.3520 -0.1756
 5632TIP3    H138311   2.264   2.170  15.827 -0.8911 -3.6966  1.4786
 5632TIP3    H238312   2.403   2.142  15.880  1.6387  2.4081 -0.8862
 5633TIP3   OH238313   3.097   2.334  14.606  0.1249 -0.3939 -0.9010
 5633TIP3    H138314   3.146   2.413  14.584  2.8469 -0.9493  2.3008
 5633TIP3    H238315   3.116   2.319  14.699 -2.0928 -3.5888 -0.7847
 5634TIP3   OH238316   4.456   2.512   0.924  0.0682 -0.5230  0.2010
 5634TIP3    H138317   4.445   2.418   0.941 -1.4994 -0.3868  0.0918
 5634TIP3    H238318   4.543   2.533   0.958 -0.5494 -1.5007  2.5613
 5635TIP3   OH238319   3.814   4.716  14.736 -0.0480  0.3462  0.3663
 5635TIP3    H138320   3.848   4.733  14.823  0.0817 -0.6770  0.5289
 5635TIP3    H238321   3.720   4.736  14.742 -0.0790  0.0699  0.7991
 5636TIP3   OH238322   0.066   3.381  11.928  0.1375  0.1121 -0.0411
 5636TIP3    H138323   0.103   3.382  11.840  2.6940  4.2396  0.7830
 5636TIP3    H238324  -0.023   3.413  11.918  0.0342 -0.5014 -1.1955
 5637TIP3   OH238325   5.357   5.964  12.984  0.3043 -0.2209  0.0311
 5637TIP3    H138326   5.309   5.882  12.972 -1.0650  0.4574  0.5996
 5637TIP3    H238327   5.302   6.031  12.942  2.6053  0.1446 -2.7132
 5638TIP3   OH238328   0.258   5.520   1.961 -0.1058  0.2072 -0.3923
 5638TIP3    H138329   0.300   5.605   1.955  0.2663 -0.0738 -2.2638
 5638TIP3    H238330   0.228   5.514   2.052  0.9953  1.7721  0.1030
 5639TIP3   OH238331   6.117   4.237   5.388 -0.3265  0.3249  0.6218
 5639TIP3    H138332   6.195   4.231   5.333 -0.9260 -1.2771 -0.0991
 5639TIP3    H238333   6.057   4.292   5.338  0.0852  1.0309  0.8886
 5640TIP3   OH238334   1.527   5.515   1.794 -0.1130  0.7487  0.1741
 5640TIP3    H138335   1.527   5.565   1.712 -0.3329 -0.9053 -0.8679
 5640TIP3    H238336   1.467   5.563   1.851  0.0191  1.9079 -0.6240
 5641TIP3   OH238337   4.371   0.668   2.407  0.3275  0.2601  0.5007
 5641TIP3    H138338   4.454   0.716   2.403 -0.0921  0.9255 -0.5575
 5641TIP3    H238339   4.304   0.734   2.387 -0.5311 -0.1097  2.0415
 5642TIP3   OH238340   1.206   1.727   2.008  0.0065  0.6174 -0.2207
 5642TIP3    H138341   1.243   1.798   2.060  0.5295  0.3581 -0.2289
 5642TIP3    H238342   1.114   1.750   1.997 -0.5036 -0.1013  2.1169
 5643TIP3   OH238343   6.553   2.028  15.492 -0.4447  0.0502 -0.0553
 5643TIP3    H138344   6.641   2.066  15.495 -0.0500 -0.8811  0.7185
 5643TIP3    H238345   6.537   2.013  15.399  0.3728 -0.1370 -0.1732
 5644TIP3   OH238346   1.534   3.752   3.615 -0.2218  0.4589  0.6899
 5644TIP3    H138347   1.565   3.692   3.547 -0.6340  0.5637  0.4122
 5644TIP3    H238348   1.586   3.728   3.692 -0.5657 -0.4326  0.6550
 5645TIP3   OH238349   3.636   6.357   2.833  0.1075 -0.0189 -0.0628
 5645TIP3    H138350   3.686   6.423   2.786 -0.3346  0.8271  0.6149
 5645TIP3    H238351   3.655   6.275   2.787  1.8543  0.3155 -0.0181
 5646TIP3   OH238352   3.430   3.050   3.900 -0.7921  0.1279  0.1696
 5646TIP3    H138353   3.388   3.124   3.944 -0.3797  2.0174 -2.3282
 5646TIP3    H238354   3.504   3.090   3.852  1.4339 -2.4465  1.2096
 5647TIP3   OH238355   0.109   5.204  14.904 -0.4951  0.4472 -0.1880
 5647TIP3    H138356   0.048   5.177  14.835 -0.1159 -1.3008  0.1072
 5647TIP3    H238357   0.061   5.270  14.953 -1.2631  0.7883 -1.3442
 5648TIP3   OH238358   6.102   0.334  16.064  0.3203 -0.0482 -0.4346
 5648TIP3    H138359   6.078   0.341  16.156 -0.1445 -0.8309 -0.4953
 5648TIP3    H238360   6.152   0.253  16.058 -1.9901 -1.5056 -1.3402
 5649TIP3   OH238361   2.541   2.923   5.571  0.2665 -0.1913 -0.2798
 5649TIP3    H138362   2.605   2.855   5.549 -0.0234  0.3854 -3.4737
 5649TIP3    H238363   2.462   2.875   5.596  0.3049 -1.0699 -1.7168
 5650TIP3   OH238364   1.252   5.578   5.585 -0.1892 -0.4574 -0.3873
 5650TIP3    H138365   1.166   5.563   5.624 -0.3603  0.0966 -0.5537
 5650TIP3    H238366   1.252   5.670   5.560  0.9158 -0.0953  0.7923
 5651TIP3   OH238367   6.632   1.904   4.809 -0.2160 -0.1060  0.0486
 5651TIP3    H138368   6.648   1.937   4.720 -0.9068  1.8532  0.6005
 5651TIP3    H238369   6.701   1.945   4.862  0.8820 -2.1281  0.3051
 5652TIP3   OH238370   1.819   2.117  12.941 -0.3731  0.1993  1.5271
 5652TIP3    H138371   1.896   2.141  12.890 -0.9351 -0.6950  0.1902
 5652TIP3    H238372   1.779   2.200  12.966 -0.5934  0.6825 -0.3167
 5653TIP3   OH238373   6.549   4.023   6.435 -0.4328  0.1610  0.4522
 5653TIP3    H138374   6.599   4.104   6.437 -2.0312  1.3940 -2.6668
 5653TIP3    H238375   6.463   4.048   6.469 -1.0335 -0.0945 -0.8238
 5654TIP3   OH238376   5.529   5.540  17.117 -0.5115  0.2154  0.2038
 5654TIP3    H138377   5.483   5.513  17.196 -0.5279 -1.7761 -0.4191
 5654TIP3    H238378   5.461   5.553  17.052 -0.3597 -0.6992 -0.1577
 5655TIP3   OH238379   2.804   4.964  16.045  0.1602  0.6579  0.5474
 5655TIP3    H138380   2.799   4.950  15.950 -1.0215  2.2405  0.3282
 5655TIP3    H238381   2.884   4.919  16.072 -0.5219 -1.5359 -0.8488
 5656TIP3   OH238382   3.881   2.401  13.287  0.4355  0.8925 -0.0112
 5656TIP3    H138383   3.869   2.306  13.299  1.1753  0.9247  1.0690
 5656TIP3    H238384   3.965   2.420  13.327 -0.4716  2.3004  1.3496
 5657TIP3   OH238385   2.713   6.552  16.693 -0.0403 -0.3016 -0.3273
 5657TIP3    H138386   2.788   6.611  16.681  0.1700 -0.3084  0.7956
 5657TIP3    H238387   2.657   6.598  16.755  0.8050 -1.8356  1.6908
 5658TIP3   OH238388   0.678   1.558  10.994  0.6160 -0.0960  0.5838
 5658TIP3    H138389   0.593   1.537  10.956 -0.4329  1.9262  1.6122
 5658TIP3    H238390   0.739   1.555  10.920 -0.2294 -2.0354 -0.0848
 5659TIP3   OH238391   1.482   6.682  15.142 -0.5634 -0.0469  0.0189
 5659TIP3    H138392   1.539   6.665  15.218  1.3736  1.0959 -1.1111
 5659TIP3    H238393   1.394   6.672  15.177  0.2698 -2.3654  1.7523
 5660TIP3   OH238394   0.815   5.355  13.164  0.3060 -0.0433 -0.1780
 5660TIP3    H138395   0.744   5.291  13.164  1.1621 -1.0343  1.4626
 5660TIP3    H238396   0.808   5.400  13.248  3.1719 -2.0002  1.2544
 5661TIP3   OH238397   6.622   4.995   5.015 -0.1708  0.3239  0.1559
 5661TIP3    H138398   6.572   4.914   5.009 -0.0726  0.2516  0.3171
 5661TIP3    H238399   6.556   5.064   5.025 -0.2556  0.2693 -0.0132
 5662TIP3   OH238400   1.107   1.751  16.845 -1.4901 -0.1832 -0.3917
 5662TIP3    H138401   1.038   1.780  16.906 -1.2091 -1.9347  0.8651
 5662TIP3    H238402   1.155   1.685  16.895  0.7053  0.5122 -1.4895
 5663TIP3   OH238403   3.303   1.528   0.584  0.0321 -0.4460  0.0461
 5663TIP3    H138404   3.268   1.454   0.534 -0.4256 -1.2778  1.5356
 5663TIP3    H238405   3.226   1.577   0.611  0.0979 -1.1397  1.5997
 5664TIP3   OH238406   0.057   0.772  11.410  0.6194 -0.1632 -0.2931
 5664TIP3    H138407   0.017   0.695  11.370  1.4171 -0.5412 -0.3888
 5664TIP3    H238408   0.123   0.801  11.346  0.8967  0.1006  0.1046
 5665TIP3   OH238409   2.025   1.268   4.500 -0.5742 -0.1348  0.0007
 5665TIP3    H138410   2.054   1.206   4.567 -1.1253 -0.5917 -0.1806
 5665TIP3    H238411   2.092   1.337   4.500  0.1332 -0.8131  0.0897
 5666TIP3   OH238412   1.942   2.254  16.926 -0.0063  0.3005  0.1109
 5666TIP3    H138413   1.866   2.243  16.870 -0.6307 -2.3929  1.3468
 5666TIP3    H238414   2.016   2.262  16.865 -0.7484 -1.7545 -1.1468
 5667TIP3   OH238415   1.230   1.841   1.220  0.1125  0.0873 -0.2469
 5667TIP3    H138416   1.294   1.771   1.206  0.6389 -0.2332  2.9338
 5667TIP3    H238417   1.282   1.917   1.244 -0.5201  1.3847 -2.6691
 5668TIP3   OH238418   3.283   3.764  13.825 -0.5887  0.3530  0.3651
 5668TIP3    H138419   3.271   3.680  13.869 -0.0150  0.2868  0.4121
 5668TIP3    H238420   3.374   3.789  13.846 -0.9004  1.2129  0.7566
 5669TIP3   OH238421   5.747   4.637  11.955 -0.3987 -0.3521 -0.4555
 5669TIP3    H138422   5.790   4.710  11.999 -1.7540 -0.5252  1.2638
 5669TIP3    H238423   5.778   4.641  11.865 -1.7565  3.4431 -0.9038
 5670TIP3   OH238424   5.700   3.234   3.097 -0.2874 -0.4406 -0.1375
 5670TIP3    H138425   5.705   3.228   3.002 -0.6486  2.5054 -0.4464
 5670TIP3    H238426   5.628   3.295   3.113 -0.8547 -1.5989  2.0877
 5671TIP3   OH238427   4.190   5.406   4.969  0.1136  0.7875  0.0438
 5671TIP3    H138428   4.127   5.345   5.007 -0.1788 -0.2069 -1.8806
 5671TIP3    H238429   4.274   5.360   4.977  0.1572  0.8779  0.1002
 5672TIP3   OH238430   6.728   3.585   1.533  0.9362 -0.1524 -0.0114
 5672TIP3    H138431   6.788   3.518   1.502  0.4648 -1.0642  0.9822
 5672TIP3    H238432   6.675   3.607   1.457  2.1488  0.2718 -0.7590
 5673TIP3   OH238433   5.571   0.909  14.016 -0.2261 -0.3058 -0.1705
 5673TIP3    H138434   5.598   0.819  14.037 -1.2016 -0.5851 -0.0755
 5673TIP3    H238435   5.654   0.955  13.999  0.4824 -0.5871  2.1545
 5674TIP3   OH238436   3.277   5.645  13.517  0.1172 -0.2469  0.0839
 5674TIP3    H138437   3.306   5.567  13.565 -0.3349 -0.2383  0.3785
 5674TIP3    H238438   3.262   5.614  13.428  1.7112 -0.1006 -0.2620
 5675TIP3   OH238439   0.102   6.172  15.875 -0.0218  0.2668  0.2563
 5675TIP3    H138440   0.150   6.245  15.913  0.0804 -0.5226  1.7337
 5675TIP3    H238441   0.020   6.169  15.924  0.3855 -1.1732  0.9136
 5676TIP3   OH238442   4.143   6.053  13.058 -0.7406  0.2470  0.3396
 5676TIP3    H138443   4.058   6.011  13.071 -0.5194 -0.0990  0.6887
 5676TIP3    H238444   4.194   6.028  13.135 -0.3913  0.6274  0.2377
 5677TIP3   OH238445   5.806   2.174  11.245 -0.0283 -0.3106 -0.1029
 5677TIP3    H138446   5.869   2.241  11.271  0.9408 -1.6627  1.2092
 5677TIP3    H238447   5.720   2.213  11.263  0.5309  0.3661  1.2174
 5678TIP3   OH238448   1.154   4.045  15.947  0.1824 -0.4879 -0.2761
 5678TIP3    H138449   1.103   4.057  16.027 -0.9852  0.5929 -1.1478
 5678TIP3    H238450   1.161   3.950  15.937 -1.0820 -0.6517  0.2375
 5679TIP3   OH238451   4.784   4.834   4.659 -0.0755  0.2478 -0.0224
 5679TIP3    H138452   4.744   4.777   4.593 -1.4770  2.3362 -1.1103
 5679TIP3    H238453   4.772   4.788   4.742  0.3218 -1.7439 -1.0154
 5680TIP3   OH238454   2.476   1.920  11.798  0.1530  0.1832 -0.4039
 5680TIP3    H138455   2.401   1.954  11.751  0.7749  0.1040 -1.4898
 5680TIP3    H238456   2.442   1.898  11.885 -1.7976 -2.6220 -1.7320
 5681TIP3   OH238457   0.111   4.829   5.397  0.3208  0.3816 -0.2724
 5681TIP3    H138458   0.198   4.869   5.404  0.5146 -0.0581 -0.1908
 5681TIP3    H238459   0.068   4.879   5.328  0.7520  0.3936 -0.5371
 5682TIP3   OH238460   5.295   5.219  17.109 -0.3202  0.3312 -0.0839
 5682TIP3    H138461   5.345   5.214  17.028 -0.7185 -0.4948 -0.2839
 5682TIP3    H238462   5.203   5.215  17.081 -0.6262  3.0934  0.1601
 5683TIP3   OH238463   6.618   0.143   1.278  0.2432  0.4894 -0.2205
 5683TIP3    H138464   6.676   0.219   1.287  0.8287  0.1456 -1.0052
 5683TIP3    H238465   6.530   0.181   1.272  0.6205  1.1827 -1.7014
 5684TIP3   OH238466   0.782   4.674   4.984  0.1897 -0.1514 -0.6723
 5684TIP3    H138467   0.703   4.646   4.937  0.1995  0.2451 -0.9228
 5684TIP3    H238468   0.750   4.733   5.052  0.1948 -0.5828 -0.2849
 5685TIP3   OH238469   0.559   1.653  14.444  0.2590 -1.1832 -0.6958
 5685TIP3    H138470   0.552   1.578  14.385  0.5443 -0.9105 -1.0891
 5685TIP3    H238471   0.500   1.719  14.405 -0.4612 -1.4075 -0.0193
 5686TIP3   OH238472   2.527   4.850  16.105 -0.4037  0.4861 -0.0987
 5686TIP3    H138473   2.521   4.943  16.083  0.1415  0.7913  0.9599
 5686TIP3    H238474   2.621   4.833  16.115 -0.5053 -0.1422 -0.1312
 5687TIP3   OH238475   4.573   4.505  11.869  0.1535  0.1376 -0.0731
 5687TIP3    H138476   4.653   4.473  11.910  1.2373  0.6637 -1.6516
 5687TIP3    H238477   4.568   4.456  11.787  0.3935  2.0213 -1.2688
 5688TIP3   OH238478   2.767   2.702   2.449 -0.3438  0.4762 -0.2527
 5688TIP3    H138479   2.778   2.693   2.354 -1.4825 -3.6812 -0.1965
 5688TIP3    H238480   2.847   2.745   2.479  0.8198  0.3633 -2.9127
 5689TIP3   OH238481   3.465   0.769   2.329  0.0266 -0.0252  0.3781
 5689TIP3    H138482   3.464   0.689   2.277 -0.7097 -0.1203  0.5316
 5689TIP3    H238483   3.507   0.743   2.412 -1.8475 -0.7435  1.1646
 5690TIP3   OH238484   4.127   1.556  15.506  0.1239 -0.3134 -0.4656
 5690TIP3    H138485   4.124   1.626  15.440  1.3866 -0.2398 -0.4854
 5690TIP3    H238486   4.094   1.479  15.461 -0.1779  0.0069 -0.8036
 5691TIP3   OH238487   6.558   1.287  11.746 -0.5662  0.2834 -0.0447
 5691TIP3    H138488   6.562   1.371  11.791  0.7261 -0.2880  0.9685
 5691TIP3    H238489   6.580   1.222  11.813 -0.9885 -0.8165 -0.9386
 5692TIP3   OH238490   2.145   1.076   2.584  0.4012 -0.6913  0.5061
 5692TIP3    H138491   2.054   1.106   2.576  0.4937  0.0458  1.9625
 5692TIP3    H238492   2.160   1.070   2.678  1.6276 -1.5797  0.2737
 5693TIP3   OH238493   6.370   1.344   0.251  0.6694 -0.2329 -0.0775
 5693TIP3    H138494   6.276   1.343   0.236  0.7747  0.2347 -0.8217
 5693TIP3    H238495   6.405   1.281   0.188  1.0043  0.8497 -1.0085
 5694TIP3   OH238496   6.500   3.504   1.114 -0.5532 -0.6075 -0.6248
 5694TIP3    H138497   6.472   3.413   1.128 -1.3928 -0.0412  2.0180
 5694TIP3    H238498   6.590   3.506   1.145 -1.1376 -0.2212  1.2392
 5695TIP3   OH238499   3.646   4.506   3.520  0.0235 -0.1332  0.6119
 5695TIP3    H138500   3.602   4.536   3.440  0.4733  0.0603  0.4323
 5695TIP3    H238501   3.621   4.570   3.587  0.0579 -0.0032  0.5016
 5696TIP3   OH238502   3.655   1.487  11.076 -0.0912 -0.1996  0.5288
 5696TIP3    H138503   3.637   1.547  11.148  2.0459  0.3672  0.6825
 5696TIP3    H238504   3.706   1.416  11.117 -1.2717 -1.3502  0.0679
 5697TIP3   OH238505   2.633   3.208  13.005  0.1429 -1.1844  0.5316
 5697TIP3    H138506   2.667   3.298  13.001  0.4648 -1.3242  0.1138
 5697TIP3    H238507   2.662   3.175  13.090  1.0059 -1.2835  0.2053
 5698TIP3   OH238508   1.207   3.739   1.754  0.7657 -0.0007 -0.3034
 5698TIP3    H138509   1.122   3.775   1.730  0.5224 -1.0966 -1.2265
 5698TIP3    H238510   1.229   3.780   1.837 -1.4514 -0.9007  0.8176
 5699TIP3   OH238511   1.743   6.751  14.332  0.0638 -0.0432 -0.0347
 5699TIP3    H138512   1.650   6.730  14.327 -0.7414  3.1493 -0.4578
 5699TIP3    H238513   1.755   6.785  14.421  0.5390  0.7210 -0.3840
 5700TIP3   OH238514   4.859   3.363  11.685  0.2549  0.3955  0.5671
 5700TIP3    H138515   4.880   3.427  11.752 -0.4909 -0.3789  1.5872
 5700TIP3    H238516   4.832   3.285  11.734  0.7087 -0.5566 -0.6277
 5701TIP3   OH238517   5.941   5.951   3.853 -0.8009  0.1782 -0.6150
 5701TIP3    H138518   6.028   5.954   3.893 -0.7399 -0.8437 -0.6371
 5701TIP3    H238519   5.953   5.993   3.767  0.3619 -2.2988 -1.7918
 5702TIP3   OH238520   0.231   4.779   0.572  0.0180  0.5068  0.5409
 5702TIP3    H138521   0.211   4.779   0.478 -0.5341 -2.4163  0.5722
 5702TIP3    H238522   0.181   4.853   0.607 -0.3795  1.1922 -1.3150
 5703TIP3   OH238523   5.054   5.979   1.298  0.0208 -1.1270 -0.3663
 5703TIP3    H138524   4.984   6.039   1.324  1.5018  0.1448  0.8426
 5703TIP3    H238525   5.133   6.014   1.340  1.0232 -3.7164  0.1047
 5704TIP3   OH238526   2.377   5.722  15.302  0.3291  0.6330  0.2546
 5704TIP3    H138527   2.294   5.741  15.347  0.3669  0.0322  0.5845
 5704TIP3    H238528   2.441   5.778  15.346  0.2193  0.6318  0.4177
 5705TIP3   OH238529   2.581   6.433  14.781 -0.5940  0.2461  0.1146
 5705TIP3    H138530   2.511   6.376  14.814 -0.4904 -0.1513 -0.3345
 5705TIP3    H238531   2.553   6.521  14.803 -2.2503  0.2773 -1.8119
 5706TIP3   OH238532   1.093   0.696   3.330 -0.6090 -0.1059 -0.2677
 5706TIP3    H138533   1.042   0.695   3.411  0.7878 -2.5562  0.6822
 5706TIP3    H238534   1.138   0.611   3.328  0.1972  0.2689 -3.1264
 5707TIP3   OH238535   3.079   6.405   4.894  0.4365  0.6196  0.0918
 5707TIP3    H138536   3.172   6.427   4.891  0.2064  1.6019 -0.4561
 5707TIP3    H238537   3.040   6.474   4.947 -0.3305  1.6748 -1.7438
 5708TIP3   OH238538   6.586   4.308   4.938 -0.0196 -0.7113 -0.1177
 5708TIP3    H138539   6.623   4.285   5.023  1.2623  0.9240 -0.1819
 5708TIP3    H238540   6.580   4.403   4.939 -0.9005 -0.7234 -1.4978
 5709TIP3   OH238541   3.734   2.197  16.146 -0.0053 -0.0308 -0.8530
 5709TIP3    H138542   3.689   2.185  16.063 -3.1786 -1.3870  0.8779
 5709TIP3    H238543   3.770   2.285  16.142 -1.3125  0.4726 -3.1043
 5710TIP3   OH238544   0.397   1.160  16.110  0.7918 -0.0131 -0.4828
 5710TIP3    H138545   0.313   1.138  16.151  1.2013 -0.9235 -0.1012
 5710TIP3    H238546   0.445   1.206  16.179  2.0086 -2.7217  0.6442
 5711TIP3   OH238547   0.863   2.028   5.710 -0.2654 -0.5813 -0.3474
 5711TIP3    H138548   0.834   1.944   5.747 -1.6336  0.4142  0.9780
 5711TIP3    H238549   0.955   2.035   5.736 -0.7341 -0.7014  1.4695
 5712TIP3   OH238550   2.444   1.032  11.783 -0.4935 -0.0837 -0.2612
 5712TIP3    H138551   2.451   0.966  11.714 -0.3620  0.8784 -1.2079
 5712TIP3    H238552   2.470   0.987  11.863  0.2208 -1.0136 -0.9943
 5713TIP3   OH238553   6.455   1.603   3.994  0.3134  0.4032 -0.4536
 5713TIP3    H138554   6.368   1.567   3.982  0.0616  0.9393 -0.2515
 5713TIP3    H238555   6.500   1.586   3.912  0.3712 -0.8355 -0.1884
 5714TIP3   OH238556   0.079   5.575  11.161 -0.2273  0.0705  0.2202
 5714TIP3    H138557   0.011   5.641  11.148 -1.0677 -0.7360  0.4172
 5714TIP3    H238558   0.082   5.563  11.256 -1.0568 -1.1604  0.1043
 5715TIP3   OH238559   5.673   5.107  13.740 -0.5021 -0.1600 -0.0325
 5715TIP3    H138560   5.663   5.189  13.788 -0.2496 -0.0706 -0.1343
 5715TIP3    H238561   5.583   5.080  13.720 -0.5445  1.0298 -1.6135
 5716TIP3   OH238562   1.041   0.772  15.015  0.4678 -0.1670 -0.0297
 5716TIP3    H138563   1.023   0.719  15.093  1.0747 -1.0583 -0.4790
 5716TIP3    H238564   1.035   0.863  15.046 -2.3488 -0.3965  0.3641
 5717TIP3   OH238565   3.926   2.000  13.786 -0.2102 -0.0203 -0.0692
 5717TIP3    H138566   3.977   2.037  13.714  1.9043 -1.1866  0.7385
 5717TIP3    H238567   3.928   2.066  13.854  0.1926 -0.0416 -0.0592
 5718TIP3   OH238568   4.625   3.960  11.287  0.3278 -0.3509 -0.4741
 5718TIP3    H138569   4.685   4.017  11.335 -0.1935 -0.3767  0.2119
 5718TIP3    H238570   4.630   3.992  11.197  0.2833  0.5700 -0.1613
 5719TIP3   OH238571   3.475   2.548  13.290 -0.1338 -0.0733 -0.2339
 5719TIP3    H138572   3.483   2.493  13.212  0.2903  1.6712 -1.4607
 5719TIP3    H238573   3.555   2.532  13.339  0.0949 -0.3772 -0.6982
 5720TIP3   OH238574   6.652   6.299   0.182 -0.6019  0.4311  0.1179
 5720TIP3    H138575   6.613   6.212   0.186 -1.7420  0.9758  2.3250
 5720TIP3    H238576   6.702   6.299   0.100 -0.8634 -2.1427 -0.1224
 5721TIP3   OH238577   2.048   0.206   3.029 -0.0513  0.2042  0.5984
 5721TIP3    H138578   2.136   0.173   3.049  0.2265  0.2288 -0.5071
 5721TIP3    H238579   2.014   0.237   3.113  0.5792 -0.7761  1.2407
 5722TIP3   OH238580   5.521   2.240  14.334 -0.0382 -0.3234 -0.1743
 5722TIP3    H138581   5.608   2.280  14.340 -1.4511  2.9343  0.6591
 5722TIP3    H238582   5.465   2.309  14.299 -2.3320 -2.3416 -0.7730
 5723TIP3   OH238583   1.145   2.648   0.957 -0.2997 -0.3001 -0.2731
 5723TIP3    H138584   1.089   2.649   1.035 -0.1996 -0.9187 -0.1893
 5723TIP3    H238585   1.122   2.567   0.912  1.1828 -1.0349  0.2402
 5724TIP3   OH238586   6.671   3.948   4.825  0.0071  0.2992  0.1037
 5724TIP3    H138587   6.621   3.974   4.747  0.4126 -0.0813 -0.2859
 5724TIP3    H238588   6.670   3.852   4.823 -2.1566  0.1879  1.9611
 5725TIP3   OH238589   0.953   0.748   1.590  0.1945  0.7244  0.1527
 5725TIP3    H138590   0.869   0.764   1.548  0.8397  0.4438 -1.2900
 5725TIP3    H238591   0.955   0.653   1.605  0.9394  0.4646 -1.3986
 5726TIP3   OH238592   2.378   0.354  16.224  0.6980  0.3177  0.3610
 5726TIP3    H138593   2.370   0.273  16.174 -1.2028 -0.6471  2.0743
 5726TIP3    H238594   2.422   0.415  16.165  2.6026 -2.0610 -0.8266
 5727TIP3   OH238595   1.129   2.441   4.468 -0.8036 -0.3648 -0.3041
 5727TIP3    H138596   1.044   2.484   4.480 -0.4505  0.8634 -1.8666
 5727TIP3    H238597   1.107   2.350   4.447 -1.9273  0.4663 -3.1769
 5728TIP3   OH238598   0.895   5.899  12.467 -0.2275 -0.5388  0.0958
 5728TIP3    H138599   0.856   5.984  12.487 -0.6448 -0.3515 -1.4027
 5728TIP3    H238600   0.834   5.858  12.405  0.3581 -1.5962  0.1933
 5729TIP3   OH238601   2.807   0.412   2.303  0.0130  0.4711  0.1215
 5729TIP3    H138602   2.787   0.331   2.256 -1.3956  1.0061 -0.2457
 5729TIP3    H238603   2.885   0.446   2.259 -1.0661  0.7789 -1.6694
 5730TIP3   OH238604   4.650   1.243   0.461  0.5170  0.2772  0.7545
 5730TIP3    H138605   4.598   1.293   0.524 -0.6446 -0.0239  0.0651
 5730TIP3    H238606   4.604   1.254   0.378  0.6473 -1.3236  0.4460
 5731TIP3   OH238607   4.236   4.290  13.564 -0.0642  0.5701  0.3085
 5731TIP3    H138608   4.295   4.227  13.605 -0.5978  0.6986  1.3222
 5731TIP3    H238609   4.222   4.357  13.632 -0.6177  1.0329 -0.2465
 5732TIP3   OH238610   3.009   2.482  16.730  0.0811  0.2551  0.5334
 5732TIP3    H138611   3.065   2.546  16.774  0.6024 -0.2582  0.6325
 5732TIP3    H238612   3.034   2.398  16.769 -1.1324  0.0721  0.9716
 5733TIP3   OH238613   2.670   6.105   0.513  0.1895 -0.4622  0.5404
 5733TIP3    H138614   2.590   6.079   0.558  0.5286  0.2378  1.5887
 5733TIP3    H238615   2.708   6.023   0.481 -1.2773 -0.7446 -0.5842
 5734TIP3   OH238616   0.906   5.036  12.459 -0.7590  0.6743 -0.4528
 5734TIP3    H138617   0.972   5.104  12.475  1.4078 -1.4079 -0.0006
 5734TIP3    H238618   0.897   5.035  12.363  0.2757  0.6469 -0.5665
 5735TIP3   OH238619   4.102   5.326  13.018  0.4662 -0.6287  0.0511
 5735TIP3    H138620   4.048   5.334  13.097  0.8804 -1.0263  0.3762
 5735TIP3    H238621   4.164   5.398  13.024  0.5993 -0.7539  0.1654
 5736TIP3   OH238622   5.483   1.772  12.999  0.2135  0.8443  0.3668
 5736TIP3    H138623   5.463   1.754  12.907  0.9834  0.1679  0.3184
 5736TIP3    H238624   5.397   1.785  13.040 -0.3538 -1.4157  0.0546
 5737TIP3   OH238625   5.299   2.137   5.627 -0.0909  0.1600  0.3412
 5737TIP3    H138626   5.346   2.220   5.638 -2.7324  1.9819 -0.9291
 5737TIP3    H238627   5.271   2.113   5.715 -2.4434  2.7275  0.4213
 5738TIP3   OH238628   5.749   5.646   4.921  0.5175  0.0578 -0.0322
 5738TIP3    H138629   5.696   5.641   5.000  0.8574  1.5406  0.3211
 5738TIP3    H238630   5.749   5.739   4.898  1.1947 -0.2197 -1.2482
 5739TIP3   OH238631   5.242   6.683  13.653  0.3564 -0.2493  0.7053
 5739TIP3    H138632   5.220   6.665  13.745  2.0241  0.9763  1.3858
 5739TIP3    H238633   5.170   6.644  13.604 -0.9840 -0.2646  2.5673
 5740TIP3   OH238634   6.437   1.405  12.734 -0.1521  0.3223  0.7165
 5740TIP3    H138635   6.458   1.387  12.825  0.8444  0.6021  0.5593
 5740TIP3    H238636   6.484   1.487  12.715 -0.6172  0.4409  0.0484
 5741TIP3   OH238637   5.087   1.582   1.329 -0.4738  0.2304 -0.2920
 5741TIP3    H138638   5.078   1.566   1.235 -0.7372  0.7226 -0.3568
 5741TIP3    H238639   5.055   1.502   1.371  0.4921 -0.3479 -0.6285
 5742TIP3   OH238640   0.834   3.642   4.251 -0.2134 -0.6463 -0.2641
 5742TIP3    H138641   0.754   3.692   4.267  0.1539 -0.5268  1.3388
 5742TIP3    H238642   0.872   3.682   4.174 -2.5252 -1.7786 -2.1517
 5743TIP3   OH238643   2.077   4.332  13.189  0.2498  0.3680 -0.3138
 5743TIP3    H138644   1.983   4.316  13.200  0.3772 -0.4788 -0.3670
 5743TIP3    H238645   2.089   4.424  13.211 -0.4157  0.1916  0.9000
 5744TIP3   OH238646   6.013   1.060   4.470 -0.1305  0.5860 -0.2982
 5744TIP3    H138647   5.964   1.142   4.463  0.7029  0.9730 -2.3742
 5744TIP3    H238648   5.991   1.012   4.390 -1.0489 -1.5242  1.1405
 5745TIP3   OH238649   6.179   0.660   6.464 -0.0644  0.1620 -0.2512
 5745TIP3    H138650   6.127   0.594   6.511 -0.6654  0.5901 -0.3067
 5745TIP3    H238651   6.261   0.615   6.444  0.0031 -0.1989  0.7557
 5746TIP3   OH238652   1.099   3.704  12.652  0.0943 -0.7205 -0.1775
 5746TIP3    H138653   1.008   3.680  12.633 -0.1901 -1.0910  1.4934
 5746TIP3    H238654   1.133   3.630  12.703  0.7602  0.1993  0.7571
 5747TIP3   OH238655   0.953   6.114   0.556  0.6656 -0.0544 -0.1672
 5747TIP3    H138656   0.870   6.128   0.509 -0.5440  0.3087  1.9697
 5747TIP3    H238657   1.002   6.195   0.542  0.1189  0.2413 -0.4137
 5748TIP3   OH238658   4.855   0.187   2.277 -0.8511 -0.0514 -0.2267
 5748TIP3    H138659   4.846   0.184   2.181 -1.8287 -0.9953 -0.1253
 5748TIP3    H238660   4.838   0.278   2.300  1.8852  0.7913 -1.1363
 5749TIP3   OH238661   2.364   6.196   6.473 -0.4933 -0.7789  0.1925
 5749TIP3    H138662   2.379   6.188   6.379  0.1389 -0.6827  0.2794
 5749TIP3    H238663   2.271   6.178   6.484 -1.6806  3.3466 -1.0002
 5750TIP3   OH238664   4.191   2.668  15.176 -0.1242 -0.6274  0.1943
 5750TIP3    H138665   4.274   2.646  15.219 -0.1675 -0.2283  0.4878
 5750TIP3    H238666   4.217   2.720  15.099 -0.1415  0.3407  0.8213
 5751TIP3   OH238667   2.047   0.785   5.064 -0.5718  0.2489  0.2333
 5751TIP3    H138668   2.072   0.823   5.148 -0.4664  0.6724  0.0085
 5751TIP3    H238669   1.956   0.812   5.052 -0.9375 -0.7162  0.7215
 5752TIP3   OH238670   6.357   1.071   5.258  0.7216  0.3505  1.0076
 5752TIP3    H138671   6.414   1.126   5.204  0.0487  2.6744  2.5237
 5752TIP3    H238672   6.268   1.098   5.234  0.2301 -1.8675  0.0637
 5753TIP3   OH238673   3.087   2.303   6.241  0.0533  0.3692 -0.3558
 5753TIP3    H138674   3.078   2.255   6.323 -0.7113 -1.9364 -1.6910
 5753TIP3    H238675   3.007   2.355   6.235  0.0936  0.5223  0.3238
 5754TIP3   OH238676   2.921   1.616   4.625  0.2811 -0.4344 -0.6789
 5754TIP3    H138677   2.939   1.565   4.546 -0.0857  0.4376 -1.3401
 5754TIP3    H238678   2.924   1.707   4.597 -1.0536 -0.1377  0.0444
 5755TIP3   OH238679   5.593   3.503   2.339 -0.3457 -0.2718  0.5164
 5755TIP3    H138680   5.649   3.580   2.330  0.0312 -0.6383 -0.5114
 5755TIP3    H238681   5.654   3.431   2.355 -0.7769 -0.2067  2.6855
 5756TIP3   OH238682   3.649   4.449  15.453 -0.2141  0.1668  0.3003
 5756TIP3    H138683   3.563   4.409  15.441 -0.6188  0.7763  1.0831
 5756TIP3    H238684   3.644   4.493  15.538  1.6408 -1.7495  1.5107
 5757TIP3   OH238685   3.896   0.893   2.783  0.0655  0.0598 -0.2147
 5757TIP3    H138686   3.805   0.924   2.788  0.5220  1.5000 -0.4272
 5757TIP3    H238687   3.896   0.813   2.835 -0.7658  1.4705  2.1242
 5758TIP3   OH238688   1.387   5.378  16.116  0.9206 -0.1722 -0.6863
 5758TIP3    H138689   1.444   5.437  16.067  1.0615 -1.5688 -2.2905
 5758TIP3    H238690   1.311   5.365  16.060  0.4320 -0.7229  0.0832
 5759TIP3   OH238691   1.907   2.713  11.211 -0.2348  0.1209  0.0789
 5759TIP3    H138692   1.891   2.767  11.133 -0.3638  0.4833  0.3552
 5759TIP3    H238693   1.923   2.777  11.281 -1.3795 -0.1690  0.6313
 5760TIP3   OH238694   6.204   0.033  11.627  0.2916  0.6414 -0.1072
 5760TIP3    H138695   6.136   0.042  11.693  0.5546 -0.5321  0.3610
 5760TIP3    H238696   6.158   0.006  11.548  0.1127  0.7884 -0.0536
 5761TIP3   OH238697   0.472   6.045  15.303 -0.2656  0.1378  0.3488
 5761TIP3    H138698   0.506   6.084  15.383  1.7909  1.2458 -0.9814
 5761TIP3    H238699   0.532   5.974  15.283 -0.7596 -0.1305 -0.2150
 5762TIP3   OH238700   0.143   0.726  12.488 -0.2130 -0.1912  0.2885
 5762TIP3    H138701   0.110   0.811  12.461  0.6895  1.0910  2.9528
 5762TIP3    H238702   0.067   0.667  12.480 -0.6663  0.6215 -2.2545
 5763TIP3   OH238703   2.246   3.853  16.211 -0.1624 -0.0628 -0.0100
 5763TIP3    H138704   2.235   3.801  16.132  0.5766  0.6806 -0.6234
 5763TIP3    H238705   2.181   3.923  16.204  0.8600  0.8550 -0.7060
 5764TIP3   OH238706   6.743   3.880  15.584 -0.7182 -0.1317  0.0799
 5764TIP3    H138707   6.817   3.873  15.524  1.0155  1.8862  1.8216
 5764TIP3    H238708   6.672   3.916  15.531  0.3404  0.3439 -1.0627
 5765TIP3   OH238709   3.034   5.231  14.700  0.0104  0.5175 -0.0270
 5765TIP3    H138710   3.107   5.245  14.761  0.5427  0.3571 -0.6095
 5765TIP3    H238711   3.051   5.292  14.628 -0.5766  0.6609 -0.0513
 5766TIP3   OH238712   3.318   5.591  12.565 -0.1963  0.1359  0.4514
 5766TIP3    H138713   3.311   5.662  12.501  0.0826  0.1701  0.4558
 5766TIP3    H238714   3.300   5.633  12.649 -3.3646 -0.4324  0.1632
 5767TIP3   OH238715   0.689   6.553   5.421  0.2333 -0.2408 -0.0113
 5767TIP3    H138716   0.741   6.473   5.408  0.6397  0.3170 -2.3697
 5767TIP3    H238717   0.602   6.530   5.389  0.5425  0.4088 -1.4225
 5768TIP3   OH238718   0.107   4.701  12.078  0.0173 -0.1124  0.0851
 5768TIP3    H138719   0.088   4.607  12.069  2.4965 -0.6814 -0.0023
 5768TIP3    H238720   0.026   4.739  12.111 -1.6842 -1.9631 -1.6624
 5769TIP3   OH238721   2.694   4.562  10.834 -0.2052 -0.2013 -0.4454
 5769TIP3    H138722   2.662   4.508  10.906 -0.8365  0.5478 -0.1449
 5769TIP3    H238723   2.616   4.580  10.781  0.0976 -0.0465 -0.8436
 5770TIP3   OH238724   4.095   5.373   2.042 -1.3096  0.3591  0.5612
 5770TIP3    H138725   4.156   5.445   2.029 -1.5150  0.6070  0.9597
 5770TIP3    H238726   4.107   5.348   2.134 -2.9521  1.4793  1.1145
 5771TIP3   OH238727   3.020   0.262  11.299 -0.4498 -0.1111 -0.3698
 5771TIP3    H138728   3.006   0.346  11.342  1.0358 -0.4836  0.9332
 5771TIP3    H238729   2.938   0.215  11.311 -0.7334  0.5373  0.3223
 5772TIP3   OH238730   0.129   6.320   5.767  0.3711  0.0519 -0.3047
 5772TIP3    H138731   0.188   6.333   5.841  1.8341  1.0425 -1.5934
 5772TIP3    H238732   0.129   6.225   5.753 -0.0498 -0.1629  1.0320
 5773TIP3   OH238733   1.175   2.687   2.883  0.4227  0.4087  0.5127
 5773TIP3    H138734   1.082   2.693   2.859  0.7656 -0.2057 -1.1051
 5773TIP3    H238735   1.219   2.659   2.803  2.1655  1.7142  0.9291
 5774TIP3   OH238736   1.038   3.969  15.296 -0.5896 -0.1240  0.2606
 5774TIP3    H138737   0.959   4.023  15.293 -1.6085 -1.5750  0.3339
 5774TIP3    H238738   1.081   3.993  15.378 -1.2003  0.3259  0.4493
 5775TIP3   OH238739   6.082   5.383   0.354  0.2333  0.1132  0.4324
 5775TIP3    H138740   6.068   5.372   0.448  0.0907 -0.1749  0.3774
 5775TIP3    H238741   6.133   5.306   0.328  0.6050  0.3852  0.3444
 5776TIP3   OH238742   4.983   2.332  13.046  0.0434  0.0733  0.2223
 5776TIP3    H138743   4.968   2.401  13.110  1.0491 -0.3847  0.9837
 5776TIP3    H238744   5.070   2.351  13.010  3.1014 -3.6608  4.4323
 5777TIP3   OH238745   0.166   6.729   5.732  0.4797  0.2953 -0.5666
 5777TIP3    H138746   0.216   6.801   5.695  1.7631 -1.0819 -1.6648
 5777TIP3    H238747   0.147   6.755   5.821 -0.2258  2.5227 -1.3141
 5778TIP3   OH238748   0.525   0.218  16.864  0.1477 -0.1106 -0.1256
 5778TIP3    H138749   0.572   0.162  16.802  1.8192  1.0979 -0.0176
 5778TIP3    H238750   0.437   0.183  16.866  0.9860 -2.3747 -0.4900
 5779TIP3   OH238751   0.975   1.596  12.483 -0.7435 -0.0623 -0.1298
 5779TIP3    H138752   0.927   1.678  12.471  1.8630  1.3150 -2.6017
 5779TIP3    H238753   1.012   1.577  12.397  2.0718 -1.6073  1.2555
 5780TIP3   OH238754   3.830   5.904  15.836  0.0334 -0.3937 -0.7176
 5780TIP3    H138755   3.770   5.970  15.801 -0.5155 -1.2427 -1.3898
 5780TIP3    H238756   3.828   5.918  15.931  1.0258  1.4962 -0.9289
 5781TIP3   OH238757   5.623   1.224  12.292 -0.0391 -0.1174 -0.5079
 5781TIP3    H138758   5.598   1.200  12.203  0.3447 -0.8471 -0.4239
 5781TIP3    H238759   5.541   1.223  12.341 -0.2745  0.4365 -0.8782
 5782TIP3   OH238760   1.438   4.016  12.826 -0.3598 -0.2409 -0.0559
 5782TIP3    H138761   1.396   4.099  12.804  2.4111  0.8860 -1.5883
 5782TIP3    H238762   1.407   3.955  12.759  0.8975  0.7736 -1.6345
 5783TIP3   OH238763   0.205   2.452  12.045  0.1343 -0.4108  0.3230
 5783TIP3    H138764   0.113   2.427  12.029 -0.4814  0.4760  2.1801
 5783TIP3    H238765   0.223   2.520  11.980 -0.2384 -1.1652 -0.5987
 5784TIP3   OH238766   1.510   5.702   4.472  0.6411 -0.4474 -0.6386
 5784TIP3    H138767   1.603   5.681   4.469  0.9129  0.4846  0.3832
 5784TIP3    H238768   1.503   5.785   4.426  0.6530  0.4478  0.8971
 5785TIP3   OH238769   1.081   0.351   3.576 -0.0695 -1.0402  0.0660
 5785TIP3    H138770   1.134   0.414   3.625 -0.7548 -0.6254  0.3004
 5785TIP3    H238771   1.055   0.286   3.641 -0.5278 -0.7883  0.1381
 5786TIP3   OH238772   4.358   3.686   0.075  0.1040  0.2226 -0.5265
 5786TIP3    H138773   4.318   3.697   0.162 -1.0009 -1.0338 -0.8394
 5786TIP3    H238774   4.314   3.752   0.021  0.6600  0.8808 -0.1991
 5787TIP3   OH238775   1.510   5.667  11.681 -0.5786  0.0366 -0.1075
 5787TIP3    H138776   1.578   5.715  11.729  1.1394 -1.0200 -1.3720
 5787TIP3    H238777   1.492   5.722  11.605  1.5092 -1.2171 -1.6446
 5788TIP3   OH238778   2.403   1.140   4.226 -0.2144 -0.0930 -0.2161
 5788TIP3    H138779   2.372   1.165   4.139  0.3127 -2.9535 -1.3364
 5788TIP3    H238780   2.330   1.091   4.265  0.1283 -0.2191  0.2826
 5789TIP3   OH238781   2.848   2.941   3.235  0.3343 -0.1070  0.1163
 5789TIP3    H138782   2.815   3.018   3.190 -0.4454 -0.3390  0.2697
 5789TIP3    H238783   2.871   2.972   3.323  1.3878  0.2398 -0.2654
 5790TIP3   OH238784   5.509   5.792   1.996  0.4103 -0.5985  0.1191
 5790TIP3    H138785   5.434   5.751   1.954 -1.2343  0.7133  1.5926
 5790TIP3    H238786   5.547   5.723   2.050  0.5743 -1.3920 -0.9721
 5791TIP3   OH238787   5.848   2.783  15.386 -0.3203 -0.7335  0.6001
 5791TIP3    H138788   5.859   2.875  15.362 -0.0675 -1.3004 -1.6207
 5791TIP3    H238789   5.895   2.774  15.469 -0.8722  1.2510  1.1774
 5792TIP3   OH238790   2.099   0.750  12.740  0.4936 -0.2942 -0.0442
 5792TIP3    H138791   2.061   0.699  12.811  3.7340 -1.5229  0.9318
 5792TIP3    H238792   2.033   0.746  12.670 -1.4517 -1.6332  1.7582
 5793TIP3   OH238793   3.617   5.442  13.785  0.0109 -0.6319  0.3673
 5793TIP3    H138794   3.690   5.434  13.723 -1.0849  0.0418 -1.0638
 5793TIP3    H238795   3.651   5.405  13.867  1.9220 -0.4010 -0.2780
 5794TIP3   OH238796   2.189   3.578  14.233 -0.6711 -0.3243 -0.4566
 5794TIP3    H138797   2.144   3.494  14.231 -0.6114 -0.3479 -0.8250
 5794TIP3    H238798   2.242   3.574  14.313  1.7042 -1.9008 -1.9519
 5795TIP3   OH238799   0.007   3.268   1.693  0.2827  0.1323 -0.2324
 5795TIP3    H138800   0.065   3.239   1.623  0.1545  0.4842 -0.4905
 5795TIP3    H238801  -0.060   3.201   1.698  0.8433 -0.4015  0.2342
 5796TIP3   OH238802   2.691   6.587  15.593 -0.2870 -0.2581 -0.0782
 5796TIP3    H138803   2.656   6.509  15.548  1.2944 -1.2391  0.2965
 5796TIP3    H238804   2.652   6.583  15.681  0.6060 -1.2692  0.2987
 5797TIP3   OH238805   4.509   1.988   6.405  0.6532 -0.1658  0.1595
 5797TIP3    H138806   4.605   1.994   6.406  0.5815  1.6876 -0.2339
 5797TIP3    H238807   4.490   1.942   6.323  1.1996 -0.3523  0.1274
 5798TIP3   OH238808   4.314   4.655   1.195  0.2644  0.1948 -0.0386
 5798TIP3    H138809   4.247   4.627   1.257 -0.4853  0.1490 -0.8452
 5798TIP3    H238810   4.266   4.671   1.114  1.0313  1.5151 -0.2630
 5799TIP3   OH238811   3.913   4.915   2.266  0.0774  0.6879  0.0172
 5799TIP3    H138812   3.931   4.823   2.285 -0.5754  0.0747 -2.0742
 5799TIP3    H238813   3.867   4.947   2.343 -2.4526 -1.6094 -0.4012
 5800TIP3   OH238814   1.480   3.402  12.692 -0.2153 -0.8047 -1.0946
 5800TIP3    H138815   1.538   3.367  12.759 -2.0629 -1.9612 -0.0235
 5800TIP3    H238816   1.493   3.497  12.697 -0.3439 -0.8527  0.9666
 5801TIP3   OH238817   2.087   0.538  16.924  0.4549  0.0104 -0.1381
 5801TIP3    H138818   2.150   0.596  16.881  1.3543 -1.0988 -0.3538
 5801TIP3    H238819   2.042   0.494  16.853  0.4242 -0.2422  0.0387
 5802TIP3   OH238820   0.577   0.277  11.069 -0.0523 -0.1744 -0.0533
 5802TIP3    H138821   0.571   0.356  11.124 -1.4239  0.8185 -1.5569
 5802TIP3    H238822   0.486   0.258  11.045  0.5147 -0.3262 -2.2776
 5803TIP3   OH238823   0.900   0.811  12.321  0.3287  0.5265  0.0198
 5803TIP3    H138824   0.926   0.830  12.411 -2.5682 -0.7017  1.2502
 5803TIP3    H238825   0.919   0.718  12.309 -0.3266  0.4151 -0.2201
 5804TIP3   OH238826   5.138   3.361  16.556  0.5660 -0.1243 -0.0162
 5804TIP3    H138827   5.193   3.286  16.578 -0.1043 -0.7779 -0.5245
 5804TIP3    H238828   5.049   3.333  16.577  0.3514  0.7067  0.2411
 5805TIP3   OH238829   1.323   5.430   2.408  0.4415  0.4901 -0.5100
 5805TIP3    H138830   1.363   5.420   2.322  1.3804  0.9775 -0.1421
 5805TIP3    H238831   1.288   5.344   2.429  1.6257 -0.0513 -0.6927
 5806TIP3   OH238832   6.206   5.840  14.297  0.1433  0.3097  0.1212
 5806TIP3    H138833   6.122   5.875  14.326 -0.5661 -0.4839 -0.8922
 5806TIP3    H238834   6.192   5.746  14.288  0.9840  0.2249 -0.5505
 5807TIP3   OH238835   2.959   5.553  15.698 -0.8855  0.2931  0.0519
 5807TIP3    H138836   3.027   5.500  15.738 -0.3043  0.4838 -0.6792
 5807TIP3    H238837   3.006   5.623  15.653 -1.6157  1.2484  0.7073
 5808TIP3   OH238838   1.568   0.687  13.068 -0.1506 -0.6287 -0.0522
 5808TIP3    H138839   1.617   0.662  12.989 -1.0806  0.8411 -1.1457
 5808TIP3    H238840   1.512   0.759  13.040 -1.0561 -0.5499  1.7963
 5809TIP3   OH238841   1.793   4.245   5.957 -0.0624 -0.4742  0.4409
 5809TIP3    H138842   1.702   4.241   5.984  0.3176 -2.0123  1.6411
 5809TIP3    H238843   1.817   4.337   5.968 -1.0504 -0.3277  1.5807
 5810TIP3   OH238844   2.704   0.725  16.993 -0.1399 -0.0592  0.0293
 5810TIP3    H138845   2.784   0.672  16.998 -0.9942 -1.3625  0.5787
 5810TIP3    H238846   2.638   0.671  17.037 -1.7187  0.2464 -1.8455
 5811TIP3   OH238847   0.124   3.806  16.597 -0.2115  0.0190 -0.0731
 5811TIP3    H138848   0.105   3.751  16.521  0.2235 -0.6204  0.2767
 5811TIP3    H238849   0.198   3.860  16.569  1.7768 -2.0975  0.7483
 5812TIP3   OH238850   2.321   2.467   6.429 -0.1575  0.0803 -0.3089
 5812TIP3    H138851   2.353   2.377   6.422 -0.6749 -0.0706 -0.8352
 5812TIP3    H238852   2.401   2.520   6.436  0.1347 -0.4522  0.4975
 5813TIP3   OH238853   1.429   2.880   4.642  0.1285 -0.0225 -0.0634
 5813TIP3    H138854   1.434   2.961   4.591  0.1042  0.3369  0.4911
 5813TIP3    H238855   1.336   2.857   4.641 -0.1996  1.1000  1.4967
 5814TIP3   OH238856   2.515   4.910   3.264  0.0365  0.0211  0.3587
 5814TIP3    H138857   2.531   4.926   3.170 -0.2123 -0.8737  0.1600
 5814TIP3    H238858   2.526   4.816   3.275 -1.8232 -0.1835  0.8414
 5815TIP3   OH238859   5.968   6.436   4.711 -0.0761  0.0302  0.5529
 5815TIP3    H138860   5.948   6.386   4.632 -0.1801  2.4280 -1.0648
 5815TIP3    H238861   5.915   6.516   4.702 -0.0977  0.3771  3.0817
 5816TIP3   OH238862   3.826   3.467  12.380  0.4647 -0.0159 -0.0980
 5816TIP3    H138863   3.869   3.416  12.448  1.6764 -1.0629 -1.5721
 5816TIP3    H238864   3.783   3.401  12.324  0.4189  0.7068 -0.9393
 5817TIP3   OH238865   2.393   4.859   3.807 -0.1204 -0.1964  0.1200
 5817TIP3    H138866   2.456   4.899   3.748  2.5164 -2.2733  1.3065
 5817TIP3    H238867   2.345   4.796   3.753  0.1164  0.0948 -0.4279
 5818TIP3   OH238868   1.235   6.325   0.007 -0.2799  0.0145 -0.2863
 5818TIP3    H138869   1.323   6.360   0.017  0.4898 -1.7049 -0.6437
 5818TIP3    H238870   1.226   6.261   0.077 -1.8356  1.1988  0.6691
 5819TIP3   OH238871   1.194   0.154  16.351  0.5971 -0.1076  0.6359
 5819TIP3    H138872   1.214   0.113  16.267  0.6198 -0.2298  0.7006
 5819TIP3    H238873   1.180   0.081  16.411  1.9085 -0.0387  1.0632
 5820TIP3   OH238874   0.354   1.299   4.290  0.4217  0.2063 -0.6042
 5820TIP3    H138875   0.351   1.234   4.219 -2.0858  0.3077 -0.6659
 5820TIP3    H238876   0.372   1.382   4.245 -3.2152  0.6432 -1.5655
 5821TIP3   OH238877   0.035   2.133   2.902 -0.5502  0.0200  0.3206
 5821TIP3    H138878   0.102   2.196   2.877  1.3375 -0.8824  2.6685
 5821TIP3    H238879   0.042   2.128   2.998 -1.6625 -2.6317  0.3367
 5822TIP3   OH238880   5.545   6.521   6.371 -0.2988  0.0002 -0.2112
 5822TIP3    H138881   5.518   6.430   6.381 -0.6308  0.0239 -0.8988
 5822TIP3    H238882   5.629   6.525   6.417  0.6405 -1.1037 -1.7224
 5823TIP3   OH238883   6.156   1.121  11.395 -0.2291 -0.0936  0.3088
 5823TIP3    H138884   6.198   1.201  11.425 -0.7905  0.4586 -0.3683
 5823TIP3    H238885   6.220   1.052  11.412  0.7125  0.6538 -0.1738
 5824TIP3   OH238886   2.819   6.487   0.314  0.2734  0.3842 -0.7533
 5824TIP3    H138887   2.901   6.470   0.361 -0.1211  1.2648  0.3052
 5824TIP3    H238888   2.752   6.485   0.382 -0.5430  0.0309 -1.5578
 5825TIP3   OH238889   2.751   1.362   3.148  0.0412  0.1281 -0.6261
 5825TIP3    H138890   2.660   1.336   3.130  0.3947 -0.8876 -1.0479
 5825TIP3    H238891   2.803   1.286   3.121  0.9777  0.4621  0.1751
 5826TIP3   OH238892   1.651   2.299   0.512 -0.3987  0.5348 -0.2045
 5826TIP3    H138893   1.647   2.379   0.460 -1.0742 -0.4687 -1.7435
 5826TIP3    H238894   1.565   2.259   0.502  0.5050 -1.3351 -1.0376
 5827TIP3   OH238895   0.229   6.792   3.352 -0.0976  0.0795 -0.8911
 5827TIP3    H138896   0.181   6.759   3.276 -1.9497 -0.2820  0.3667
 5827TIP3    H238897   0.253   6.881   3.327 -0.2547 -0.1776 -2.0665
 5828TIP3   OH238898   6.620   0.009   1.835 -0.3333 -0.0043  0.3827
 5828TIP3    H138899   6.558  -0.063   1.841  0.1047 -0.3970  0.2355
 5828TIP3    H238900   6.688  -0.022   1.775 -1.9022  1.7978 -2.5361
 5829TIP3   OH238901   0.166   1.115   3.813 -0.2222 -0.4076 -0.2931
 5829TIP3    H138902   0.169   1.111   3.717  0.6133  0.7679 -0.3440
 5829TIP3    H238903   0.075   1.096   3.835 -0.2618 -1.4319 -1.2645
 5830TIP3   OH238904   5.173   4.617  14.016  0.1443 -0.0282 -0.0348
 5830TIP3    H138905   5.259   4.589  14.046 -0.0815  1.3337  2.0355
 5830TIP3    H238906   5.149   4.689  14.074 -1.4118  1.1689 -2.0113
 5831TIP3   OH238907   0.921   2.256  11.327  1.2593 -0.1218  0.4162
 5831TIP3    H138908   0.929   2.175  11.378 -0.1290 -0.2853  0.4102
 5831TIP3    H238909   0.953   2.325  11.386  1.1411 -0.5016  0.9320
 5832TIP3   OH238910   4.001   2.633   4.141 -0.1067 -0.5145  0.2573
 5832TIP3    H138911   3.933   2.574   4.172 -0.6937  0.8380  1.7444
 5832TIP3    H238912   3.965   2.672   4.062  0.7910 -2.9447 -1.4615
 5833TIP3   OH238913   1.346   1.601   4.577 -0.6265  0.1069  0.8038
 5833TIP3    H138914   1.379   1.591   4.666 -0.6348 -0.7935  0.7121
 5833TIP3    H238915   1.419   1.638   4.528  0.2553 -1.8112  0.6140
 5834TIP3   OH238916   0.915   5.908   5.965  0.5057  0.2584 -0.4990
 5834TIP3    H138917   0.871   5.975   5.913 -2.5661 -1.8676 -0.9171
 5834TIP3    H238918   0.911   5.941   6.055 -3.2777 -0.2968 -0.3101
 5835TIP3   OH238919   6.711   2.195  16.307  0.5259  0.2845  0.3343
 5835TIP3    H138920   6.771   2.159  16.242  1.5221  1.1289  0.7764
 5835TIP3    H238921   6.766   2.245  16.367 -0.5892  0.8881  0.8859
 5836TIP3   OH238922   3.927   6.044  11.476  0.4961 -0.4150 -0.2995
 5836TIP3    H138923   3.891   6.117  11.426 -0.0501 -0.8783 -0.6021
 5836TIP3    H238924   3.924   5.970  11.416  0.1720 -0.8939  0.2927
 5837TIP3   OH238925   4.963   6.072   3.136  0.1864 -0.0158  0.2904
 5837TIP3    H138926   4.963   6.122   3.054 -3.6692  1.7216  1.1603
 5837TIP3    H238927   4.996   6.134   3.201  1.0594 -0.6453  0.4614
 5838TIP3   OH238928   6.090   1.666  17.052  0.3819  0.3597  0.4935
 5838TIP3    H138929   6.132   1.622  16.978 -1.7271  0.9849 -1.1862
 5838TIP3    H238930   6.099   1.759  17.033 -0.1089  0.5318  1.0518
 5839TIP3   OH238931   5.359   3.070  13.254  0.0719 -0.1721 -0.4439
 5839TIP3    H138932   5.326   2.984  13.279 -0.8757  0.1481 -0.5772
 5839TIP3    H238933   5.296   3.132  13.291  0.8126  0.4749 -0.2452
 5840TIP3   OH238934   5.911   1.198   5.152 -0.3581 -0.0420 -0.5278
 5840TIP3    H138935   5.901   1.132   5.084  0.2668  0.1737 -0.8313
 5840TIP3    H238936   5.932   1.279   5.105  0.8199 -0.0447 -0.0389
 5841TIP3   OH238937   0.489   1.192   5.104 -0.1297 -0.2269  0.5937
 5841TIP3    H138938   0.541   1.198   5.185  1.8034 -1.0926 -0.5082
 5841TIP3    H238939   0.552   1.207   5.034 -2.0152  1.8092 -0.7682
 5842TIP3   OH238940   3.508   2.982  16.205 -0.1465  0.0879 -0.1125
 5842TIP3    H138941   3.576   3.022  16.259 -0.1563  0.2515 -0.2209
 5842TIP3    H238942   3.500   2.893  16.238  0.4822 -0.0933 -0.4310
 5843TIP3   OH238943   1.966   3.780   2.738  0.3364  0.0156  0.1516
 5843TIP3    H138944   1.877   3.785   2.772  0.2633  1.0099 -0.1547
 5843TIP3    H238945   1.994   3.691   2.757 -1.0955 -0.6424 -0.6692
 5844TIP3   OH238946   1.079   2.068  16.395  0.1519 -0.2541 -0.0361
 5844TIP3    H138947   0.985   2.058  16.404 -0.3377  2.5644 -0.7876
 5844TIP3    H238948   1.111   1.981  16.373 -2.6177 -0.9008 -2.1154
 5845TIP3   OH238949   4.442   0.618   6.004 -0.3811 -0.0915 -0.0904
 5845TIP3    H138950   4.452   0.561   5.927 -0.8009  0.8274 -0.8540
 5845TIP3    H238951   4.497   0.694   5.984 -0.0827 -0.0812  0.7605
 5846TIP3   OH238952   5.822   0.517   2.714 -0.7094  0.5543 -0.1952
 5846TIP3    H138953   5.769   0.560   2.781 -1.1009 -1.0024  0.5208
 5846TIP3    H238954   5.765   0.515   2.637 -1.9456 -1.5303  0.7012
 5847TIP3   OH238955   5.237   2.001  16.554  0.3629 -0.3195 -0.5143
 5847TIP3    H138956   5.186   2.036  16.482 -0.2816 -3.0311 -1.4764
 5847TIP3    H238957   5.292   2.075  16.583 -0.7426  1.3573 -2.4744
 5848TIP3   OH238958   6.221   6.470   2.741  0.6999 -0.7391  0.0236
 5848TIP3    H138959   6.315   6.488   2.746  0.5094  0.6416 -0.7116
 5848TIP3    H238960   6.190   6.481   2.831  1.2950 -1.5827  0.3388
 5849TIP3   OH238961   3.014   3.031  10.940  0.1516 -0.1051  0.3346
 5849TIP3    H138962   3.004   3.118  10.979  0.2362  0.4480 -0.8159
 5849TIP3    H238963   2.954   3.032  10.865 -0.8874 -1.5499  1.0935
 5850TIP3   OH238964   4.749   1.770  12.701 -0.3536  0.3426  0.4352
 5850TIP3    H138965   4.694   1.800  12.773 -1.0304  0.3422 -0.0687
 5850TIP3    H238966   4.698   1.789  12.622  0.7713  1.2418 -0.1238
 5851TIP3   OH238967   1.084   2.147  14.135 -0.5340 -0.0750  0.1423
 5851TIP3    H138968   1.023   2.088  14.179 -0.5494 -0.2832 -0.1591
 5851TIP3    H238969   1.073   2.231  14.180 -1.6510  0.1161 -0.4495
 5852TIP3   OH238970   2.548   5.953  10.530 -0.2616 -0.6244  0.0158
 5852TIP3    H138971   2.512   5.871  10.565  0.1152 -0.3812  1.0092
 5852TIP3    H238972   2.472   5.999  10.495 -0.6512 -0.9092  0.4730
 5853TIP3   OH238973   3.091   3.023   5.798  0.3171 -0.1044 -0.1440
 5853TIP3    H138974   3.059   3.026   5.888  2.8245  0.1766  0.8198
 5853TIP3    H238975   3.101   2.929   5.780  0.9970 -0.1376  0.3544
 5854TIP3   OH238976   2.219   4.589  12.348 -0.5008 -0.4027  0.5736
 5854TIP3    H138977   2.262   4.557  12.427  0.3051  3.0438  1.7151
 5854TIP3    H238978   2.134   4.621  12.378 -0.4119  0.4521 -0.0380
 5855TIP3   OH238979   5.569   0.786  11.928  0.3142  0.1727 -0.0902
 5855TIP3    H138980   5.636   0.813  11.991  1.1728 -1.1172 -0.4150
 5855TIP3    H238981   5.603   0.705  11.890 -0.1615  0.8936 -2.2231
 5856TIP3   OH238982   3.002   4.528  12.880  0.1723 -0.0590  0.0754
 5856TIP3    H138983   2.989   4.488  12.794 -0.0271 -0.6892  0.3928
 5856TIP3    H238984   2.943   4.604  12.880 -0.3916 -0.4854 -0.0667
 5857TIP3   OH238985   2.655   6.295  15.118  0.7509  0.6804  0.1072
 5857TIP3    H138986   2.660   6.225  15.052  2.5308 -0.7668  1.6524
 5857TIP3    H238987   2.739   6.290  15.164 -0.1214  2.1552  1.9779
 5858TIP3   OH238988   2.021   4.384   2.417 -0.7388 -0.3186 -0.1483
 5858TIP3    H138989   2.053   4.372   2.506 -0.1854  2.5196  0.1359
 5858TIP3    H238990   2.057   4.311   2.367  1.8788 -0.0917  1.2598
 5859TIP3   OH238991   4.918   3.861  12.476  0.1172 -0.2353 -0.1951
 5859TIP3    H138992   4.861   3.799  12.520 -0.7988  0.3282 -0.5671
 5859TIP3    H238993   4.914   3.838  12.383 -0.5512  0.6041 -0.3923
 5860TIP3   OH238994   3.105   5.664  16.346 -0.0452  0.0299  0.0827
 5860TIP3    H138995   3.043   5.631  16.280 -0.7212 -1.3379  1.3360
 5860TIP3    H238996   3.051   5.720  16.403  0.0403 -0.5111  0.7022
 5861TIP3   OH238997   3.035   4.467  13.637 -0.4975  0.4446  0.0690
 5861TIP3    H138998   3.012   4.502  13.723  0.5634  0.0029  0.5555
 5861TIP3    H238999   2.964   4.496  13.580 -1.8771 -0.2940  1.3351
 5862TIP3   OH239000   4.337   4.240   0.500  0.0499 -0.0194  0.3088
 5862TIP3    H139001   4.298   4.317   0.459  0.9337  1.1355  1.5953
 5862TIP3    H239002   4.270   4.210   0.561  0.6483  1.2352  1.6220
 5863TIP3   OH239003   0.645   1.516   4.389 -0.2706  0.6266 -0.2787
 5863TIP3    H139004   0.575   1.456   4.417 -1.5878  1.3699 -1.7536
 5863TIP3    H239005   0.647   1.584   4.456 -1.0352  0.6205 -0.2325
 5864TIP3   OH239006   0.499   1.933  12.227  0.4583  0.3242 -0.4420
 5864TIP3    H139007   0.463   1.866  12.169 -1.6106  0.7785  0.2293
 5864TIP3    H239008   0.503   2.012  12.173  0.3683  0.2897 -0.4995
 5865TIP3   OH239009   2.340   5.273   1.018 -0.8485  0.1903  0.5198
 5865TIP3    H139010   2.261   5.231   0.985 -0.9250  1.5748 -1.2646
 5865TIP3    H239011   2.310   5.334   1.085 -1.7943  2.6764 -1.9502
 5866TIP3   OH239012   5.048   5.958  14.086 -0.6197  0.3931  1.2997
 5866TIP3    H139013   5.110   6.013  14.134 -0.7036  0.7295  1.0238
 5866TIP3    H239014   4.968   6.010  14.080 -0.6022  0.3672  0.7730
 5867TIP3   OH239015   1.210   0.142  11.071  0.5745  0.2552  0.3384
 5867TIP3    H139016   1.237   0.060  11.113  0.5278 -0.7208 -1.4420
 5867TIP3    H239017   1.281   0.161  11.009  0.5723  1.5848  0.7047
 5868TIP3   OH239018   5.748   2.067   2.754 -0.3426 -0.2083 -0.3849
 5868TIP3    H139019   5.709   1.987   2.790 -1.8418 -0.2867 -2.0190
 5868TIP3    H239020   5.687   2.094   2.684 -0.8747  3.3860  1.2378
 5869TIP3   OH239021   5.103   2.743   0.967  0.2224  0.5712 -0.6847
 5869TIP3    H139022   5.057   2.659   0.974 -0.2182  0.8746  0.1805
 5869TIP3    H239023   5.058   2.789   0.896  0.0060  0.3701 -0.6794
 5870TIP3   OH239024   5.450   5.960   2.886 -0.3338 -0.1661  0.3937
 5870TIP3    H139025   5.525   5.929   2.936 -0.5045  1.4218  1.7164
 5870TIP3    H239026   5.473   6.049   2.860 -1.2367 -0.1192 -0.3142
 5871TIP3   OH239027   2.747   5.295  15.888  0.2730  0.4404  0.4749
 5871TIP3    H139028   2.669   5.279  15.835 -0.4524 -1.1406  1.9588
 5871TIP3    H239029   2.817   5.247  15.843  0.0820  0.6209 -0.0252
 5872TIP3   OH239030   0.590   6.425  16.951 -1.0518  0.2094  0.0756
 5872TIP3    H139031   0.580   6.435  17.045  2.7361 -1.0769  0.8079
 5872TIP3    H239032   0.515   6.371  16.924 -2.2697  0.6999  2.2898
 5873TIP3   OH239033   0.724   0.419  12.119 -0.4786  0.0304  0.1719
 5873TIP3    H139034   0.628   0.420  12.122 -0.5939  2.0996 -1.6120
 5873TIP3    H239035   0.745   0.454  12.033  1.9087  1.7836  1.3650
 5874TIP3   OH239036   1.126   1.239   2.789  0.1331 -0.5304  0.3182
 5874TIP3    H139037   1.092   1.193   2.866 -0.1650 -2.2952 -0.8175
 5874TIP3    H239038   1.078   1.201   2.715  0.0705  1.4632 -0.7143
 5875TIP3   OH239039   2.726   0.100   2.540  0.6451  0.0983  0.1466
 5875TIP3    H139040   2.694   0.129   2.454  1.1832  0.2293 -0.0098
 5875TIP3    H239041   2.802   0.046   2.521 -0.1040 -1.1025  0.4646
 5876TIP3   OH239042   1.224   0.872   5.258 -0.2090  0.1892  0.2421
 5876TIP3    H139043   1.168   0.881   5.180 -2.0994 -0.6838  1.4304
 5876TIP3    H239044   1.261   0.784   5.251 -0.2688  0.1636  0.2431
 5877TIP3   OH239045   0.338   5.294  12.852  0.2029  0.1441 -0.0223
 5877TIP3    H139046   0.350   5.389  12.849  1.1681  0.0074 -2.0599
 5877TIP3    H239047   0.403   5.260  12.790  0.9048 -1.9711  1.7393
 5878TIP3   OH239048   5.984   1.218  11.601  0.2786  0.4917  0.2657
 5878TIP3    H139049   6.044   1.291  11.584 -1.1532  1.5424 -0.5862
 5878TIP3    H239050   6.005   1.153  11.535  1.3227  0.2621  0.7983
 5879TIP3   OH239051   0.386   3.158  13.112 -0.1893  0.0904 -0.4732
 5879TIP3    H139052   0.436   3.105  13.174  0.4084 -0.6839 -1.5845
 5879TIP3    H239053   0.452   3.193  13.052 -0.9311 -0.8096 -1.8734
 5880TIP3   OH239054   6.407   1.344  13.905 -0.0961 -0.5492  0.2809
 5880TIP3    H139055   6.347   1.326  13.978 -1.3895  1.9064 -0.0367
 5880TIP3    H239056   6.437   1.258  13.876 -2.7807 -1.8647  1.0591
 5881TIP3   OH239057   6.733   3.543   3.848  0.2148 -0.5832 -0.2112
 5881TIP3    H139058   6.817   3.513   3.814 -0.4238 -2.8094  0.0812
 5881TIP3    H239059   6.751   3.632   3.880  2.6422 -1.2878  0.5934
 5882TIP3   OH239060   0.625   6.265   4.377  0.3798 -0.4580  0.3400
 5882TIP3    H139061   0.582   6.347   4.400  1.6249 -0.0689  1.3653
 5882TIP3    H239062   0.704   6.291   4.328  0.9549 -1.0133  0.9506
 5883TIP3   OH239063   3.871   6.631  14.273  0.5645  0.1525  0.0252
 5883TIP3    H139064   3.836   6.566  14.333  0.9868  0.4658  0.6204
 5883TIP3    H239065   3.836   6.606  14.188 -0.5032  0.0317  0.4823
 5884TIP3   OH239066   4.955   6.766  14.448  0.1587  0.4134  0.0494
 5884TIP3    H139067   4.877   6.738  14.400  0.6667 -0.7167 -0.1545
 5884TIP3    H239068   4.921   6.806  14.528 -0.6962  2.2056 -1.1431
 5885TIP3   OH239069   4.286   0.841  12.005 -0.0252  0.6639  0.7230
 5885TIP3    H139070   4.274   0.747  11.989  2.5210  0.4169 -0.2542
 5885TIP3    H239071   4.265   0.883  11.922 -3.1400  1.2699  1.7051
 5886TIP3   OH239072   5.114   1.857   1.064  0.1327 -0.3532  0.6103
 5886TIP3    H139073   5.112   1.892   0.975  0.2345 -0.0986  0.7078
 5886TIP3    H239074   5.023   1.834   1.083  0.2350 -1.2145  0.1233
 5887TIP3   OH239075   3.950   5.071   4.897 -0.5887  0.2581 -0.2818
 5887TIP3    H139076   3.937   5.141   4.961 -1.2984 -0.3525  0.2564
 5887TIP3    H239077   4.041   5.082   4.869 -0.7171  1.4571 -0.2999
 5888TIP3   OH239078   1.078   3.004  12.855  0.1174  0.3338  0.1249
 5888TIP3    H139079   1.107   2.992  12.764  0.2385 -0.1559  0.2273
 5888TIP3    H239080   1.094   3.097  12.872 -1.1823  0.7636 -0.7971
 5889TIP3   OH239081   4.853   3.810   3.889 -0.1342  0.1320 -0.3387
 5889TIP3    H139082   4.796   3.877   3.851 -1.8345 -1.3271 -0.5174
 5889TIP3    H239083   4.806   3.781   3.967  0.0086 -1.6123 -0.8746
 5890TIP3   OH239084   1.584   3.687  11.605  0.6126  0.3875 -0.5034
 5890TIP3    H139085   1.634   3.700  11.525  0.0780  1.0600 -0.7337
 5890TIP3    H239086   1.649   3.660  11.670  1.0794  0.0367 -1.1029
 5891TIP3   OH239087   6.714   6.393   2.898 -0.2114 -0.5946 -0.2506
 5891TIP3    H139088   6.801   6.401   2.937 -0.0940 -1.2009 -0.3681
 5891TIP3    H239089   6.730   6.347   2.815 -0.3936  1.1072 -1.2687
 5892TIP3   OH239090   2.508   2.497   4.341 -0.5305  0.7970 -0.1123
 5892TIP3    H139091   2.570   2.541   4.283  0.9834 -3.0603 -1.7733
 5892TIP3    H239092   2.422   2.529   4.314  0.2411  0.4502 -3.4128
 5893TIP3   OH239093   1.712   3.791  14.064  0.2841  0.1045 -0.1035
 5893TIP3    H139094   1.711   3.863  14.001  1.6198 -0.2155 -0.5062
 5893TIP3    H239095   1.786   3.736  14.038 -0.0280 -0.8144  0.8724
 5894TIP3   OH239096   6.762   4.364  15.718  0.7776  0.2169  0.2256
 5894TIP3    H139097   6.835   4.302  15.713 -0.1432 -0.8012 -1.1375
 5894TIP3    H239098   6.686   4.309  15.737 -0.1457  0.8195 -1.5531
 5895TIP3   OH239099   4.418   1.785  13.719  0.2659  0.2786  0.0658
 5895TIP3    H139100   4.415   1.746  13.632  0.6998 -0.1907  0.2512
 5895TIP3    H239101   4.429   1.878  13.704  2.6850 -0.0252 -0.3819
 5896TIP3   OH239102   4.228   5.269  14.038 -0.1925 -0.2171 -0.6378
 5896TIP3    H139103   4.237   5.363  14.050 -0.4355 -0.2326 -0.3344
 5896TIP3    H239104   4.318   5.237  14.034 -0.0999  0.1227 -1.5198
 5897TIP3   OH239105   0.526   4.223   2.180  0.2562  0.1822  0.4887
 5897TIP3    H139106   0.607   4.236   2.229  0.2792 -0.6436  0.6803
 5897TIP3    H239107   0.527   4.292   2.114  1.0908  0.2179  0.5237
 5898TIP3   OH239108   0.054   5.307   5.409 -0.2384 -0.0410  0.1205
 5898TIP3    H139109   0.066   5.383   5.465  1.1472  0.5050 -0.8412
 5898TIP3    H239110  -0.040   5.302   5.393 -0.7485 -0.4842  2.7746
 5899TIP3   OH239111   5.059   0.382  13.942  0.6891 -0.4152 -0.6687
 5899TIP3    H139112   5.056   0.440  13.866  0.8057  0.4363 -0.0433
 5899TIP3    H239113   4.968   0.366  13.964  0.6556 -0.3582 -0.7667
 5900TIP3   OH239114   6.713   2.822  15.051  0.5049  0.0420  0.5293
 5900TIP3    H139115   6.659   2.829  15.130 -0.0990  1.0843  0.0428
 5900TIP3    H239116   6.662   2.866  14.983  2.4780  2.1057  0.2930
 5901TIP3   OH239117   4.966   2.975   3.586  0.1795 -0.7040 -0.4314
 5901TIP3    H139118   4.973   2.996   3.679 -0.1836 -0.6751 -0.4120
 5901TIP3    H239119   5.035   3.028   3.544 -0.7305  0.5516 -0.3888
 5902TIP3   OH239120   6.547   6.712   4.363 -0.2624 -0.2095 -1.1315
 5902TIP3    H139121   6.607   6.714   4.289  2.1742 -0.8881  0.7000
 5902TIP3    H239122   6.554   6.799   4.403  0.8033 -0.7968  0.0163
 5903TIP3   OH239123   5.464   1.078  15.367 -0.2910  0.6336  0.2395
 5903TIP3    H139124   5.410   1.051  15.292  1.0556 -0.3474 -0.4134
 5903TIP3    H239125   5.440   1.169  15.381 -1.7948  0.3531 -0.3082
 5904TIP3   OH239126   5.433   6.732  16.591 -0.0059  0.1940  0.5033
 5904TIP3    H139127   5.389   6.816  16.580  2.2170  1.4021  0.1234
 5904TIP3    H239128   5.483   6.721  16.510  0.5901 -0.9286  1.0045
 5905TIP3   OH239129   2.332   5.192  17.007 -0.4731 -0.1261 -0.5731
 5905TIP3    H139130   2.281   5.273  17.012  0.6184  0.5089  3.4654
 5905TIP3    H239131   2.278   5.133  16.954 -5.1517  0.7437  2.6246
 5906TIP3   OH239132   5.958   6.106  12.518  0.1412  0.1342 -0.3052
 5906TIP3    H139133   5.921   6.036  12.464  0.6309  0.2132 -0.7435
 5906TIP3    H239134   5.883   6.142  12.565 -0.3511  0.3463 -1.2477
 5907TIP3   OH239135   1.340   3.043  14.138  0.4107 -0.3723 -0.5103
 5907TIP3    H139136   1.340   3.138  14.132 -0.5693 -0.3050  0.2141
 5907TIP3    H239137   1.250   3.018  14.118  0.1008 -0.9690  1.4387
 5908TIP3   OH239138   0.358   1.962   5.791  0.2761 -0.0600  0.2443
 5908TIP3    H139139   0.364   1.879   5.839 -0.5003  1.6497  3.6578
 5908TIP3    H239140   0.264   1.983   5.793  0.5246  1.1306 -0.0959
 5909TIP3   OH239141   3.953   1.278   4.637 -0.4452  0.0887 -0.2415
 5909TIP3    H139142   4.046   1.255   4.643 -0.3498  0.8328  1.7924
 5909TIP3    H239143   3.952   1.365   4.598 -0.4118 -0.5582 -1.7391
 5910TIP3   OH239144   6.183   1.653  16.728 -0.1820  0.1358 -0.2464
 5910TIP3    H139145   6.264   1.700  16.748  1.3130 -1.4221 -2.1789
 5910TIP3    H239146   6.132   1.715  16.676  0.9587  0.2778 -1.2388
 5911TIP3   OH239147   5.319   4.091   3.354  0.4481 -0.4329 -0.1061
 5911TIP3    H139148   5.340   4.184   3.343  2.1180 -0.8629 -0.8543
 5911TIP3    H239149   5.387   4.058   3.412  0.8152 -1.4998 -1.1007
 5912TIP3   OH239150   4.409   5.991   1.816 -0.2687  0.2376 -0.0386
 5912TIP3    H139151   4.342   5.945   1.765 -0.5612  1.5251 -0.8709
 5912TIP3    H239152   4.359   6.036   1.884 -0.1523  0.4462 -0.0910
 5913TIP3   OH239153   1.418   4.004   0.061 -0.0619 -0.4045  0.4868
 5913TIP3    H139154   1.425   3.946   0.136 -2.3936 -0.6233  0.6120
 5913TIP3    H239155   1.364   4.077   0.091  1.1802  0.8859 -0.2424
 5914TIP3   OH239156   2.582   0.640   0.342  0.0061 -0.6098  0.2372
 5914TIP3    H139157   2.511   0.625   0.280  0.4632  0.9074 -0.6898
 5914TIP3    H239158   2.654   0.584   0.311  0.3911  0.4751 -0.9233
 5915TIP3   OH239159   4.152   6.254  14.882 -0.0654  0.4616  0.3485
 5915TIP3    H139160   4.102   6.200  14.821  2.8915 -0.2605 -1.6408
 5915TIP3    H239161   4.093   6.326  14.905 -1.7392  0.0953 -2.4175
 5916TIP3   OH239162   2.098   1.391  12.511  0.1520 -0.3068 -0.0388
 5916TIP3    H139163   2.124   1.471  12.556  0.2287 -0.4021  0.0880
 5916TIP3    H239164   2.167   1.376  12.447  0.0582 -0.1867 -0.1680
 5917TIP3   OH239165   3.837   4.209   4.945 -0.1196 -0.2480  0.5378
 5917TIP3    H139166   3.744   4.211   4.967  0.2359  1.0260  2.0442
 5917TIP3    H239167   3.848   4.279   4.881  0.2472  1.5611  2.4704
 5918TIP3   OH239168   4.512   5.320   4.455  0.0571  0.7825  0.4402
 5918TIP3    H139169   4.590   5.365   4.423  0.8968  0.5388  2.0427
 5918TIP3    H239170   4.534   5.295   4.545 -0.7917 -1.7968  0.0114
 5919TIP3   OH239171   6.497   3.378  15.452  0.2281 -0.3723  0.5691
 5919TIP3    H139172   6.516   3.380  15.358  1.8629  3.2428  0.7938
 5919TIP3    H239173   6.569   3.328  15.490  0.0815 -1.0264  0.0159
 5920TIP3   OH239174   2.614   6.563  13.880 -0.0374 -0.4690 -0.1648
 5920TIP3    H139175   2.581   6.571  13.969  1.2144  0.5098  0.2297
 5920TIP3    H239176   2.628   6.653  13.851 -0.9449 -0.7467 -1.5707
 5921TIP3   OH239177   2.546   0.003   1.563  0.1685  0.4462 -0.0568
 5921TIP3    H139178   2.552   0.075   1.500 -0.1617  0.5235 -0.0041
 5921TIP3    H239179   2.600  -0.067   1.525  0.5846  0.7635 -0.0500
 5922TIP3   OH239180   5.456   1.269   3.294 -0.1515  0.2919 -0.3903
 5922TIP3    H139181   5.362   1.278   3.310  0.0450  3.7669 -0.3834
 5922TIP3    H239182   5.496   1.313   3.369  1.4919 -0.6355 -0.6942
 5923TIP3   OH239183   2.551   4.221  13.207 -0.2197  0.0743  0.0240
 5923TIP3    H139184   2.510   4.282  13.146  0.2795  0.3644 -0.0243
 5923TIP3    H239185   2.614   4.172  13.154 -0.4182 -0.2905  0.1221
 5924TIP3   OH239186   6.484   5.678  14.889 -0.3425 -0.1344 -0.9076
 5924TIP3    H139187   6.420   5.741  14.856 -1.9235  0.4049  2.7421
 5924TIP3    H239188   6.565   5.727  14.897 -0.6653  0.4709 -1.2909
 5925TIP3   OH239189   2.055   5.324   1.259  0.0350 -0.1172  0.2061
 5925TIP3    H139190   2.073   5.230   1.261  1.7636  0.1603 -0.6082
 5925TIP3    H239191   2.011   5.341   1.343 -2.8261 -2.0564 -0.7344
 5926TIP3   OH239192   0.842   6.666  15.877  0.3022 -0.4169  0.0759
 5926TIP3    H139193   0.894   6.733  15.920 -0.4482 -0.6222  1.3597
 5926TIP3    H239194   0.904   6.595  15.860  0.7630 -0.0381  0.1522
 5927TIP3   OH239195   4.627   6.460  14.564  0.5047 -0.0357 -0.0486
 5927TIP3    H139196   4.693   6.410  14.516 -0.0499 -0.4353 -0.4044
 5927TIP3    H239197   4.562   6.482  14.497 -0.0434 -0.1965  0.4317
 5928TIP3   OH239198   2.781   5.499  15.198  0.1160 -0.1795 -0.1969
 5928TIP3    H139199   2.689   5.472  15.203 -0.1322  0.7068  0.0455
 5928TIP3    H239200   2.804   5.490  15.106 -0.5825  0.7736 -0.4736
 5929TIP3   OH239201   0.453   4.577   3.957  0.9443  0.0175  0.0580
 5929TIP3    H139202   0.529   4.632   3.939  0.3576  0.3528 -1.6425
 5929TIP3    H239203   0.379   4.627   3.921  0.3078 -1.5370 -0.8999
 5930TIP3   OH239204   6.697   0.963  13.934 -0.5146  0.9126 -0.3945
 5930TIP3    H139205   6.743   0.901  13.878  2.9171  3.0774 -0.3045
 5930TIP3    H239206   6.667   0.911  14.008  0.7321 -0.8998 -1.0910
 5931TIP3   OH239207   6.554   1.927  17.097  0.2377  0.2318 -0.6886
 5931TIP3    H139208   6.637   1.886  17.125 -0.7002 -0.7796  0.7887
 5931TIP3    H239209   6.575   2.020  17.089  1.2280  0.1922  0.9367
 5932TIP3   OH239210   2.450   4.821  15.279  0.3006  0.3927  0.4658
 5932TIP3    H139211   2.436   4.873  15.359  0.5785  0.0819  0.7181
 5932TIP3    H239212   2.386   4.856  15.217  0.4784  1.0384  0.6344
 5933TIP3   OH239213   3.975   2.525  11.405  0.0398  0.0246  0.7644
 5933TIP3    H139214   4.064   2.542  11.435 -0.0346 -0.5679  1.3466
 5933TIP3    H239215   3.966   2.576  11.325  1.2304 -0.6644  0.1715
 5934TIP3   OH239216   1.191   0.878   1.497 -0.4763 -0.4831  0.1096
 5934TIP3    H139217   1.136   0.802   1.514 -0.5003 -0.8141 -1.3131
 5934TIP3    H239218   1.167   0.905   1.408 -0.0246  0.8111  0.3642
 5935TIP3   OH239219   0.460   1.375   3.238  0.2138 -0.5393 -0.0615
 5935TIP3    H139220   0.393   1.387   3.305  0.4241  0.8292 -0.0615
 5935TIP3    H239221   0.533   1.429   3.267 -0.6871  2.4415 -2.6686
 5936TIP3   OH239222   0.644   2.753   3.798 -0.0120  0.2326 -0.3615
 5936TIP3    H139223   0.605   2.840   3.786  0.9891  0.8206  0.5162
 5936TIP3    H239224   0.733   2.770   3.829 -0.3008 -1.1001  1.3667
 5937TIP3   OH239225   4.771   0.138  13.821 -0.1173 -0.0416  0.1977
 5937TIP3    H139226   4.752   0.192  13.745  1.0557 -0.5193 -0.4684
 5937TIP3    H239227   4.689   0.093  13.841 -0.5775  0.5070 -0.4367
 5938TIP3   OH239228   0.295   4.510  15.850  0.0250  0.0415  0.3338
 5938TIP3    H139229   0.245   4.534  15.772  2.2319  0.2484 -1.0969
 5938TIP3    H239230   0.374   4.563  15.846  1.7240 -2.2802  0.9092
 5939TIP3   OH239231   4.268   5.078  13.687  0.2533  0.3733  0.2659
 5939TIP3    H139232   4.331   5.128  13.739 -0.6006  0.4919  1.2300
 5939TIP3    H239233   4.184   5.093  13.731 -0.3077 -0.4714 -0.4835
 5940TIP3   OH239234   4.893   1.689  12.032  0.2991 -0.3789  0.3258
 5940TIP3    H139235   4.938   1.700  11.948 -0.4267 -2.3376 -0.3562
 5940TIP3    H239236   4.800   1.697  12.011  0.1777  1.7048  1.4106
 5941TIP3   OH239237   4.822   0.203  17.142  0.0732  0.0578  0.1983
 5941TIP3    H139238   4.730   0.192  17.165  0.1070 -1.5247 -0.2687
 5941TIP3    H239239   4.869   0.146  17.204  0.6727  0.3405  0.0131
 5942TIP3   OH239240   5.599   0.326   5.671 -0.5673  0.2347 -0.7396
 5942TIP3    H139241   5.644   0.342   5.754  0.9395 -0.6365 -1.3509
 5942TIP3    H239242   5.630   0.241   5.642  0.7637  1.4638 -3.2976
 5943TIP3   OH239243   4.250   6.607  15.692 -0.4510 -0.7179  0.1341
 5943TIP3    H139244   4.269   6.694  15.659 -0.5596 -0.7625 -0.0490
 5943TIP3    H239245   4.301   6.600  15.773 -0.0805 -0.6576 -0.0933
 5944TIP3   OH239246   4.551   4.473  14.330  0.2621 -0.4977 -0.4684
 5944TIP3    H139247   4.639   4.435  14.334  1.0146  1.1807 -0.2989
 5944TIP3    H239248   4.546   4.531  14.405 -1.4655 -1.4433  0.2058
 5945TIP3   OH239249   2.253   5.581   2.037  0.2510 -0.4484 -0.0789
 5945TIP3    H139250   2.207   5.525   1.975  1.6195 -1.6950 -0.0077
 5945TIP3    H239251   2.345   5.556   2.029  0.5628 -0.0962  1.9025
 5946TIP3   OH239252   5.306   1.698   2.405  0.5579 -0.5129  0.3673
 5946TIP3    H139253   5.252   1.716   2.482 -1.5548 -1.8239 -0.7052
 5946TIP3    H239254   5.300   1.603   2.394  1.9853 -0.5219 -0.6117
 5947TIP3   OH239255   3.212   1.990  11.250  0.1112  0.0638 -0.1312
 5947TIP3    H139256   3.302   2.018  11.265 -0.1994  0.6230  0.7917
 5947TIP3    H239257   3.201   1.995  11.155  1.4003 -1.1725 -0.3642
 5948TIP3   OH239258   4.350   1.184  10.808  0.1249  0.2813  0.2261
 5948TIP3    H139259   4.372   1.095  10.779  2.0559  0.1188  1.9529
 5948TIP3    H239260   4.311   1.225  10.731  0.8050 -1.5222 -1.1524
 5949TIP3   OH239261   0.603   5.288  15.190  0.0265  0.0241 -0.3631
 5949TIP3    H139262   0.580   5.229  15.119 -0.4953 -0.5251  0.2476
 5949TIP3    H239263   0.526   5.343  15.203  0.2319  0.3293 -0.4260
 5950TIP3   OH239264   2.219   5.872   1.091  0.2442 -0.2330  0.6697
 5950TIP3    H139265   2.243   5.783   1.063  0.2114 -0.4260  1.2437
 5950TIP3    H239266   2.232   5.926   1.013 -1.4868 -1.0296 -0.2404
 5951TIP3   OH239267   6.575   1.753  12.624  0.3104 -0.3680 -0.0056
 5951TIP3    H139268   6.647   1.814  12.608 -0.2955 -0.0727 -1.9470
 5951TIP3    H239269   6.617   1.676  12.661  1.6175 -0.1375 -0.9229
 5952TIP3   OH239270   2.967   4.675   4.833 -0.0579 -0.1404 -0.5074
 5952TIP3    H139271   2.968   4.641   4.744  1.4517  1.4004 -1.1541
 5952TIP3    H239272   3.058   4.666   4.863  0.0334  1.6264 -0.1078
 5953TIP3   OH239273   5.480   1.698   3.635 -0.3212  0.2786  0.2153
 5953TIP3    H139274   5.462   1.781   3.591  0.2542  0.9382  1.1812
 5953TIP3    H239275   5.395   1.653   3.638 -0.5340  0.5927 -0.7751
 5954TIP3   OH239276   5.669   1.483   1.943 -0.3351  0.3711  0.4836
 5954TIP3    H139277   5.688   1.490   1.850 -0.3739  1.3732  0.5349
 5954TIP3    H239278   5.754   1.469   1.984 -0.4977 -1.8388  0.1764
 5955TIP3   OH239279   5.333   5.682   1.642  0.2059  0.3746  0.0648
 5955TIP3    H139280   5.296   5.694   1.730 -1.9761 -2.7957 -0.2582
 5955TIP3    H239281   5.263   5.710   1.583  0.6364  0.0110 -0.6239
 5956TIP3   OH239282   5.530   5.622   0.291  0.6821 -0.3494  0.2845
 5956TIP3    H139283   5.534   5.561   0.217  0.5878  1.3571 -1.1925
 5956TIP3    H239284   5.546   5.708   0.252  0.2553  0.6543  2.2078
 5957TIP3   OH239285   0.132   0.152  15.452  0.2674 -0.1703  0.3671
 5957TIP3    H139286   0.090   0.178  15.534  1.4747  2.0388  0.3550
 5957TIP3    H239287   0.155   0.060  15.465 -1.2902 -0.4166  1.7274
 5958TIP3   OH239288   6.343   5.393  13.246 -0.0890  0.1937 -0.0060
 5958TIP3    H139289   6.416   5.370  13.188 -0.7128  1.1965 -1.2544
 5958TIP3    H239290   6.287   5.315  13.246 -0.5046  0.4484 -1.4984
 5959TIP3   OH239291   6.181   0.445  10.821  0.1866  0.3116  0.2130
 5959TIP3    H139292   6.244   0.375  10.837  1.5179  1.8787  2.5005
 5959TIP3    H239293   6.194   0.469  10.729  2.3678 -0.0052  0.3770
 5960TIP3   OH239294   4.604   6.106  12.487  0.2462 -0.0829  0.4118
 5960TIP3    H139295   4.617   6.034  12.425  1.6978  1.6728 -1.4510
 5960TIP3    H239296   4.690   6.147  12.494 -0.2324  0.6769  2.5139
 5961TIP3   OH239297   6.520   5.560  12.660 -0.3439 -0.4637  0.4321
 5961TIP3    H139298   6.430   5.549  12.631 -0.9452  1.7250  1.2484
 5961TIP3    H239299   6.558   5.620  12.595  0.4307 -1.0976  0.2892
 5962TIP3   OH239300   3.452   2.189   0.556  0.4233 -0.0693 -0.0551
 5962TIP3    H139301   3.419   2.113   0.604  1.2202 -1.0996 -1.1022
 5962TIP3    H239302   3.460   2.258   0.623 -0.6746 -0.7671  0.8355
 5963TIP3   OH239303   2.478   0.136   5.423 -0.0734  0.2411 -0.0348
 5963TIP3    H139304   2.514   0.132   5.512 -0.5095  0.1752  0.1412
 5963TIP3    H239305   2.486   0.227   5.397 -2.1686  0.7841  1.0132
 5964TIP3   OH239306   5.612   3.244   2.611 -0.4942 -0.1266 -0.1971
 5964TIP3    H139307   5.569   3.327   2.632  0.7378  0.7737 -1.0909
 5964TIP3    H239308   5.657   3.261   2.529  1.8236 -0.9032  0.8448
 5965TIP3   OH239309   5.820   4.145  12.921  0.3370  0.5466 -0.0520
 5965TIP3    H139310   5.732   4.171  12.895  0.3046 -0.2192 -0.7916
 5965TIP3    H239311   5.863   4.123  12.838  0.1231 -2.3668  0.5021
 5966TIP3   OH239312   6.330   3.885  16.193 -0.0240 -0.0897 -0.4725
 5966TIP3    H139313   6.282   3.860  16.272 -0.1538  0.1392 -0.4783
 5966TIP3    H239314   6.267   3.873  16.122  0.1151 -0.3687 -0.5534
 5967TIP3   OH239315   4.684   0.412   2.504  0.3670  0.1823  0.4304
 5967TIP3    H139316   4.712   0.418   2.413  0.0625  1.6645  0.4159
 5967TIP3    H239317   4.764   0.388   2.552  0.1528 -2.5597 -0.3956
 5968TIP3   OH239318   4.802   6.672   4.119 -0.3049 -0.6325 -0.2149
 5968TIP3    H139319   4.723   6.720   4.143  0.1226 -0.4558  0.8820
 5968TIP3    H239320   4.843   6.650   4.202  2.5845  2.2287 -0.7100
 5969TIP3   OH239321   6.773   0.967  15.206  0.0780  0.1293 -0.3048
 5969TIP3    H139322   6.774   0.892  15.266 -0.9543  0.1375 -0.2690
 5969TIP3    H239323   6.709   1.027  15.243  0.5622  0.8315 -0.5869
 5970TIP3   OH239324   5.601   4.199  12.706 -0.5855 -0.7043  0.0485
 5970TIP3    H139325   5.507   4.208  12.722 -0.2907  1.3427  0.8888
 5970TIP3    H239326   5.637   4.286  12.724  1.2716 -1.0361 -1.7332
 5971TIP3   OH239327   5.164   3.152   2.538 -0.5581 -0.0683 -0.7477
 5971TIP3    H139328   5.136   3.149   2.446  0.8902 -2.7360 -1.1900
 5971TIP3    H239329   5.135   3.068   2.574 -1.0899  0.9285  1.2869
 5972TIP3   OH239330   5.426   1.019  13.494  0.0805  0.5831  0.0415
 5972TIP3    H139331   5.334   1.037  13.514  0.1754  0.8271  0.2678
 5972TIP3    H239332   5.472   1.098  13.520  0.7049 -0.4589  2.3841
 5973TIP3   OH239333   2.397   4.645  12.897  0.2598 -0.4214 -0.2003
 5973TIP3    H139334   2.434   4.571  12.849  1.3371  0.3248 -0.5575
 5973TIP3    H239335   2.421   4.722  12.846 -0.5176  0.2135  0.3601
 5974TIP3   OH239336   1.323   1.454   3.056  1.1236 -0.3942  0.8375
 5974TIP3    H139337   1.325   1.525   3.121  1.0633  0.9471 -0.5667
 5974TIP3    H239338   1.253   1.396   3.086  0.1168  0.9673  1.2166
 5975TIP3   OH239339   1.527   5.767   0.854  0.2570  0.0849 -0.2059
 5975TIP3    H139340   1.600   5.820   0.821 -0.4432 -0.1840 -2.3609
 5975TIP3    H239341   1.486   5.822   0.921  1.8379  0.6370  0.3498
 5976TIP3   OH239342   3.873   2.338  16.937 -1.0861 -0.1115  0.0349
 5976TIP3    H139343   3.914   2.272  16.881 -1.5265 -0.4553  0.1126
 5976TIP3    H239344   3.944   2.369  16.993 -0.1745  1.6238 -1.9771
 5977TIP3   OH239345   0.481   4.550   4.813  0.9305  0.3690 -0.2032
 5977TIP3    H139346   0.463   4.462   4.846  0.2272 -0.2986 -2.1990
 5977TIP3    H239347   0.568   4.543   4.773  0.4923  0.2901 -1.1815
 5978TIP3   OH239348   2.609   2.644   5.464 -0.0303  0.1169 -0.0699
 5978TIP3    H139349   2.694   2.688   5.461 -0.2615  0.5109 -1.6758
 5978TIP3    H239350   2.623   2.568   5.521  1.1935  0.5666  0.2552
 5979TIP3   OH239351   2.325   4.868   6.291 -0.3521  0.1033 -0.1581
 5979TIP3    H139352   2.306   4.808   6.363 -0.0180 -0.7941 -0.8027
 5979TIP3    H239353   2.411   4.905   6.313  0.6903 -1.6647 -1.0313
 5980TIP3   OH239354   2.935   2.081  13.798  0.2550  0.8125  0.6429
 5980TIP3    H139355   2.895   2.062  13.713  1.0329  1.1159  0.2048
 5980TIP3    H239356   2.895   2.017  13.857 -0.7741  1.0071  0.1946
 5981TIP3   OH239357   3.163   1.698   0.285 -0.0250  0.1303  0.6710
 5981TIP3    H139358   3.221   1.690   0.209 -1.7449  0.5786 -0.7687
 5981TIP3    H239359   3.120   1.783   0.272 -3.4990 -1.6150 -0.2264
 5982TIP3   OH239360   6.336   0.641  13.144  0.4631  0.1059  0.3359
 5982TIP3    H139361   6.345   0.686  13.060 -0.5808  1.1018  0.7377
 5982TIP3    H239362   6.242   0.640  13.162  0.6847  0.1376  1.6148
 5983TIP3   OH239363   3.255   5.423   1.305 -0.1409  0.3327  0.2963
 5983TIP3    H139364   3.188   5.455   1.365  0.4184 -0.3134  1.2892
 5983TIP3    H239365   3.306   5.500   1.282 -0.8869  0.7352 -0.0375
 5984TIP3   OH239366   0.256   1.958   4.361  0.2351 -0.0194 -0.1154
 5984TIP3    H139367   0.278   1.974   4.452 -1.6371 -1.0338  0.5610
 5984TIP3    H239368   0.180   2.014   4.344  0.2381 -0.2317 -0.8900
 5985TIP3   OH239369   4.694   5.659  13.949  0.2744 -0.3828 -0.9317
 5985TIP3    H139370   4.755   5.701  13.889  0.8805 -0.6742 -0.5375
 5985TIP3    H239371   4.666   5.729  14.008  3.0914 -0.8795  1.2233
 5986TIP3   OH239372   0.381   3.190   0.800 -0.2009 -0.0120  0.1970
 5986TIP3    H139373   0.293   3.180   0.764  0.4983 -2.2624 -1.0923
 5986TIP3    H239374   0.382   3.132   0.876  0.4488 -0.8395 -0.4220
 5987TIP3   OH239375   2.851   6.345   1.471  0.2536 -1.0463 -0.6884
 5987TIP3    H139376   2.940   6.365   1.502  0.0195 -0.8047 -0.1619
 5987TIP3    H239377   2.854   6.365   1.377  0.2835  0.6339 -0.3663
 5988TIP3   OH239378   4.344   2.218   3.665 -0.1548 -0.3291  0.3141
 5988TIP3    H139379   4.397   2.141   3.645 -0.0194  0.0587 -0.9001
 5988TIP3    H239380   4.256   2.183   3.679 -0.1424 -0.6923 -0.4534
 5989TIP3   OH239381   2.798   4.349  15.940  0.0845  1.1089 -0.0352
 5989TIP3    H139382   2.739   4.313  16.005 -0.6807  0.2159 -1.1751
 5989TIP3    H239383   2.857   4.406  15.989  1.2674 -1.5733  1.8475
 5990TIP3   OH239384   0.322   1.584  16.130  0.6425  0.4391  0.1686
 5990TIP3    H139385   0.363   1.557  16.212 -0.4087  0.4710  0.7242
 5990TIP3    H239386   0.250   1.522  16.118  0.9909  0.2353 -0.9063
 5991TIP3   OH239387   4.021   0.293   4.376  0.0253 -0.0897  0.0611
 5991TIP3    H139388   4.061   0.380   4.378  1.5297 -0.6937 -1.2706
 5991TIP3    H239389   4.047   0.254   4.459  2.2695 -0.4269 -0.7146
 5992TIP3   OH239390   3.091   6.691  13.191 -0.0136  0.1363 -0.4821
 5992TIP3    H139391   3.054   6.779  13.181 -0.4265  0.0158 -0.0383
 5992TIP3    H239392   3.143   6.678  13.112 -1.9542 -0.1820 -1.7950
 5993TIP3   OH239393   4.141   2.918   0.784  0.2940 -0.2785 -0.2101
 5993TIP3    H139394   4.173   2.950   0.700 -3.0478 -1.6386 -2.1886
 5993TIP3    H239395   4.177   2.830   0.791 -0.8226 -0.8271 -1.1332
 5994TIP3   OH239396   0.767   2.560   0.392  0.2995 -0.1814 -0.2081
 5994TIP3    H139397   0.789   2.518   0.309  1.5408  0.8031 -0.4043
 5994TIP3    H239398   0.838   2.621   0.408 -0.6256  0.6621  0.8946
 5995TIP3   OH239399   5.529   3.994   1.777  0.2605  0.0219 -0.1226
 5995TIP3    H139400   5.493   4.024   1.693  0.1098 -0.5951 -0.2900
 5995TIP3    H239401   5.624   3.991   1.763  0.2148 -0.3594 -0.3736
 5996TIP3   OH239402   0.619   1.248  11.520 -0.7033 -0.0172  0.2173
 5996TIP3    H139403   0.706   1.260  11.557 -0.7212 -1.9071  1.0130
 5996TIP3    H239404   0.560   1.252  11.596 -1.2155  0.2732 -0.1853
 5997TIP3   OH239405   5.455   5.986  17.036 -0.2079 -0.0559  0.6965
 5997TIP3    H139406   5.534   5.935  17.055  0.1266  0.8590  1.9442
 5997TIP3    H239407   5.385   5.921  17.031  0.5013 -0.8092  0.3381
 5998TIP3   OH239408   5.464   5.446  15.633 -0.0306 -0.5741 -0.5230
 5998TIP3    H139409   5.445   5.412  15.721  1.0059 -2.1886 -0.8971
 5998TIP3    H239410   5.451   5.372  15.575  1.9391 -0.2606 -1.4224
 5999TIP3   OH239411   1.162   6.745   5.677 -0.0885  0.3216  0.3883
 5999TIP3    H139412   1.242   6.699   5.653 -0.1702 -0.0146  0.7546
 5999TIP3    H239413   1.178   6.778   5.766 -1.1139 -1.5482  1.3296
 6000TIP3   OH239414   4.908   3.145   0.923  0.0160 -0.2527  0.5865
 6000TIP3    H139415   4.897   3.234   0.958  0.6552 -0.3608  1.0762
 6000TIP3    H239416   4.962   3.100   0.988  0.1956 -0.8264  0.0488
 6001TIP3   OH239417   2.749   1.993  15.516  0.1145 -1.4433  0.1483
 6001TIP3    H139418   2.738   1.923  15.453  2.4102 -0.8262 -1.0651
 6001TIP3    H239419   2.804   1.956  15.585  1.5333 -0.8367 -0.6136
 6002TIP3   OH239420   5.268   0.643  11.463 -0.8217 -0.3963 -0.6034
 6002TIP3    H139421   5.205   0.671  11.530 -0.4553 -0.5603 -0.1820
 6002TIP3    H239422   5.339   0.707  11.468 -0.3664 -0.9139 -0.1968
 6003TIP3   OH239423   5.777   3.219  13.571 -0.3879 -0.2246  0.5238
 6003TIP3    H139424   5.838   3.254  13.636 -2.8002  1.9543  1.7917
 6003TIP3    H239425   5.783   3.281  13.497  0.9193 -1.5989 -0.5744
 6004TIP3   OH239426   3.660   2.154   3.940  0.1912  0.5805 -0.4893
 6004TIP3    H139427   3.588   2.137   3.878  0.5357  0.3047 -0.8171
 6004TIP3    H239428   3.709   2.226   3.900  0.4764  0.3306 -0.5889
 6005TIP3   OH239429   5.083   6.119  11.642  0.1957  0.1550  0.1777
 6005TIP3    H139430   5.045   6.154  11.561  0.5060 -0.1191 -0.0910
 6005TIP3    H239431   5.135   6.190  11.678 -1.7939  1.0992  1.3870
 6006TIP3   OH239432   0.928   5.044  11.382  0.2436  0.5176  0.4707
 6006TIP3    H139433   0.961   5.040  11.292  1.8221  1.6411  0.9479
 6006TIP3    H239434   0.921   4.953  11.410  0.5035  0.1801 -0.5333
 6007TIP3   OH239435   3.793   1.382   1.671 -0.4331  0.1602  0.1542
 6007TIP3    H139436   3.775   1.314   1.606 -0.9593 -3.0408  3.3462
 6007TIP3    H239437   3.888   1.391   1.671 -0.4622  1.2711 -1.8651
 6008TIP3   OH239438   3.280   4.575  12.938  0.2478  0.2378 -0.6345
 6008TIP3    H139439   3.320   4.564  13.024  0.3392  1.1661 -0.5411
 6008TIP3    H239440   3.188   4.553  12.951 -0.2353  2.4734  0.2663
 6009TIP3   OH239441   1.051   6.546  14.324  0.0992 -0.7008 -0.3069
 6009TIP3    H139442   1.071   6.599  14.402 -0.2540 -0.5592 -0.3101
 6009TIP3    H239443   1.087   6.597  14.251  1.2650 -1.2747 -0.1651
 6010TIP3   OH239444   6.629   0.702   1.278 -0.2192 -0.3115  0.3226
 6010TIP3    H139445   6.601   0.763   1.209  1.2614  1.7663  1.4302
 6010TIP3    H239446   6.562   0.634   1.279 -2.2379  1.5445 -0.7137
 6011TIP3   OH239447   2.681   6.612   4.769 -0.3141  0.0215 -0.3206
 6011TIP3    H139448   2.733   6.644   4.695 -1.1829 -1.0684 -1.4436
 6011TIP3    H239449   2.592   6.606   4.734 -0.7568 -0.4070  0.8568
 6012TIP3   OH239450   4.434   4.376  12.635 -0.3499  0.1886  0.0926
 6012TIP3    H139451   4.501   4.308  12.637 -0.9653 -0.5235 -1.9028
 6012TIP3    H239452   4.476   4.451  12.677  0.7487 -1.0295  1.2994
 6013TIP3   OH239453   4.403   4.522   0.422  0.0752  0.1487 -0.1747
 6013TIP3    H139454   4.467   4.588   0.448 -0.2511  0.0818  0.8355
 6013TIP3    H239455   4.456   4.445   0.398  0.4612  0.7892 -1.4921
 6014TIP3   OH239456   3.697   4.885   1.317  0.4862  0.5952  0.0423
 6014TIP3    H139457   3.707   4.965   1.265  0.4638 -0.4750 -1.7068
 6014TIP3    H239458   3.624   4.839   1.275  1.2607 -0.8775  0.2548
 6015TIP3   OH239459   2.218   0.190   5.130  0.5007 -0.9307 -0.3598
 6015TIP3    H139460   2.205   0.126   5.060  0.2283 -0.1040 -1.0856
 6015TIP3    H239461   2.161   0.159   5.200 -0.6417 -0.7927 -1.1903
 6016TIP3   OH239462   1.667   6.019  13.324 -0.3371  0.1005  0.6257
 6016TIP3    H139463   1.739   5.979  13.275 -1.5476  0.3984 -1.5568
 6016TIP3    H239464   1.615   5.945  13.355 -0.9512 -0.1063 -0.8236
 6017TIP3   OH239465   4.053   6.503   2.737  0.1045 -0.4312 -0.1984
 6017TIP3    H139466   4.045   6.433   2.802 -0.4011 -0.0896  0.1085
 6017TIP3    H239467   3.966   6.541   2.731  0.7856  1.4492  1.0574
 6018TIP3   OH239468   6.080   3.553  16.846  0.0102 -1.0234  0.3876
 6018TIP3    H139469   6.042   3.479  16.895  1.0508 -0.6438  1.8453
 6018TIP3    H239470   6.148   3.514  16.791 -0.7703 -1.3824 -0.3401
 6019TIP3   OH239471   1.906   2.083   5.070 -0.9122 -0.0180  0.1324
 6019TIP3    H139472   1.967   2.136   5.121  1.3050  0.4981 -2.7973
 6019TIP3    H239473   1.854   2.146   5.021 -1.5072 -0.5373  0.0702
 6020TIP3   OH239474   0.606   4.817  17.092  0.7590 -0.3774  0.2739
 6020TIP3    H139475   0.677   4.795  17.032  1.0359 -1.9562  1.1372
 6020TIP3    H239476   0.624   4.907  17.119  2.0559 -0.5313 -0.0454
 6021TIP3   OH239477   6.512   3.616  13.502  0.6976  0.5795  0.0810
 6021TIP3    H139478   6.582   3.564  13.543  0.3457 -0.8005 -0.9939
 6021TIP3    H239479   6.504   3.580  13.414 -1.2665  0.8088  0.1257
 6022TIP3   OH239480   2.667   5.337  13.048 -0.1493  0.2868  0.0307
 6022TIP3    H139481   2.628   5.425  13.047  1.1629  0.9502  2.0614
 6022TIP3    H239482   2.597   5.280  13.080 -1.3135  0.3431 -2.1566
 6023TIP3   OH239483   3.762   0.395  12.374  0.0519  0.3580  0.4140
 6023TIP3    H139484   3.797   0.411  12.286  2.5172  1.6878  1.5048
 6023TIP3    H239485   3.745   0.301  12.376 -0.3209  0.3324 -1.5534
 6024TIP3   OH239486   0.326   1.806  12.063 -0.3537 -0.3811  0.3147
 6024TIP3    H139487   0.359   1.804  11.973  2.2323 -1.5615  1.1891
 6024TIP3    H239488   0.231   1.795  12.054 -0.1142 -1.0510 -2.2277
 6025TIP3   OH239489   1.980   1.725  10.631  0.1287 -0.4253 -0.0835
 6025TIP3    H139490   2.043   1.728  10.703 -1.2514  0.7848  1.1131
 6025TIP3    H239491   1.904   1.774  10.662 -1.4245 -1.8037 -1.4985
 6026TIP3   OH239492   0.799   2.287   1.105 -0.1590 -0.5052 -0.1029
 6026TIP3    H139493   0.789   2.284   1.010 -0.2994  2.2589 -0.2545
 6026TIP3    H239494   0.710   2.276   1.139 -0.3548  0.1905 -0.3792
 6027TIP3   OH239495   3.334   1.156  13.361 -0.2044  1.1681  0.6742
 6027TIP3    H139496   3.338   1.154  13.457 -1.6823 -0.0452  0.7453
 6027TIP3    H239497   3.241   1.153  13.341  0.1071 -0.2182 -0.8006
 6028TIP3   OH239498   5.660   2.944   3.129 -0.3248  0.7954 -0.8258
 6028TIP3    H139499   5.689   3.032   3.105 -1.3240  1.3306 -0.1829
 6028TIP3    H239500   5.596   2.959   3.199 -0.1228 -0.4809 -0.3442
 6029TIP3   OH239501   0.102   4.077  13.446  0.2164  0.4447 -0.2314
 6029TIP3    H139502   0.045   4.015  13.491  1.0359 -1.1302 -1.2839
 6029TIP3    H239503   0.042   4.132  13.395 -0.4251 -1.0563 -1.1643
 6030TIP3   OH239504   1.674   1.974   1.476 -0.4421 -0.0237 -0.1846
 6030TIP3    H139505   1.728   1.955   1.399 -1.1578 -0.2368 -0.6412
 6030TIP3    H239506   1.681   1.895   1.530 -0.2455 -0.0242 -0.2104
 6031TIP3   OH239507   4.057   1.742  15.715  0.0007  0.4481  0.5566
 6031TIP3    H139508   4.136   1.765  15.763 -0.8631  1.3959  1.5757
 6031TIP3    H239509   4.086   1.675  15.653  1.7431  1.2917  0.3838
 6032TIP3   OH239510   4.920   5.369   1.257  0.3851 -0.5757  0.3417
 6032TIP3    H139511   4.978   5.366   1.181 -0.7740  1.1871 -0.6885
 6032TIP3    H239512   4.864   5.446   1.242  0.3614  0.0723  3.1686
 6033TIP3   OH239513   0.627   4.093   5.440  0.1377 -0.3957 -0.2654
 6033TIP3    H139514   0.676   4.129   5.366 -0.5940  0.3373 -0.4064
 6033TIP3    H239515   0.537   4.088   5.408 -0.2763  0.3959  0.7445
 6034TIP3   OH239516   6.130   4.795  15.951 -0.3964 -0.2226 -0.4571
 6034TIP3    H139517   6.066   4.864  15.936 -0.0575  0.6775  1.8655
 6034TIP3    H239518   6.091   4.717  15.910 -3.4401  0.0636  1.5187
 6035TIP3   OH239519   3.787   0.630  15.486  0.3114 -0.0996 -0.0429
 6035TIP3    H139520   3.813   0.696  15.421  0.1728 -0.1602 -0.1611
 6035TIP3    H239521   3.773   0.680  15.566 -0.4915  0.1148 -0.3119
 6036TIP3   OH239522   0.328   4.242  12.578 -0.6323 -0.2368 -0.2356
 6036TIP3    H139523   0.338   4.328  12.537 -3.7511 -0.1826 -1.1111
 6036TIP3    H239524   0.325   4.261  12.672  0.9381  0.2859 -0.2534
 6037TIP3   OH239525   5.320   6.234   3.410  0.0067  0.4327 -0.0441
 6037TIP3    H139526   5.364   6.226   3.494  0.0187 -1.0036 -0.1603
 6037TIP3    H239527   5.384   6.202   3.346 -0.4606  0.2674 -0.4423
 6038TIP3   OH239528   1.375   1.466  11.741 -0.1363  0.4922 -0.3107
 6038TIP3    H139529   1.284   1.495  11.742  0.1548  1.4588  0.4807
 6038TIP3    H239530   1.411   1.501  11.660 -0.1392  1.2470  0.0040
 6039TIP3   OH239531   1.118   6.170   1.041 -0.7750 -0.0115  0.0362
 6039TIP3    H139532   1.078   6.162   0.954 -0.6835  0.3899 -0.0501
 6039TIP3    H239533   1.129   6.265   1.052  0.4036 -0.1217 -0.0668
 6040TIP3   OH239534   1.671   1.443   2.968  0.0851 -0.6614  0.8096
 6040TIP3    H139535   1.677   1.518   2.909  4.0058 -2.0740 -0.9039
 6040TIP3    H239536   1.596   1.393   2.934 -0.7100  0.9153  0.1072
 6041TIP3   OH239537   3.937   2.574   5.159 -0.2445 -0.1782 -0.5694
 6041TIP3    H139538   4.022   2.537   5.186  0.1403  1.5108  0.6868
 6041TIP3    H239539   3.878   2.499   5.160  0.6003 -0.8979  1.4693
 6042TIP3   OH239540   2.257   2.453  14.809 -0.3113 -0.2013 -0.5300
 6042TIP3    H139541   2.211   2.378  14.846  0.7157 -0.0160  1.2338
 6042TIP3    H239542   2.350   2.431  14.819  0.0260  1.5985  0.7417
 6043TIP3   OH239543   5.604   4.614  16.390  0.0099  0.0612 -0.2024
 6043TIP3    H139544   5.624   4.526  16.421  0.2941  0.5874  1.1693
 6043TIP3    H239545   5.663   4.628  16.316 -0.7657 -1.2641 -1.1332
 6044TIP3   OH239546   3.950   4.788   5.222  0.0041  0.0696 -0.4431
 6044TIP3    H139547   3.984   4.790   5.133 -0.4987  0.6327 -0.6312
 6044TIP3    H239548   3.866   4.741   5.214  0.1117 -0.1646 -0.2102
 6045TIP3   OH239549   5.794   1.842  14.668  0.0396  0.2229 -0.0941
 6045TIP3    H139550   5.755   1.905  14.729 -0.1111 -0.4646  0.5266
 6045TIP3    H239551   5.725   1.778  14.652  1.7918 -3.0425  3.7839
 6046TIP3   OH239552   4.125   3.595   6.506  0.1286 -0.1348 -0.7943
 6046TIP3    H139553   4.145   3.501   6.502  0.3196 -0.0909 -0.8616
 6046TIP3    H239554   4.121   3.622   6.414 -1.0195 -0.3070 -0.8185
 6047TIP3   OH239555   2.830   1.390  15.192 -0.0530 -0.0315  0.3936
 6047TIP3    H139556   2.795   1.398  15.280 -0.7747  0.7785  0.0445
 6047TIP3    H239557   2.841   1.480  15.162  0.6643 -0.2944 -0.1603
 6048TIP3   OH239558   5.743   0.344   0.851  0.0018 -0.1259 -0.1599
 6048TIP3    H139559   5.709   0.374   0.767  0.3319  1.0403  0.0967
 6048TIP3    H239560   5.767   0.253   0.837  0.6358  0.2258 -1.5066
 6049TIP3   OH239561   2.056   4.374  17.044 -0.6042 -0.0090 -0.0429
 6049TIP3    H139562   2.013   4.455  17.071 -0.2252 -0.5549  2.4153
 6049TIP3    H239563   1.985   4.316  17.019 -0.8747  1.0757 -2.0042
 6050TIP3   OH239564   1.562   6.802  14.891 -0.0261  0.3262 -0.0949
 6050TIP3    H139565   1.486   6.770  14.842  0.9233 -0.9964 -0.7520
 6050TIP3    H239566   1.535   6.797  14.983 -1.7104  2.5360 -0.4003
 6051TIP3   OH239567   4.510   4.585   1.906  0.3680 -0.6430  0.0584
 6051TIP3    H139568   4.571   4.604   1.835 -0.7433 -1.8872 -1.2836
 6051TIP3    H239569   4.532   4.496   1.933 -0.2208 -0.7472  0.2105
 6052TIP3   OH239570   3.443   0.932   0.010  0.5841  0.5765 -0.1894
 6052TIP3    H139571   3.405   0.948   0.097 -2.3619 -0.6060 -1.1311
 6052TIP3    H239572   3.481   0.845   0.017 -1.5140 -0.4390 -0.5548
 6053TIP3   OH239573   4.337   2.685   3.428 -0.2489 -0.4775  0.2263
 6053TIP3    H139574   4.420   2.643   3.451  0.3985 -1.2262 -2.9702
 6053TIP3    H239575   4.359   2.777   3.418  0.0867 -0.5970 -0.1531
 6054TIP3   OH239576   3.721   0.649  16.461 -0.0720  0.0900  0.6598
 6054TIP3    H139577   3.797   0.647  16.402  0.9473  1.1417  1.8704
 6054TIP3    H239578   3.667   0.721  16.428 -0.6622 -0.7765 -0.3143
 6055TIP3   OH239579   2.232   6.766  11.692 -0.1791 -0.7078 -0.8352
 6055TIP3    H139580   2.220   6.850  11.648  0.9662 -0.5626 -0.8922
 6055TIP3    H239581   2.248   6.789  11.784  1.1916 -0.7860 -1.0402
 6056TIP3   OH239582   2.400   2.787  11.300 -0.1600  0.0680 -0.0315
 6056TIP3    H139583   2.444   2.720  11.247 -3.0053 -1.7174 -0.3144
 6056TIP3    H239584   2.426   2.870  11.260  0.8325 -1.0215 -1.7800
 6057TIP3   OH239585   3.183   4.464   1.775 -0.7390  0.0638 -0.4451
 6057TIP3    H139586   3.228   4.463   1.859 -1.3885  1.4587 -0.0469
 6057TIP3    H239587   3.194   4.375   1.741  1.5379  0.1006  0.0110
 6058TIP3   OH239588   6.251   4.439  11.504 -0.1664  0.6029  0.1000
 6058TIP3    H139589   6.169   4.476  11.469 -0.3291  1.3564  1.2214
 6058TIP3    H239590   6.259   4.354  11.462 -2.3894 -0.2057  1.1527
 6059TIP3   OH239591   1.758   5.284  12.403 -0.0810  0.0451  0.5600
 6059TIP3    H139592   1.797   5.368  12.428  2.4104 -0.8669  0.0549
 6059TIP3    H239593   1.689   5.307  12.342  0.1541  1.7621  0.8824
 6060TIP3   OH239594   3.667   1.944   1.074  0.8226  0.0015 -0.1822
 6060TIP3    H139595   3.711   1.859   1.077 -1.4073 -1.2249  0.0528
 6060TIP3    H239596   3.660   1.970   1.166 -0.7369 -0.8491 -0.0246
 6061TIP3   OH239597   4.927   5.610  14.988  0.2571 -0.1092  0.2249
 6061TIP3    H139598   5.022   5.619  14.983  0.3014 -0.9637 -1.1514
 6061TIP3    H239599   4.895   5.700  15.000  1.2583  0.0786  1.6895
 6062TIP3   OH239600   0.410   3.337  12.360  0.2407  0.1629 -0.4833
 6062TIP3    H139601   0.348   3.364  12.293 -1.9110 -3.6173 -0.2915
 6062TIP3    H239602   0.467   3.274  12.316  1.0104  0.2003  0.4351
 6063TIP3   OH239603   5.964   0.869   3.083  0.2320  0.8776 -0.4275
 6063TIP3    H139604   5.879   0.848   3.122  0.9658  0.9689  1.2955
 6063TIP3    H239605   5.948   0.864   2.988 -2.5252  4.0252 -0.3381
 6064TIP3   OH239606   0.781   2.203   3.552  0.2401  0.1166 -0.2839
 6064TIP3    H139607   0.851   2.207   3.618  0.0064 -0.4394 -0.0042
 6064TIP3    H239608   0.817   2.252   3.478  0.2984  1.2161  0.4371
 6065TIP3   OH239609   2.515   6.645  16.949 -0.2225 -0.1756 -0.9348
 6065TIP3    H139610   2.441   6.670  16.894  0.0429 -0.9391 -1.6610
 6065TIP3    H239611   2.531   6.722  17.004 -0.3125  0.7262 -2.1256
 6066TIP3   OH239612   6.742   6.676  14.054  0.4961 -0.2178  0.5755
 6066TIP3    H139613   6.719   6.676  13.961  0.5972 -0.2879  0.5505
 6066TIP3    H239614   6.814   6.613  14.061  0.1021 -0.6521  0.7939
 6067TIP3   OH239615   4.516   3.246  14.162  0.0438  0.2661  0.3343
 6067TIP3    H139616   4.582   3.282  14.220  0.2202  1.7321 -0.7307
 6067TIP3    H239617   4.566   3.206  14.091 -0.2035  0.4110  0.0777
 6068TIP3   OH239618   5.163   1.797  15.565 -0.3430 -0.2065 -0.0691
 6068TIP3    H139619   5.174   1.868  15.628  1.0022  1.0730 -1.6305
 6068TIP3    H239620   5.187   1.718  15.614  1.9637  0.8789  0.7453
 6069TIP3   OH239621   3.172   2.180  17.147 -0.2686 -0.2096 -0.6246
 6069TIP3    H139622   3.098   2.180  17.208 -0.1005 -0.7244 -0.4146
 6069TIP3    H239623   3.249   2.187  17.203 -0.0997 -0.9663 -0.7500
 6070TIP3   OH239624   6.687   1.362  16.134  0.0338  0.0186 -0.1794
 6070TIP3    H139625   6.614   1.416  16.166  0.8576  1.6111 -0.8926
 6070TIP3    H239626   6.660   1.334  16.047  0.8096  1.7821 -1.0276
 6071TIP3   OH239627   2.860   5.164   0.720 -0.4623  0.5527 -0.0724
 6071TIP3    H139628   2.829   5.094   0.778  0.5972  0.4036  0.3341
 6071TIP3    H239629   2.890   5.119   0.641 -0.6908  0.6408 -0.2106
 6072TIP3   OH239630   0.047   0.982  12.470 -0.1106  0.3108 -0.2075
 6072TIP3    H139631  -0.011   1.051  12.436 -1.1253  0.3831  1.5489
 6072TIP3    H239632   0.117   1.030  12.515  0.2757  0.2052 -0.6923
 6073TIP3   OH239633   2.177   2.438   2.531 -0.6173 -0.5219  0.1919
 6073TIP3    H139634   2.136   2.439   2.618 -1.7197 -0.1918 -0.3163
 6073TIP3    H239635   2.267   2.412   2.548 -0.3225  1.2732  1.6431
 6074TIP3   OH239636   2.649   2.209  16.414 -0.2262 -0.6338 -0.1734
 6074TIP3    H139637   2.580   2.175  16.471  0.5885 -1.5651  0.2720
 6074TIP3    H239638   2.607   2.283  16.369 -1.5581 -1.2557 -0.0213
 6075TIP3   OH239639   4.667   4.240  12.590  0.5254  0.6766  0.8982
 6075TIP3    H139640   4.749   4.218  12.547  0.4577  0.6129  0.8030
 6075TIP3    H239641   4.658   4.176  12.661 -0.9918 -1.3461 -0.9924
 6076TIP3   OH239642   1.397   0.633   2.442  0.1339  0.1487 -0.7041
 6076TIP3    H139643   1.452   0.696   2.489 -1.9733  0.8794  0.9208
 6076TIP3    H239644   1.375   0.567   2.508 -0.8726 -0.1718 -1.3429
 6077TIP3   OH239645   0.566   0.261   1.117  0.3757  0.5095 -0.1900
 6077TIP3    H139646   0.587   0.199   1.188 -0.3717  0.9085  0.3977
 6077TIP3    H239647   0.648   0.272   1.070  0.3753 -1.4815 -0.7611
 6078TIP3   OH239648   4.509   6.193  13.139 -0.3745  0.2754 -0.0053
 6078TIP3    H139649   4.462   6.129  13.191 -0.6299  0.5068  0.0529
 6078TIP3    H239650   4.576   6.143  13.093 -0.0135  0.1084  0.7019
 6079TIP3   OH239651   3.747   5.599  11.783  1.0209 -0.3954  0.5406
 6079TIP3    H139652   3.812   5.638  11.842  0.8820  0.7663 -0.0478
 6079TIP3    H239653   3.741   5.661  11.711 -1.7800  0.2395  1.2271
 6080TIP3   OH239654   2.331   4.396   0.019  0.4030 -0.2848  0.3814
 6080TIP3    H139655   2.401   4.336  -0.007 -0.3617 -0.6138 -0.9858
 6080TIP3    H239656   2.290   4.422  -0.063 -0.5064  0.6216  1.1007
 6081TIP3   OH239657   1.767   2.421  14.724 -0.1869  0.2278  0.5601
 6081TIP3    H139658   1.733   2.335  14.746  0.0633 -0.1757 -0.5422
 6081TIP3    H239659   1.844   2.403  14.669  1.0722  1.1349  1.9532
 6082TIP3   OH239660   0.134   6.445  14.374  0.1501  0.1109  0.1053
 6082TIP3    H139661   0.138   6.438  14.470  0.7908 -1.3711 -0.0070
 6082TIP3    H239662   0.148   6.538  14.357 -0.1463  0.4301  1.4527
 6083TIP3   OH239663   6.159   5.436   5.851  0.4851  0.3839 -0.3074
 6083TIP3    H139664   6.131   5.523   5.823 -2.9200 -0.0646  1.1865
 6083TIP3    H239665   6.140   5.380   5.775  0.5501  0.6189 -0.4987
 6084TIP3   OH239666   3.241   3.332  12.815 -0.3626  0.1511  0.0684
 6084TIP3    H139667   3.163   3.350  12.763 -0.2165  0.9516  0.1030
 6084TIP3    H239668   3.311   3.382  12.770 -0.2297  0.8259  0.9998
 6085TIP3   OH239669   0.511   0.044   3.610  0.5705 -0.1998  0.1759
 6085TIP3    H139670   0.441  -0.020   3.604  0.8462 -0.4492 -0.4632
 6085TIP3    H239671   0.466   0.129   3.611  0.2390 -0.3739  0.3919
 6086TIP3   OH239672   6.053   6.343   5.644  0.1734 -0.5162 -0.3643
 6086TIP3    H139673   6.020   6.407   5.708  1.5892 -0.4409  0.3494
 6086TIP3    H239674   6.076   6.267   5.697 -2.1954 -1.9834 -1.2916
 6087TIP3   OH239675   1.035   4.662  12.707  0.2192 -0.0395 -0.4161
 6087TIP3    H139676   1.038   4.723  12.781 -0.2455  0.6282 -0.9390
 6087TIP3    H239677   0.971   4.596  12.733  1.2399 -0.7172  0.4530
 6088TIP3   OH239678   4.519   2.605   1.383 -0.0018  0.8701  0.5776
 6088TIP3    H139679   4.601   2.653   1.384 -0.5292  1.7958  0.6087
 6088TIP3    H239680   4.452   2.671   1.364 -0.7212  0.1102  0.3839
 6089TIP3   OH239681   6.521   0.344   2.349 -0.4718  0.0251 -0.6275
 6089TIP3    H139682   6.547   0.433   2.370  0.8452 -0.4295 -0.2452
 6089TIP3    H239683   6.504   0.345   2.254 -0.8310  0.7561 -0.5565
 6090TIP3   OH239684   4.401   0.536   1.579 -0.1329 -0.5083 -0.2115
 6090TIP3    H139685   4.414   0.628   1.554 -0.8206 -0.3155  0.1087
 6090TIP3    H239686   4.483   0.493   1.555 -0.6252 -0.2839 -2.5096
 6091TIP3   OH239687   3.309   2.431   2.334  0.3549 -0.1757  0.0227
 6091TIP3    H139688   3.388   2.388   2.301 -0.7428 -2.7716  0.5430
 6091TIP3    H239689   3.318   2.427   2.429 -0.2267 -0.1917  0.0807
 6092TIP3   OH239690   5.724   6.771  12.826 -0.4509  0.7660  0.5026
 6092TIP3    H139691   5.775   6.800  12.750 -1.8079 -0.0770 -0.8058
 6092TIP3    H239692   5.778   6.792  12.901  1.1483  1.2593 -0.7259
 6093TIP3   OH239693   1.820   3.217  17.120  0.4932  0.2449  0.9263
 6093TIP3    H139694   1.912   3.209  17.092  0.5136  1.6345  0.5496
 6093TIP3    H239695   1.815   3.303  17.160 -0.9483  0.6968 -0.1733
 6094TIP3   OH239696   5.793   4.417   0.976  0.4475 -0.1989 -0.6261
 6094TIP3    H139697   5.886   4.399   0.987  0.0221 -1.2228  2.5035
 6094TIP3    H239698   5.760   4.343   0.924  1.1033 -0.9000 -0.0736
 6095TIP3   OH239699   2.961   4.940  13.462  0.2564  0.1676  0.0990
 6095TIP3    H139700   2.971   4.871  13.396 -0.6488 -0.1964  0.3342
 6095TIP3    H239701   3.049   4.977  13.470  0.5632 -0.3420 -0.6985
 6096TIP3   OH239702   6.096   0.671   1.374  0.0001  0.0237  0.5216
 6096TIP3    H139703   6.091   0.753   1.423  1.4574  1.0568 -0.9345
 6096TIP3    H239704   6.065   0.694   1.286  0.3130 -1.0104  0.1270
 6097TIP3   OH239705   1.898   4.703  13.146 -0.3704 -0.6926 -0.5544
 6097TIP3    H139706   1.942   4.719  13.062 -0.7754 -1.8680 -1.0052
 6097TIP3    H239707   1.921   4.779  13.200  0.7274 -0.4185 -1.3840
 6098TIP3   OH239708   4.432   5.758  11.464  0.3312  0.0946  0.2870
 6098TIP3    H139709   4.370   5.688  11.485  2.1920 -2.1848 -1.3715
 6098TIP3    H239710   4.518   5.715  11.462  1.2408  1.5903 -4.0332
 6099TIP3   OH239711   1.844   2.976   4.268 -0.9606  0.1333  0.4016
 6099TIP3    H139712   1.773   2.984   4.205 -0.6165  1.3931  0.1428
 6099TIP3    H239713   1.924   2.992   4.217 -0.3058 -2.6534  0.3808
 6100TIP3   OH239714   4.517   3.232   4.648 -0.1361 -0.2989 -0.2583
 6100TIP3    H139715   4.462   3.155   4.661 -2.9331  1.8328  2.2203
 6100TIP3    H239716   4.597   3.213   4.696 -0.5261 -1.8301 -0.1607
 6101TIP3   OH239717   5.872   1.876   0.970  0.5005  0.1585 -0.3025
 6101TIP3    H139718   5.911   1.809   1.025  3.0477  0.5373 -1.4784
 6101TIP3    H239719   5.824   1.827   0.903 -0.0822 -0.3679  0.4789
 6102TIP3   OH239720   0.670   4.027  11.174 -1.0234  0.8083 -0.0139
 6102TIP3    H139721   0.634   3.941  11.151 -1.5338  0.7832  0.8509
 6102TIP3    H239722   0.613   4.088  11.127 -1.7124  0.7319  0.6925
 6103TIP3   OH239723   4.166   6.690  12.926  0.1976  0.1970  0.0168
 6103TIP3    H139724   4.147   6.750  12.854 -2.3807  0.0347  0.4655
 6103TIP3    H239725   4.260   6.701  12.943  0.6577  0.9988 -2.6445
 6104TIP3   OH239726   3.373   1.980  14.219 -0.2143 -0.1850  0.0568
 6104TIP3    H139727   3.321   2.053  14.253  0.4809  0.0356  0.6717
 6104TIP3    H239728   3.441   2.021  14.166 -0.6246 -0.4736 -0.7178
 6105TIP3   OH239729   0.086   3.988   6.110 -0.1265 -0.1222  0.0906
 6105TIP3    H139730   0.094   4.020   6.200 -1.5032 -0.4200  0.3539
 6105TIP3    H239731   0.173   4.000   6.072  0.8329 -1.1011  1.8270
 6106TIP3   OH239732   2.624   4.866  13.690  0.2307 -0.4799  0.2942
 6106TIP3    H139733   2.535   4.830  13.686 -0.2479  0.6113  0.6580
 6106TIP3    H239734   2.652   4.869  13.598 -1.8854  3.2780 -0.4444
 6107TIP3   OH239735   1.427   5.349   3.746  1.1423 -0.1695  0.2669
 6107TIP3    H139736   1.446   5.258   3.771 -1.5049 -0.8402  0.2012
 6107TIP3    H239737   1.365   5.341   3.673  0.8828  1.7010  0.2421
 6108TIP3   OH239738   5.595   6.705   0.537  0.0372 -0.4223  0.3496
 6108TIP3    H139739   5.571   6.758   0.613 -0.7019  1.3355 -1.0515
 6108TIP3    H239740   5.607   6.617   0.572 -1.6558  0.0531  2.2664
 6109TIP3   OH239741   1.537   4.132   4.522  0.4955  0.4290  0.0321
 6109TIP3    H139742   1.466   4.142   4.586  0.9238 -0.2214  0.6241
 6109TIP3    H239743   1.613   4.171   4.565  0.3321  1.8704 -0.9314
 6110TIP3   OH239744   1.756   2.354  11.444  0.5486 -0.3979  0.2152
 6110TIP3    H139745   1.689   2.297  11.406  1.6691 -0.7809 -1.2636
 6110TIP3    H239746   1.775   2.315  11.529 -1.5847  0.1271  1.0053
 6111TIP3   OH239747   1.969   5.966  11.583  0.1916 -0.5247 -0.4669
 6111TIP3    H139748   1.879   5.987  11.607  0.0537  1.0882 -2.1828
 6111TIP3    H239749   2.011   5.944  11.666 -1.5953 -0.6753  0.4530
 6112TIP3   OH239750   2.814   0.336   5.501  0.3510 -0.1845  0.4146
 6112TIP3    H139751   2.775   0.272   5.560 -1.0239  2.1163  2.2118
 6112TIP3    H239752   2.741   0.363   5.444  1.2967 -1.2873 -1.4090
 6113TIP3   OH239753   5.940   3.088  16.712  0.2365  0.1996 -0.6705
 6113TIP3    H139754   6.036   3.090  16.705  0.3193 -2.5739 -1.4442
 6113TIP3    H239755   5.912   3.174  16.680  2.4816  1.4420  0.4788
 6114TIP3   OH239756   6.606   5.091  16.710  0.3922  0.1535 -0.2683
 6114TIP3    H139757   6.621   5.035  16.785  0.5692 -0.8670 -1.0439
 6114TIP3    H239758   6.693   5.123  16.686  0.4051  0.0464 -0.3642
 6115TIP3   OH239759   2.391   6.543  11.648  0.1115  0.4126 -0.4647
 6115TIP3    H139760   2.329   6.615  11.659 -0.6022 -0.3289  0.6191
 6115TIP3    H239761   2.463   6.564  11.707 -0.9804 -0.6493  1.3490
 6116TIP3   OH239762   4.388   3.767   1.354 -0.1533 -0.4051  1.0980
 6116TIP3    H139763   4.324   3.815   1.301 -0.1891 -2.1194 -0.5012
 6116TIP3    H239764   4.359   3.676   1.350  1.0778 -0.8815  2.3246
 6117TIP3   OH239765   0.825   0.508  12.659  0.2816  0.6953  0.1255
 6117TIP3    H139766   0.858   0.484  12.746 -0.8007  1.3323  0.7308
 6117TIP3    H239767   0.808   0.425  12.615  1.4034  0.3605  0.2788
 6118TIP3   OH239768   2.770   1.919   2.730  0.4028  0.6714 -0.5851
 6118TIP3    H139769   2.787   1.858   2.801 -1.0688  0.3280 -0.4997
 6118TIP3    H239770   2.788   2.005   2.768 -0.7541  0.5250  0.3484
 6119TIP3   OH239771   5.697   4.662   5.476  0.0174  0.1587 -0.6009
 6119TIP3    H139772   5.662   4.688   5.561  0.8077 -1.1310  0.1382
 6119TIP3    H239773   5.790   4.682   5.481  0.7104 -2.8231  0.0754
 6120TIP3   OH239774   6.237   3.901   2.898  0.6655  0.0378 -0.3748
 6120TIP3    H139775   6.290   3.845   2.841  1.5400 -1.0348  1.4097
 6120TIP3    H239776   6.161   3.847   2.921 -0.6499  1.1255 -1.9206
 6121TIP3   OH239777   3.214   6.415  17.179  0.0800  0.1004 -0.1092
 6121TIP3    H139778   3.149   6.344  17.184 -0.5959  0.7447  0.4728
 6121TIP3    H239779   3.181   6.473  17.111  1.1490 -0.6264 -1.2835
 6122TIP3   OH239780   4.536   0.385  15.753  0.2265 -0.0324  0.1935
 6122TIP3    H139781   4.484   0.465  15.750  0.4755  0.1417  0.4857
 6122TIP3    H239782   4.477   0.319  15.790  0.3069  0.2381  0.8142
 6123TIP3   OH239783   1.487   1.018   1.392 -0.2708 -0.0888 -0.4105
 6123TIP3    H139784   1.407   1.068   1.404  0.0643  0.3941 -0.1626
 6123TIP3    H239785   1.548   1.054   1.456 -0.0392 -0.8504 -0.1906
 6124TIP3   OH239786   2.998   5.153  12.418  0.1105 -0.2064  0.2222
 6124TIP3    H139787   3.002   5.141  12.513 -0.6268 -0.4963  0.2222
 6124TIP3    H239788   2.924   5.099  12.390 -0.3129  0.6597 -0.3826
 6125TIP3   OH239789   3.788   3.615  13.405  0.5732 -0.4579 -0.0469
 6125TIP3    H139790   3.756   3.527  13.427  0.5856 -0.3675  0.3448
 6125TIP3    H239791   3.744   3.672  13.467  0.2746 -0.1360 -0.5480
 6126TIP3   OH239792   0.386   3.450  13.673 -0.2465  0.3808  0.0668
 6126TIP3    H139793   0.423   3.485  13.754 -0.3581  1.8158 -0.4757
 6126TIP3    H239794   0.389   3.355  13.684  1.9920  0.4743  0.7625
 6127TIP3   OH239795   1.266   6.689   0.964 -0.0328  0.1213 -0.6213
 6127TIP3    H139796   1.318   6.669   0.886  0.9081  0.2668 -0.0500
 6127TIP3    H239797   1.195   6.744   0.932  0.7244  0.7351 -1.2712
 6128TIP3   OH239798   1.647   4.238   1.541  0.0571  0.5853  0.5166
 6128TIP3    H139799   1.606   4.153   1.522 -2.4844  1.3369  2.1417
 6128TIP3    H239800   1.637   4.248   1.636  1.9300  1.9578  0.6167
 6129TIP3   OH239801   1.706   3.655   4.420  0.1775  0.7491 -0.0455
 6129TIP3    H139802   1.686   3.657   4.327  0.4632 -0.6921 -0.1463
 6129TIP3    H239803   1.737   3.744   4.439  0.6299  0.9066 -1.4260
 6130TIP3   OH239804   0.125   0.931  16.663 -0.6582  0.1929 -0.4341
 6130TIP3    H139805   0.037   0.895  16.650 -0.5304  0.0260 -0.8388
 6130TIP3    H239806   0.138   0.926  16.758 -0.1851 -1.9677 -0.5440
 6131TIP3   OH239807   6.700   1.941  13.358  0.6600  0.0556 -0.3718
 6131TIP3    H139808   6.794   1.921  13.357  0.3602 -1.5368  0.5558
 6131TIP3    H239809   6.688   1.992  13.438  0.6858  0.0622 -0.3713
 6132TIP3   OH239810   3.904   3.131   5.861  0.2465  0.2084  0.0143
 6132TIP3    H139811   3.926   3.132   5.768 -0.7198  0.2612 -0.2212
 6132TIP3    H239812   3.950   3.054   5.895 -0.6417 -0.7181 -0.8330
 6133TIP3   OH239813   1.461   1.808   3.123  0.5005  0.1729 -0.3720
 6133TIP3    H139814   1.554   1.788   3.133  0.3224 -0.1185  0.9146
 6133TIP3    H239815   1.418   1.755   3.190 -0.3531  1.9801  0.5943
 6134TIP3   OH239816   1.589   2.671  13.674  0.0525  0.3557 -0.3240
 6134TIP3    H139817   1.539   2.632  13.746 -1.4063  1.1416 -0.8591
 6134TIP3    H239818   1.526   2.677  13.603  0.1707  3.6154 -0.2834
 6135TIP3   OH239819   0.988   2.212  11.034  0.1324  0.4061 -0.0677
 6135TIP3    H139820   0.988   2.117  11.050 -1.9302  0.3209 -0.3275
 6135TIP3    H239821   0.965   2.251  11.118 -2.4159  0.4285 -0.6972
 6136TIP3   OH239822   3.941   2.538   5.852 -0.1290 -0.1124 -0.2113
 6136TIP3    H139823   3.901   2.610   5.902 -1.6772 -0.0337 -1.5066
 6136TIP3    H239824   3.868   2.482   5.827  1.0488 -2.3153  0.9156
 6137TIP3   OH239825   4.043   2.080   4.293 -0.1107  0.4842  0.1567
 6137TIP3    H139826   3.974   2.086   4.358  0.3499  0.1909  0.6858
 6137TIP3    H239827   4.008   2.022   4.225 -0.9143  1.4633 -0.2816
 6138TIP3   OH239828   1.024   5.120   1.146  0.1503  0.7587  0.1815
 6138TIP3    H139829   0.956   5.081   1.090  0.1405 -0.3945  0.9593
 6138TIP3    H239830   0.979   5.190   1.193 -0.2583  0.6331 -0.0118
 6139TIP3   OH239831   0.840   1.739  10.258  0.0449 -0.1701 -0.2856
 6139TIP3    H139832   0.874   1.714  10.344 -1.0059 -0.2619  0.1206
 6139TIP3    H239833   0.745   1.747  10.271  0.0763  1.9495 -0.9047
 6140TIP3   OH239834   3.622   6.727   1.034 -0.0344 -0.3444 -0.3866
 6140TIP3    H139835   3.534   6.731   1.072 -0.0682  0.1328 -0.5003
 6140TIP3    H239836   3.648   6.819   1.025  0.7786 -0.4958  0.3220
 6141TIP3   OH239837   1.461   1.709  16.767 -0.0974 -0.3905  0.3200
 6141TIP3    H139838   1.478   1.771  16.696  0.2710 -1.5508 -0.6264
 6141TIP3    H239839   1.403   1.757  16.826 -2.4294 -0.2027 -1.9636
 6142TIP3   OH239840   5.511   4.889   6.188  0.0520 -0.3569 -0.0893
 6142TIP3    H139841   5.590   4.878   6.241  0.5211  0.1630 -0.6556
 6142TIP3    H239842   5.448   4.828   6.225  0.0921  0.5785  1.5927
 6143TIP3   OH239843   2.568   2.387  11.252 -0.1240 -0.1937 -0.2716
 6143TIP3    H139844   2.529   2.315  11.203  0.3721 -0.7790  0.1925
 6143TIP3    H239845   2.632   2.346  11.310 -0.3383  0.5398  0.5100
 6144TIP3   OH239846   0.232   1.711  15.858  0.0960  0.0259  0.5859
 6144TIP3    H139847   0.268   1.684  15.942 -2.1517 -2.0836  0.9668
 6144TIP3    H239848   0.174   1.785  15.878  1.3054  1.0328  0.4952
 6145TIP3   OH239849   6.683   0.271  12.444  0.0208 -0.1682 -0.3939
 6145TIP3    H139850   6.711   0.346  12.496  1.0838 -0.0092 -1.1410
 6145TIP3    H239851   6.721   0.195  12.489  2.6609  0.1167 -1.9135
 6146TIP3   OH239852   4.902   1.427  16.031  0.5504 -0.5379 -0.7065
 6146TIP3    H139853   4.847   1.350  16.023  0.5433 -0.7858  1.2602
 6146TIP3    H239854   4.906   1.444  16.125  0.3145  2.0258 -1.0864
 6147TIP3   OH239855   1.835   4.615   1.455 -0.7606  0.0493 -0.8401
 6147TIP3    H139856   1.821   4.525   1.427 -0.4624 -0.4175  0.4310
 6147TIP3    H239857   1.919   4.639   1.416 -0.1099 -0.7546  0.0091
 6148TIP3   OH239858   2.695   0.468  11.303  0.0360 -0.0969 -0.3889
 6148TIP3    H139859   2.660   0.425  11.381  0.8091 -1.4813 -0.7826
 6148TIP3    H239860   2.618   0.495  11.253 -0.4591 -0.4163  0.1967
 6149TIP3   OH239861   1.420   2.672  13.204  0.1909  0.0470 -0.2583
 6149TIP3    H139862   1.398   2.765  13.203 -0.5746 -0.1321 -0.7324
 6149TIP3    H239863   1.387   2.638  13.121  0.4145 -0.6650 -0.0680
 6150TIP3   OH239864   0.676   6.627  11.116 -0.0586 -0.1085  0.6770
 6150TIP3    H139865   0.651   6.712  11.079 -2.7462 -0.5001  1.3807
 6150TIP3    H239866   0.739   6.648  11.184  0.6667  1.1354 -0.3288
 6151TIP3   OH239867   3.444   5.350  12.619  0.3334  0.0750  0.1855
 6151TIP3    H139868   3.391   5.428  12.603 -2.8169 -2.0426 -0.8165
 6151TIP3    H239869   3.457   5.349  12.714 -1.0500  0.9715  0.4153
 6152TIP3   OH239870   3.825   4.019  12.679  0.5291 -0.4723  0.0669
 6152TIP3    H139871   3.920   4.012  12.687  0.8811  1.9885 -1.0239
 6152TIP3    H239872   3.801   4.093  12.735 -1.1050 -2.3410  2.0047
 6153TIP3   OH239873   4.703   3.719  13.523 -0.4550  0.2632 -0.2960
 6153TIP3    H139874   4.657   3.667  13.458 -1.2109  0.5124  0.0280
 6153TIP3    H239875   4.736   3.654  13.587 -1.8892  0.2056  0.4176
 6154TIP3   OH239876   3.499   6.048   0.347  0.0461  0.5046  0.0724
 6154TIP3    H139877   3.499   6.077   0.256  0.3095  0.2157 -0.0191
 6154TIP3    H239878   3.417   6.000   0.357 -0.4173  1.3003  0.2359
 6155TIP3   OH239879   4.913   6.467  12.736  0.3651 -0.0760  0.0426
 6155TIP3    H139880   5.000   6.479  12.775 -0.4343  0.1512  1.8731
 6155TIP3    H239881   4.852   6.482  12.808 -1.2688  1.0610 -1.4817
 6156TIP3   OH239882   5.766   5.053   5.129 -0.0939  0.0753  0.1132
 6156TIP3    H139883   5.673   5.066   5.108 -0.4626 -0.7706  1.1500
 6156TIP3    H239884   5.788   4.968   5.090  0.2281  0.2371 -0.0614
 6157TIP3   OH239885   0.076   4.609   1.066  0.8834 -0.5555  0.1340
 6157TIP3    H139886   0.042   4.699   1.063 -0.4587 -1.0686 -1.5228
 6157TIP3    H239887   0.121   4.597   0.983 -0.5070 -1.9569 -0.4686
 6158TIP3   OH239888   6.671   3.789  11.551  0.5976  0.1302 -0.4783
 6158TIP3    H139889   6.649   3.709  11.503  0.5789 -0.2892  0.2002
 6158TIP3    H239890   6.681   3.759  11.642 -0.6649  1.1151  0.0055
 6159TIP3   OH239891   4.938   1.497  15.581 -0.5204 -0.6501 -0.1477
 6159TIP3    H139892   5.008   1.476  15.642  0.0094 -0.2874 -0.6169
 6159TIP3    H239893   4.858   1.476  15.628 -0.0851 -1.5490  0.2197
 6160TIP3   OH239894   5.795   3.998   1.482 -0.2411 -0.1197  0.3016
 6160TIP3    H139895   5.876   3.994   1.533  0.4722 -1.8779 -0.8602
 6160TIP3    H239896   5.799   3.922   1.425 -1.2654  1.4270 -1.9918
 6161TIP3   OH239897   2.030   0.447   3.854  0.6012 -0.2831  0.8519
 6161TIP3    H139898   1.985   0.362   3.847  1.0075 -0.5895  1.8434
 6161TIP3    H239899   2.042   0.475   3.763 -1.9046 -0.0109  0.5412
 6162TIP3   OH239900   1.618   3.045   3.774 -0.8553  0.0334 -0.2807
 6162TIP3    H139901   1.542   3.092   3.739 -1.6230 -2.1889 -1.8200
 6162TIP3    H239902   1.663   3.011   3.697  0.6064 -0.3385  0.7002
 6163TIP3   OH239903   4.034   3.222  13.866  0.5434 -0.0667  0.0122
 6163TIP3    H139904   4.035   3.195  13.957  1.5654  1.5756  0.5327
 6163TIP3    H239905   4.117   3.190  13.830  0.9832  0.8596  0.1763
 6164TIP3   OH239906   0.920   2.786  12.197 -0.1964  0.0724 -0.5560
 6164TIP3    H139907   0.987   2.787  12.264 -0.8721  0.3429  0.1330
 6164TIP3    H239908   0.917   2.695  12.167  0.6380  0.1091 -0.7779
 6165TIP3   OH239909   2.462   2.906   6.140  0.0810  0.5733 -0.3569
 6165TIP3    H139910   2.548   2.872   6.118 -0.5950 -1.2607 -0.3480
 6165TIP3    H239911   2.470   3.001   6.130  1.9925  0.4155 -0.6526
 6166TIP3   OH239912   3.221   0.751  12.939 -0.2145  0.3499  0.4005
 6166TIP3    H139913   3.288   0.799  12.988 -0.7354  0.9186  0.5622
 6166TIP3    H239914   3.239   0.772  12.848  0.0357  0.2266  0.4186
 6167TIP3   OH239915   6.629   0.810   5.419 -0.2338 -0.7582  0.6422
 6167TIP3    H139916   6.605   0.889   5.468  1.0764  0.8272 -1.1164
 6167TIP3    H239917   6.617   0.835   5.327  1.7921 -2.0311 -0.0234
 6168TIP3   OH239918   1.503   1.983  11.370 -0.4665  0.5149  0.2843
 6168TIP3    H139919   1.500   2.032  11.452 -0.9920  0.1227  0.5094
 6168TIP3    H239920   1.565   1.912  11.386 -0.9892  0.1094  0.5365
 6169TIP3   OH239921   4.328   3.045  14.180 -0.7161  0.1622 -0.1990
 6169TIP3    H139922   4.394   3.100  14.137 -1.1898 -1.0952 -2.7097
 6169TIP3    H239923   4.253   3.104  14.192  0.7354  1.6245  2.7485
 6170TIP3   OH239924   0.310   4.733   3.311 -0.2631 -0.3586 -0.0529
 6170TIP3    H139925   0.337   4.738   3.220  3.0531 -2.2459  0.6699
 6170TIP3    H239926   0.287   4.823   3.334  2.4640  0.9185 -1.7822
 6171TIP3   OH239927   1.691   2.961   4.034 -0.5672 -0.0058  0.2038
 6171TIP3    H139928   1.672   2.994   3.946 -1.4554 -1.1651 -0.0688
 6171TIP3    H239929   1.658   2.871   4.033 -1.0843  0.1309  1.8855
 6172TIP3   OH239930   3.463   4.317  14.680  0.3980  0.3179  0.2179
 6172TIP3    H139931   3.441   4.325  14.773 -0.3134 -1.1804  0.2094
 6172TIP3    H239932   3.379   4.320  14.636  0.3486 -2.4370 -0.0662
 6173TIP3   OH239933   0.818   0.527  11.012 -0.3198  0.2191 -0.0809
 6173TIP3    H139934   0.770   0.610  11.007 -0.9857 -0.0982  0.7091
 6173TIP3    H239935   0.910   0.552  11.004 -0.5218  1.0216  0.0261
 6174TIP3   OH239936   3.493   1.423   0.782 -0.0084  0.1945 -0.0746
 6174TIP3    H139937   3.423   1.406   0.719 -1.4908  1.1935  1.2089
 6174TIP3    H239938   3.452   1.479   0.848  2.1163  1.0849  0.5698
 6175TIP3   OH239939   5.049   5.862  14.762  0.2332  0.0512  0.1030
 6175TIP3    H139940   4.994   5.910  14.823  0.1934  0.6398 -0.3944
 6175TIP3    H239941   5.094   5.929  14.711  1.5596 -0.4116  0.6212
 6176TIP3   OH239942   6.031   0.324  11.843 -0.0180  0.3694  0.3317
 6176TIP3    H139943   6.061   0.233  11.846 -0.2712  0.1839 -1.3667
 6176TIP3    H239944   6.043   0.357  11.932  1.5977 -0.8291  0.5917
 6177TIP3   OH239945   1.361   1.017   3.670 -0.2507 -0.2813 -0.0652
 6177TIP3    H139946   1.347   0.974   3.755  3.9186 -0.7489  0.5843
 6177TIP3    H239947   1.333   1.107   3.684 -0.3339 -0.5295  1.5593
 6178TIP3   OH239948   0.348   1.478  17.166  0.2495 -0.2011  0.1485
 6178TIP3    H139949   0.432   1.505  17.132 -0.0135  1.1268  0.5168
 6178TIP3    H239950   0.284   1.531  17.119 -0.1444  1.3511  2.3099
 6179TIP3   OH239951   6.335   5.164  15.988 -0.4021  0.2942 -0.1825
 6179TIP3    H139952   6.422   5.189  16.021  0.2135 -1.0469 -0.6893
 6179TIP3    H239953   6.334   5.068  15.997 -1.8330  0.2910 -0.2080
 6180TIP3   OH239954   5.597   1.548  13.629  0.8406  0.1317  0.6301
 6180TIP3    H139955   5.632   1.623  13.676  0.7901  1.5554 -1.4520
 6180TIP3    H239956   5.659   1.534  13.557  0.5487 -1.4922  0.6581
 6181TIP3   OH239957   3.862   4.387  11.647 -0.3241 -0.1632 -0.6457
 6181TIP3    H139958   3.946   4.434  11.645 -0.2922 -0.0281  1.6516
 6181TIP3    H239959   3.883   4.299  11.616  0.3569  0.2747 -1.4770
 6182TIP3   OH239960   4.193   4.724   4.226  0.0035 -0.0370 -0.1797
 6182TIP3    H139961   4.186   4.819   4.233 -0.6272  0.0069 -1.2262
 6182TIP3    H239962   4.279   4.710   4.185 -0.4445  0.1479 -1.1985
 6183TIP3   OH239963   4.883   5.725  15.446  0.0082 -0.6374 -0.0994
 6183TIP3    H139964   4.854   5.685  15.528 -3.0089  0.0867 -0.6790
 6183TIP3    H239965   4.804   5.729  15.393  1.9425 -1.6071 -3.3212
 6184TIP3   OH239966   0.968   3.105  14.861  0.5956 -0.0026 -0.0454
 6184TIP3    H139967   0.997   3.138  14.775  0.7776  2.0938  0.7658
 6184TIP3    H239968   0.931   3.181  14.905  0.4911 -1.0382  1.7587
 6185TIP3   OH239969   4.479   5.269  13.542  0.2229  0.0323 -0.2810
 6185TIP3    H139970   4.446   5.179  13.536 -0.3163  0.1023  1.2298
 6185TIP3    H239971   4.479   5.288  13.636 -0.8899  2.0516 -0.6340
 6186TIP3   OH239972   1.685   5.048   2.699 -0.5423  0.2919  0.0514
 6186TIP3    H139973   1.748   5.069   2.768  1.1371  0.6004 -1.4884
 6186TIP3    H239974   1.684   4.952   2.696 -1.6775  0.2239  1.3598
 6187TIP3   OH239975   3.922   3.072   1.327  0.0569 -0.6266  0.2602
 6187TIP3    H139976   3.989   3.041   1.267  0.5689  1.5023 -0.3559
 6187TIP3    H239977   3.852   3.105   1.270 -1.3825 -2.4350  0.8897
 6188TIP3   OH239978   5.958   4.861  14.792  0.2477 -0.3382  0.0454
 6188TIP3    H139979   6.046   4.825  14.788  0.2817 -0.2388 -0.0840
 6188TIP3    H239980   5.908   4.809  14.728  0.5097  0.4431 -0.8203
 6189TIP3   OH239981   0.672   6.202   0.831 -0.1049  0.5156 -0.2621
 6189TIP3    H139982   0.690   6.273   0.769 -3.8719  3.7076  1.8450
 6189TIP3    H239983   0.690   6.240   0.917  1.0899 -2.4000  0.9028
 6190TIP3   OH239984   2.093   2.469  15.163 -0.5356 -0.2833  0.8459
 6190TIP3    H139985   2.023   2.495  15.223 -0.4195  1.9832  0.1100
 6190TIP3    H239986   2.153   2.544  15.164  0.4840 -1.0403 -0.5962
 6191TIP3   OH239987   3.904   0.491   4.055 -0.0510 -0.5038  0.1875
 6191TIP3    H139988   3.900   0.517   3.963  0.7574  0.0335  0.2946
 6191TIP3    H239989   3.823   0.525   4.093 -0.1104 -0.2079 -0.1990
 6192TIP3   OH239990   0.277   5.525   0.976 -0.2550  0.5714  0.2914
 6192TIP3    H139991   0.329   5.583   0.921 -0.3762 -1.3214 -1.9622
 6192TIP3    H239992   0.339   5.458   1.005 -0.8596 -0.2200 -0.2127
 6193TIP3   OH239993   1.543   1.906   3.709  0.1021  0.4655 -0.6916
 6193TIP3    H139994   1.634   1.902   3.680  0.2539 -0.7836 -0.1139
 6193TIP3    H239995   1.548   1.938   3.799  0.1128 -0.9990 -0.1515
 6194TIP3   OH239996   4.943   5.163   5.549 -0.8705 -0.1034 -0.0095
 6194TIP3    H139997   4.920   5.245   5.593  0.7842  1.0673 -1.1676
 6194TIP3    H239998   4.859   5.126   5.522 -1.7644  0.3945  1.8658
 6195TIP3   OH239999   3.155   3.369   5.898  0.0699  0.1834  0.7503
 6195TIP3    H140000   3.082   3.313   5.924  0.3930 -1.1862 -1.1354
 6195TIP3    H240001   3.178   3.417   5.978 -2.9346  0.7523  1.3729
 6196TIP3   OH240002   3.979   0.371  13.014 -0.0134 -0.0181 -0.6308
 6196TIP3    H140003   4.063   0.418  13.015  0.3892 -0.7177  0.6835
 6196TIP3    H240004   3.948   0.380  12.923  1.3556  0.4659 -1.0812
 6197TIP3   OH240005   3.416   5.708   4.604 -0.0235 -0.0193 -0.3955
 6197TIP3    H140006   3.455   5.717   4.517  0.5040  2.7153  0.0326
 6197TIP3    H240007   3.423   5.795   4.642 -2.4919 -0.5365  1.4629
 6198TIP3   OH240008   0.036   2.188  12.842  0.3299  0.5694 -0.8802
 6198TIP3    H140009  -0.009   2.271  12.825  1.5435  1.0642 -1.7637
 6198TIP3    H240010   0.039   2.145  12.757  0.3580 -0.0637 -0.5614
 6199TIP3   OH240011   6.363   3.075  14.282  0.1090 -0.3971 -0.2985
 6199TIP3    H140012   6.382   2.998  14.228 -1.0043 -1.1632  0.3500
 6199TIP3    H240013   6.278   3.106  14.251  1.3063  1.6994 -1.7514
 6200TIP3   OH240014   1.705   1.219   4.358 -0.4397 -0.1327 -0.0997
 6200TIP3    H140015   1.656   1.141   4.333 -0.0062 -0.5652  0.3956
 6200TIP3    H240016   1.768   1.189   4.423 -0.0444  0.5651 -0.1449
 6201TIP3   OH240017   2.298   2.790   4.895  0.6824 -0.2675  0.7999
 6201TIP3    H140018   2.380   2.839   4.901 -0.0630  0.9603  1.1461
 6201TIP3    H240019   2.315   2.723   4.829  2.0341 -0.1803  1.0310
 6202TIP3   OH240020   3.069   0.771  15.585  0.1356 -0.0388 -0.0150
 6202TIP3    H140021   2.996   0.797  15.528  0.0818  1.0820  0.5491
 6202TIP3    H240022   3.076   0.676  15.572 -1.1973 -0.1139 -0.3432
 6203TIP3   OH240023   5.506   4.558   4.562  0.0579  0.1837  0.2851
 6203TIP3    H140024   5.474   4.643   4.533  1.8905  1.5725  2.0953
 6203TIP3    H240025   5.455   4.539   4.642  1.1922  0.6800  1.1428
 6204TIP3   OH240026   4.455   6.222  12.105 -0.4295 -0.7786 -0.2493
 6204TIP3    H140027   4.535   6.172  12.089  0.0260  0.2635 -1.3337
 6204TIP3    H240028   4.403   6.210  12.026 -1.0699 -0.9162  0.1847
 6205TIP3   OH240029   5.175   6.598   1.441  0.0730 -0.2988 -0.0732
 6205TIP3    H140030   5.090   6.602   1.485 -0.2583 -2.9365 -0.3032
 6205TIP3    H240031   5.197   6.505   1.440  3.8715  0.4055  1.6108
 6206TIP3   OH240032   0.409   2.748   2.994  0.4871 -0.3123  0.4109
 6206TIP3    H140033   0.342   2.803   2.952  1.4829 -0.7009 -1.8235
 6206TIP3    H240034   0.452   2.806   3.057 -1.6632  0.0408  1.6477
 6207TIP3   OH240035   5.813   5.900  14.859  0.0912  0.0485  0.2197
 6207TIP3    H140036   5.799   5.895  14.765  1.6312 -0.5199 -0.0006
 6207TIP3    H240037   5.898   5.941  14.869 -0.1880  0.3855  1.3860
 6208TIP3   OH240038   4.136   2.465  16.080  0.9210 -0.6322 -0.3604
 6208TIP3    H140039   4.185   2.405  16.024  1.0036 -0.3116 -0.6369
 6208TIP3    H240040   4.071   2.409  16.124  1.6945 -1.0966  0.2104
 6209TIP3   OH240041   4.972   1.085   6.093 -0.2682  0.1474  0.3797
 6209TIP3    H140042   4.902   1.115   6.152 -1.2093 -0.5943 -0.3399
 6209TIP3    H240043   4.972   1.149   6.021  0.8790  1.0510  1.1341
 6210TIP3   OH240044   4.638   5.176   2.254  0.1121 -0.0356 -0.6411
 6210TIP3    H140045   4.654   5.162   2.161 -4.0418 -0.2771 -1.5128
 6210TIP3    H240046   4.596   5.261   2.259  0.6634  0.1849  1.1280
 6211TIP3   OH240047   1.962   6.754   2.956 -0.3693  0.0020 -0.3121
 6211TIP3    H140048   1.875   6.769   2.991 -0.0836 -1.3435  1.0853
 6211TIP3    H240049   2.012   6.832   2.981 -0.7461  0.0279  0.3755
 6212TIP3   OH240050   0.896   5.331  16.844  1.0046  0.2731  0.0620
 6212TIP3    H140051   0.828   5.365  16.902  0.7231 -1.0232  0.5361
 6212TIP3    H240052   0.876   5.370  16.759 -1.0225 -0.8924 -0.0659
 6213TIP3   OH240053   3.694   4.114   0.881  0.0852  0.0932  0.2506
 6213TIP3    H140054   3.606   4.141   0.853  0.1474 -0.9898 -1.0663
 6213TIP3    H240055   3.753   4.180   0.845 -0.0877  0.2383  0.2325
 6214TIP3   OH240056   4.683   4.176   3.991  0.7435 -0.3665  0.9221
 6214TIP3    H140057   4.715   4.184   3.902  3.1004 -0.7856  1.6739
 6214TIP3    H240058   4.591   4.152   3.981  0.8302  0.0467 -1.3709
 6215TIP3   OH240059   1.972   4.214   1.610  0.3522  0.3809 -0.1706
 6215TIP3    H140060   1.966   4.260   1.694 -0.9200 -0.1056  0.0211
 6215TIP3    H240061   1.948   4.280   1.545 -1.8187 -0.0430  0.1318
 6216TIP3   OH240062   0.870   0.107  14.888  0.1399 -0.7387 -0.9050
 6216TIP3    H140063   0.894   0.058  14.967 -1.1856  0.6445  0.4132
 6216TIP3    H240064   0.949   0.156  14.866 -0.0914  0.5662  0.9223
 6217TIP3   OH240065   0.404   2.040   1.156  0.2337 -0.3105 -0.7075
 6217TIP3    H140066   0.446   1.992   1.227  2.0447  0.7327 -0.9988
 6217TIP3    H240067   0.311   2.038   1.176  0.5294 -1.6745  0.6489
 6218TIP3   OH240068   4.307   5.019  12.091  0.0839  0.1336  0.3326
 6218TIP3    H140069   4.333   5.109  12.072 -0.9377  0.0590 -1.7195
 6218TIP3    H240070   4.339   5.003  12.180  2.6924  1.5828 -0.2569
 6219TIP3   OH240071   3.721   6.023  16.714  0.2163 -0.0928  0.1766
 6219TIP3    H140072   3.801   5.972  16.700  0.1626  0.2232 -1.4210
 6219TIP3    H240073   3.663   5.963  16.762 -1.0018 -2.8330 -4.1446
 6220TIP3   OH240074   0.231   5.178  12.292 -0.7845  0.5977 -0.5544
 6220TIP3    H140075   0.275   5.248  12.340  0.7627 -0.1257 -0.8533
 6220TIP3    H240076   0.144   5.173  12.331 -1.1854  3.1283 -0.9818
 6221TIP3   OH240077   5.626   1.158  16.621 -0.3869 -0.6813 -0.2825
 6221TIP3    H140078   5.564   1.231  16.613 -1.6222 -1.6723 -0.0809
 6221TIP3    H240079   5.709   1.194  16.591 -1.1318  0.5890 -0.9193
 6222TIP3   OH240080   1.183   0.429   2.871  0.0603  0.2032  0.1150
 6222TIP3    H140081   1.089   0.447   2.875 -0.0062 -0.2127  0.5835
 6222TIP3    H240082   1.207   0.409   2.962  0.3332 -0.9643 -0.2019
 6223TIP3   OH240083   0.875   1.428   5.427  0.1295 -0.0624  0.2829
 6223TIP3    H140084   0.901   1.359   5.488  1.4072  0.1767  0.0551
 6223TIP3    H240085   0.903   1.396   5.341  1.7339  1.1521  0.2984
 6224TIP3   OH240086   6.219   1.820   4.672  0.1551 -0.2672  0.1726
 6224TIP3    H140087   6.292   1.759   4.684  1.3413  0.9369 -0.5366
 6224TIP3    H240088   6.233   1.886   4.740  0.7920  0.9160 -1.0602
 6225TIP3   OH240089   5.854   5.642   5.248 -1.0488 -0.0074 -0.0562
 6225TIP3    H140090   5.942   5.614   5.224 -0.5766  0.6018  0.8971
 6225TIP3    H240091   5.866   5.729   5.285 -2.0512  0.0621  0.1245
 6226TIP3   OH240092   6.248   1.855   1.960  0.2405  0.2155 -0.2411
 6226TIP3    H140093   6.305   1.887   2.030 -0.3738  0.3324  0.2151
 6226TIP3    H240094   6.159   1.864   1.995 -0.0965  0.5186 -1.1306
 6227TIP3   OH240095   4.531   6.719   3.887  0.2748  0.2301  0.3849
 6227TIP3    H140096   4.514   6.763   3.970 -0.8809 -0.7900  0.7113
 6227TIP3    H240097   4.461   6.749   3.829  0.4184  0.0646  0.1222
 6228TIP3   OH240098   2.998   6.471  15.026  0.0275 -0.2102  0.3729
 6228TIP3    H140099   3.043   6.393  15.059 -0.4769 -0.5298  0.3237
 6228TIP3    H240100   3.064   6.539  15.026  0.4768 -0.6421  0.4225
 6229TIP3   OH240101   5.055   0.360   4.379  0.2628  0.2468  0.6409
 6229TIP3    H140102   5.094   0.333   4.462 -0.4237  0.1119  0.9231
 6229TIP3    H240103   5.100   0.442   4.357 -0.3179  0.8792  1.7148
 6230TIP3   OH240104   4.317   6.687   0.928 -0.5626 -0.3800 -0.1794
 6230TIP3    H140105   4.227   6.699   0.960  0.2321  0.7783  1.8334
 6230TIP3    H240106   4.316   6.721   0.839 -1.7412  1.3713  0.4468
 6231TIP3   OH240107   0.456   6.454  13.033 -0.1749  0.2060  0.1323
 6231TIP3    H140108   0.373   6.413  13.057 -0.1017 -1.1278 -1.6753
 6231TIP3    H240109   0.439   6.548  13.041 -1.1786 -0.0821  1.8344
 6232TIP3   OH240110   5.387   5.074   1.087 -0.3126  0.1122  0.3405
 6232TIP3    H140111   5.450   5.055   1.017 -0.6193 -0.0126  0.0989
 6232TIP3    H240112   5.323   5.003   1.082 -0.3674  0.1319  0.7127
 6233TIP3   OH240113   0.397   2.527   2.866 -0.0669  0.0492 -0.1146
 6233TIP3    H140114   0.435   2.602   2.913 -0.1154  0.3215 -0.5044
 6233TIP3    H240115   0.356   2.566   2.789 -0.2538 -0.3614 -0.2226
 6234TIP3   OH240116   3.774   4.216   2.979 -0.7687  0.1508  0.0444
 6234TIP3    H140117   3.830   4.264   3.039 -0.1204 -2.6952  1.8776
 6234TIP3    H240118   3.829   4.146   2.945 -2.3884 -0.9862 -0.3637
 6235TIP3   OH240119   0.413   0.513  13.877  0.7332  0.7454 -0.4835
 6235TIP3    H140120   0.423   0.438  13.818  0.7665  1.2154 -1.0872
 6235TIP3    H240121   0.462   0.490  13.956 -1.0545 -0.8123  0.2422
 6236TIP3   OH240122   4.358   1.854  16.730  0.0931  0.0547 -0.5832
 6236TIP3    H140123   4.336   1.765  16.704  0.7991 -0.6394  1.0260
 6236TIP3    H240124   4.356   1.904  16.649  2.8172 -2.0431 -2.1385
 6237TIP3   OH240125   1.671   4.427  15.746  0.0024 -0.6201  0.0984
 6237TIP3    H140126   1.635   4.473  15.822 -1.3516  0.3585 -1.0795
 6237TIP3    H240127   1.600   4.368  15.718  0.9196 -1.8448  0.2790
 6238TIP3   OH240128   4.953   1.254  12.299 -0.0570  0.2429 -0.4864
 6238TIP3    H140129   5.035   1.279  12.257  1.3061  1.0613  2.4091
 6238TIP3    H240130   4.970   1.168  12.337 -0.6522  0.2917 -0.0930
 6239TIP3   OH240131   3.302   0.516  17.158  0.1805 -0.1608  0.6541
 6239TIP3    H140132   3.363   0.553  17.222  0.0083  1.7474 -0.2086
 6239TIP3    H240133   3.314   0.570  17.080 -0.7736 -1.3990 -0.3980
 6240TIP3   OH240134   3.054   5.689   6.006  0.5017 -0.3116 -0.0820
 6240TIP3    H140135   3.056   5.783   6.029 -0.6911 -0.3622  0.3426
 6240TIP3    H240136   3.024   5.687   5.915 -2.4917 -0.3200  0.7926
 6241TIP3   OH240137   3.793   0.604   4.395  0.2500  0.0787  0.1315
 6241TIP3    H140138   3.752   0.521   4.419  0.3178  0.3657  1.2763
 6241TIP3    H240139   3.743   0.633   4.318 -2.5334  0.9650  2.0972
 6242TIP3   OH240140   5.181   5.865  16.672  0.4205 -0.0600 -0.4581
 6242TIP3    H140141   5.151   5.857  16.762  2.6565 -1.8007  0.2389
 6242TIP3    H240142   5.254   5.927  16.676  0.9740 -0.6632 -0.9324
 6243TIP3   OH240143   5.634   3.906   2.947  0.2649  0.3985 -0.3500
 6243TIP3    H140144   5.605   3.915   2.856  0.2279  1.4384 -0.2426
 6243TIP3    H240145   5.730   3.907   2.941  0.3075  3.0003 -0.1834
 6244TIP3   OH240146   5.756   2.543   3.871 -0.1155  0.4971 -0.8248
 6244TIP3    H140147   5.735   2.450   3.871  0.1316  0.4088 -2.3198
 6244TIP3    H240148   5.852   2.546   3.869 -0.1205  0.7839 -0.7703
 6245TIP3   OH240149   3.019   0.200   5.418 -0.4778  0.3798 -0.8465
 6245TIP3    H140150   2.947   0.256   5.448 -0.5342  0.2039 -0.6500
 6245TIP3    H240151   2.989   0.166   5.334 -1.1075 -0.5773 -0.2520
 6246TIP3   OH240152   4.460   4.141  11.984  0.0086 -0.7174 -0.1731
 6246TIP3    H140153   4.499   4.220  12.020  0.2837 -0.1969 -1.5345
 6246TIP3    H240154   4.368   4.145  12.009  0.1194 -0.2106  0.1594
 6247TIP3   OH240155   6.730   2.174  12.575  0.2774  0.0525  0.4434
 6247TIP3    H140156   6.818   2.201  12.547  0.0865  0.1417 -0.0922
 6247TIP3    H240157   6.672   2.242  12.541 -0.3456 -1.5130 -1.8525
 6248TIP3   OH240158   1.357   6.058   6.654  0.0494 -0.3460 -1.1067
 6248TIP3    H140159   1.436   6.059   6.600 -0.5214  1.4727 -1.9892
 6248TIP3    H240160   1.290   6.017   6.600 -0.9066  2.7568 -2.5184
 6249TIP3   OH240161   0.841   3.048   5.020 -0.2653 -0.3863 -0.0229
 6249TIP3    H140162   0.919   3.067   5.073 -1.1187  0.6874  0.9183
 6249TIP3    H240163   0.795   3.132   5.017 -2.2889 -1.4046  0.9786
 6250TIP3   OH240164   6.225   3.627   1.713 -0.5084 -0.1754  0.3256
 6250TIP3    H140165   6.320   3.620   1.704 -0.5722  0.7429 -1.5504
 6250TIP3    H240166   6.191   3.552   1.664 -0.7634 -0.3682  0.7931
 6251TIP3   OH240167   4.007   0.149   6.009 -0.2195  0.1810 -0.0030
 6251TIP3    H140168   4.078   0.086   5.995 -1.0498 -0.8971  0.5383
 6251TIP3    H240169   4.052   0.230   6.033  0.8446 -0.4659  0.2726
 6252TIP3   OH240170   3.756   5.472   5.740  0.0026 -0.2267  0.4745
 6252TIP3    H140171   3.732   5.540   5.676  0.1413 -1.0639 -0.4921
 6252TIP3    H240172   3.781   5.521   5.818  2.8203  1.0518 -1.0578
 6253TIP3   OH240173   5.126   0.048   1.766  0.2933 -0.5024  0.0430
 6253TIP3    H140174   5.060   0.000   1.815  0.5471 -0.0266  0.8550
 6253TIP3    H240175   5.076   0.105   1.707 -0.0071 -1.2533 -0.4464
 6254TIP3   OH240176   0.182   6.763  10.805 -0.0707 -0.4270 -0.2344
 6254TIP3    H140177   0.123   6.806  10.867  1.1666  0.3050  0.4753
 6254TIP3    H240178   0.235   6.834  10.769  0.9501 -1.1530 -0.2222
 6255TIP3   OH240179   6.110   2.123  12.933  0.0063 -0.5423 -0.1283
 6255TIP3    H140180   6.142   2.036  12.910 -0.0751 -0.2904 -1.2192
 6255TIP3    H240181   6.023   2.108  12.970  0.8056 -1.1047  1.6129
 6256TIP3   OH240182   6.356   3.260  16.887 -0.0637 -0.2175  0.2008
 6256TIP3    H140183   6.447   3.289  16.882  0.5470 -1.7900  1.2337
 6256TIP3    H240184   6.312   3.303  16.814  1.9034 -0.7717 -1.3847
 6257TIP3   OH240185   6.586   1.697  13.098 -0.0760  0.0502  0.3866
 6257TIP3    H140186   6.509   1.681  13.153  0.7818  0.6323  1.8135
 6257TIP3    H240187   6.554   1.756  13.030 -0.9552  0.0701  0.7982
 6258TIP3   OH240188   6.796   1.353   0.287  0.0956 -0.6618 -0.4990
 6258TIP3    H140189   6.767   1.341   0.377  0.1728  0.3016 -0.3360
 6258TIP3    H240190   6.840   1.271   0.265  1.2050 -0.4300  0.7658
 6259TIP3   OH240191   3.929   2.896  15.011  0.1098 -0.0690 -0.0736
 6259TIP3    H140192   3.913   2.937  14.926 -0.6836 -1.1354 -0.4620
 6259TIP3    H240193   4.018   2.863  15.005  0.2879  0.4265 -0.2367
 6260TIP3   OH240194   4.792   0.326   0.232  0.0158 -0.4586 -0.1165
 6260TIP3    H140195   4.734   0.361   0.301  0.8733  0.5100  0.1447
 6260TIP3    H240196   4.807   0.235   0.257  1.1764  0.1510  1.6217
 6261TIP3   OH240197   3.182   3.339   1.498  0.2242 -0.2831  0.6382
 6261TIP3    H140198   3.196   3.318   1.590 -0.8471  0.2148  0.9228
 6261TIP3    H240199   3.120   3.273   1.467  1.0100 -0.7947  0.1134
 6262TIP3   OH240200   6.092   3.542  15.843 -0.3784  0.1768  0.3411
 6262TIP3    H140201   6.170   3.538  15.899  0.3192 -2.4285 -0.6681
 6262TIP3    H240202   6.120   3.595  15.768  0.0476  0.2446  0.5421
 6263TIP3   OH240203   2.213   2.145   3.062 -0.0325  0.9695 -0.1686
 6263TIP3    H140204   2.139   2.097   3.099  1.2771 -0.6116  0.5229
 6263TIP3    H240205   2.212   2.121   2.969 -0.3410  0.9058 -0.1506
 6264TIP3   OH240206   5.050   2.795  16.536  1.0251  0.0311  0.7443
 6264TIP3    H140207   4.985   2.725  16.538  1.1823 -0.1083  0.9998
 6264TIP3    H240208   5.081   2.802  16.627  0.0597  1.3204  1.0157
 6265TIP3   OH240209   1.715   4.868  11.588  0.0979 -0.0790 -0.0654
 6265TIP3    H140210   1.648   4.936  11.582  1.0470  0.7311 -3.1919
 6265TIP3    H240211   1.796   4.916  11.602  0.2916 -0.9954  2.6861
 6266TIP3   OH240212   4.846   4.760  11.448 -0.0872  0.0412 -0.4363
 6266TIP3    H140213   4.770   4.701  11.448  0.4990 -0.7525  0.2220
 6266TIP3    H240214   4.880   4.754  11.538 -0.2977  1.7878 -0.2072
 6267TIP3   OH240215   2.950   3.989  16.955 -0.2915  0.2873  0.3602
 6267TIP3    H140216   3.039   4.015  16.932 -0.4238  2.5825  2.1076
 6267TIP3    H240217   2.925   3.927  16.887  2.3386  0.1841 -0.6222
 6268TIP3   OH240218   3.155   6.050   4.039 -0.0413  0.3412 -0.0391
 6268TIP3    H140219   3.097   6.114   4.080  0.3341  1.4561 -1.1777
 6268TIP3    H240220   3.242   6.070   4.075  0.2557  1.1985 -1.1784
 6269TIP3   OH240221   1.208   2.266   3.082 -0.9356 -0.3680  0.1408
 6269TIP3    H140222   1.172   2.349   3.113 -0.2032 -0.4424  1.2502
 6269TIP3    H240223   1.144   2.201   3.108 -0.7324 -0.3277  0.7739
 6270TIP3   OH240224   5.705   1.334   1.077 -0.2611 -0.3350  0.1545
 6270TIP3    H140225   5.645   1.326   1.151 -1.2915 -0.3755 -0.6585
 6270TIP3    H240226   5.700   1.249   1.033 -0.1157 -0.1122 -0.2960
 6271TIP3   OH240227   4.766   4.139  15.725  0.6112  0.0881  0.3210
 6271TIP3    H140228   4.746   4.055  15.767  0.3184 -1.1625 -2.1382
 6271TIP3    H240229   4.746   4.125  15.633  0.6924  2.8551 -0.2007
 6272TIP3   OH240230   6.653   2.792   0.660 -0.7564 -0.1789 -0.4841
 6272TIP3    H140231   6.688   2.870   0.617 -1.4062  0.7690  0.6408
 6272TIP3    H240232   6.682   2.719   0.605  1.5024  0.6758 -0.5301
 6273TIP3   OH240233   6.456   3.737   1.002  0.1791  0.2729  0.9718
 6273TIP3    H140234   6.469   3.793   1.078  1.6857  0.6896  0.4355
 6273TIP3    H240235   6.465   3.648   1.036 -0.6282  0.3914  1.5323
 6274TIP3   OH240236   5.806   6.589   5.035 -0.2618  0.0330  0.0067
 6274TIP3    H140237   5.784   6.605   4.943  0.9389 -0.8482 -0.4610
 6274TIP3    H240238   5.902   6.583   5.036 -0.1622  1.2770  1.5350
 6275TIP3   OH240239   1.459   5.162  11.791 -0.0922 -0.2837  0.0247
 6275TIP3    H140240   1.497   5.238  11.835 -1.0683 -0.1104  0.6075
 6275TIP3    H240241   1.365   5.169  11.809 -0.6033 -0.0025 -2.3779
 6276TIP3   OH240242   0.051   2.646  13.189  0.1108 -0.3815 -0.4189
 6276TIP3    H140243   0.101   2.566  13.171  0.7580 -0.1814  0.4220
 6276TIP3    H240244   0.039   2.687  13.103  3.0831  0.5570 -0.4597
 6277TIP3   OH240245   2.022   4.967   0.257 -0.1079 -0.0966 -0.5409
 6277TIP3    H140246   2.063   4.885   0.227  0.5794  0.5134 -1.3168
 6277TIP3    H240247   2.094   5.030   0.259 -0.7457  0.6416 -0.5437
 6278TIP3   OH240248   2.778   0.306   5.941  0.3967 -0.2674  0.2770
 6278TIP3    H140249   2.688   0.328   5.918  0.4284  1.7232  1.7527
 6278TIP3    H240250   2.798   0.228   5.889 -1.9772 -0.4513 -0.4814
 6279TIP3   OH240251   2.165   5.075  13.254 -0.2024  0.1454  0.3715
 6279TIP3    H140252   2.125   5.026  13.325  0.0891 -0.0361  0.4134
 6279TIP3    H240253   2.214   5.010  13.204 -0.3167  0.2892  0.0655
 6280TIP3   OH240254   5.164   1.739  16.491  0.3324  0.3699  0.5071
 6280TIP3    H140255   5.072   1.750  16.516 -0.4588 -0.6479 -1.7033
 6280TIP3    H240256   5.199   1.828  16.490 -1.6432  1.2357 -2.0413
 6281TIP3   OH240257   4.404   3.763   4.895 -0.3293  0.0714 -0.4566
 6281TIP3    H140258   4.347   3.735   4.823 -0.8679  3.3698 -1.4850
 6281TIP3    H240259   4.346   3.810   4.954  0.6278 -0.2315  0.7492
 6282TIP3   OH240260   2.557   0.357   2.470 -0.2591  0.0532 -0.3149
 6282TIP3    H140261   2.483   0.385   2.524  0.9168  1.1388  0.8067
 6282TIP3    H240262   2.534   0.383   2.381 -0.2615  2.5174  0.3461
 6283TIP3   OH240263   6.753   5.135  13.866 -0.6250  0.3751 -0.0110
 6283TIP3    H140264   6.761   5.204  13.932  0.3784  0.1389  0.1388
 6283TIP3    H240265   6.731   5.057  13.916 -0.6891  0.3638 -0.0565
 6284TIP3   OH240266   5.534   1.891  15.148 -0.1968  0.1876  0.0334
 6284TIP3    H140267   5.552   1.802  15.117 -2.2942 -0.1234 -0.4046
 6284TIP3    H240268   5.600   1.945  15.104 -1.1031 -0.6777 -2.5655
 6285TIP3   OH240269   2.048   0.231   2.141 -0.5207  0.8196  0.1587
 6285TIP3    H140270   1.979   0.209   2.079 -1.6584  1.5141  1.1358
 6285TIP3    H240271   2.007   0.223   2.227  0.4775  1.6657  0.7465
 6286TIP3   OH240272   2.448   5.111  12.809 -0.3833 -0.8013 -0.5622
 6286TIP3    H140273   2.437   5.174  12.880  0.9261 -0.4232 -0.6819
 6286TIP3    H240274   2.425   5.160  12.730 -0.2468 -0.7489 -0.5678
 6287TIP3   OH240275   2.075   4.191  12.493 -0.0381  0.4405  0.2521
 6287TIP3    H140276   2.151   4.202  12.436 -0.8889  0.5209 -0.8958
 6287TIP3    H240277   2.004   4.235  12.446 -1.2241 -1.2461  0.4058
 6288TIP3   OH240278   5.783   6.139   3.654  0.0400  0.0600  0.1673
 6288TIP3    H140279   5.749   6.169   3.570 -0.5815  0.2654  0.4853
 6288TIP3    H240280   5.833   6.060   3.633  0.1253  0.2711 -0.4299
 6289TIP3   OH240281   3.397   0.308   4.194 -0.5777 -0.0115  0.2837
 6289TIP3    H140282   3.334   0.238   4.179  0.4686 -1.2179  1.2421
 6289TIP3    H240283   3.432   0.329   4.108 -1.1266 -0.4624 -0.0513
 6290TIP3   OH240284   5.685   3.043  15.591  0.2338  0.1188 -0.3383
 6290TIP3    H140285   5.771   3.016  15.624 -0.0343  0.5034  0.6986
 6290TIP3    H240286   5.631   2.964  15.601  0.6305 -0.3607 -1.6955
 6291TIP3   OH240287   1.153   4.249  16.646 -0.8879 -0.1240 -0.1460
 6291TIP3    H140288   1.233   4.241  16.697 -1.8814  0.6346  1.6241
 6291TIP3    H240289   1.135   4.160  16.616  0.2569 -0.4041 -0.0438
 6292TIP3   OH240290   3.112   5.658  13.291 -0.0135  0.2853  0.0640
 6292TIP3    H140291   3.075   5.668  13.378 -1.0078  0.9846 -0.4205
 6292TIP3    H240292   3.042   5.687  13.232  1.2658  1.4975 -0.8929
 6293TIP3   OH240293   3.783   2.791  16.631 -0.0944 -1.0140 -0.2120
 6293TIP3    H140294   3.796   2.823  16.720  0.7948  0.1052 -0.7139
 6293TIP3    H240295   3.787   2.696  16.639  2.0887 -0.9118  0.6723
 6294TIP3   OH240296   6.275   3.777  16.935  0.2846 -0.3712  0.2268
 6294TIP3    H140297   6.286   3.682  16.928  0.3062 -0.4219  0.8454
 6294TIP3    H240298   6.335   3.802  17.005 -1.3726 -0.2254  1.6564
 6295TIP3   OH240299   2.862   6.691   1.220  0.2343 -0.0137  0.1901
 6295TIP3    H140300   2.940   6.690   1.276  0.9306  0.4724 -0.7302
 6295TIP3    H240301   2.827   6.602   1.225  2.0005 -0.8484 -0.8984
 6296TIP3   OH240302   4.546   0.862  13.945  1.0791 -0.6157 -0.7667
 6296TIP3    H140303   4.543   0.909  14.028  0.3649  0.2798 -1.2738
 6296TIP3    H240304   4.464   0.813  13.942  0.5892  0.2056 -1.3983
 6297TIP3   OH240305   4.174   4.818  10.879 -0.4141  0.7208  0.0685
 6297TIP3    H140306   4.170   4.731  10.840 -1.4966  0.3823  0.8756
 6297TIP3    H240307   4.125   4.874  10.819 -0.1631  0.6662 -0.1874
 6298TIP3   OH240308   2.298   4.689  11.699  0.5236 -0.3111 -0.3759
 6298TIP3    H140309   2.314   4.598  11.727  0.7487  0.0942  0.8907
 6298TIP3    H240310   2.319   4.741  11.777 -2.9102  0.5901  0.1101
 6299TIP3   OH240311   2.062   4.465  11.578 -0.7409 -0.2058  0.4767
 6299TIP3    H140312   2.081   4.440  11.668  0.9655  0.2538  0.2603
 6299TIP3    H240313   2.010   4.392  11.544  1.4869 -2.0432  0.8150
 6300TIP3   OH240314   2.565   5.359  11.386 -0.5330 -0.2859  0.0106
 6300TIP3    H140315   2.488   5.303  11.377  1.3510 -2.8105 -1.7254
 6300TIP3    H240316   2.585   5.388  11.297  0.6996  0.0940  0.3880
 6301TIP3   OH240317   3.847   6.201  16.498  0.0464  0.1759  0.0407
 6301TIP3    H140318   3.826   6.140  16.568  1.6298 -1.1718 -0.5855
 6301TIP3    H240319   3.942   6.200  16.493  0.0938  2.2741 -0.4069
 6302TIP3   OH240320   0.894   3.268   0.845  0.1077  0.5443 -0.6270
 6302TIP3    H140321   0.979   3.308   0.826  0.1380  0.5474 -0.4821
 6302TIP3    H240322   0.865   3.233   0.761  0.0681  0.9018 -0.7641
 6303TIP3   OH240323   6.457   1.064   4.130 -0.6566  0.4304  0.1195
 6303TIP3    H140324   6.375   1.015   4.142 -0.5250 -0.2080 -1.4380
 6303TIP3    H240325   6.525   1.007   4.166 -0.7960  0.6412  0.7347
 6304TIP3   OH240326   1.639   6.347  15.382 -0.1505 -0.1170 -0.3616
 6304TIP3    H140327   1.641   6.328  15.288  2.7193  1.9006 -0.8269
 6304TIP3    H240328   1.698   6.283  15.421 -0.3362 -0.1250 -0.0877
 6305TIP3   OH240329   3.671   3.617   2.698  0.0754 -0.2257 -0.6079
 6305TIP3    H140330   3.678   3.601   2.604 -0.2247 -0.7576 -0.5424
 6305TIP3    H240331   3.614   3.547   2.730 -1.5882  1.1569 -0.3648
 6306TIP3   OH240332   2.928   5.401  13.944 -0.3648  0.1372 -0.2967
 6306TIP3    H140333   2.994   5.444  13.889 -0.2913 -0.9659 -1.0918
 6306TIP3    H240334   2.953   5.308  13.943 -0.7956 -0.0105  1.0040
 6307TIP3   OH240335   2.870   5.474   3.363  0.8391  0.7641  0.1394
 6307TIP3    H140336   2.830   5.432   3.439  0.8464 -0.5378 -0.5554
 6307TIP3    H240337   2.935   5.411   3.331  0.0083  0.7451 -1.6496
 6308TIP3   OH240338   1.496   5.441  16.419  0.0970  0.0657 -0.3007
 6308TIP3    H140339   1.413   5.403  16.388  0.2334 -0.4630 -0.0229
 6308TIP3    H240340   1.563   5.398  16.366  0.1382  1.2399 -1.2490
 6309TIP3   OH240341   3.051   5.761  10.550  0.1008 -0.2176 -0.4281
 6309TIP3    H140342   2.967   5.716  10.562  0.6072 -1.2502 -0.5945
 6309TIP3    H240343   3.036   5.821  10.477 -0.4574 -0.4893 -0.5416
 6310TIP3   OH240344   1.614   5.902  11.161  0.4657  0.4369  0.0632
 6310TIP3    H140345   1.570   5.987  11.154  0.3877  0.4754  0.9443
 6310TIP3    H240346   1.655   5.889  11.075  1.3272  1.8306  0.2343
 6311TIP3   OH240347   0.035   1.052  15.494 -0.4013  0.7486 -0.3767
 6311TIP3    H140348  -0.030   0.983  15.502 -0.7766  0.9112 -1.8949
 6311TIP3    H240349   0.097   1.034  15.565 -0.2972 -1.3500 -0.9375
 6312TIP3   OH240350   2.468   6.659  10.954 -0.1356 -0.1337 -0.2181
 6312TIP3    H140351   2.515   6.625  10.878  0.8164  0.9541 -0.1486
 6312TIP3    H240352   2.389   6.698  10.918  0.3566  0.4618 -0.6782
 6313TIP3   OH240353   3.945   5.933  10.763  0.0559  0.3368  0.9332
 6313TIP3    H140354   3.917   5.842  10.751  1.5520 -0.2378  1.5942
 6313TIP3    H240355   3.892   5.982  10.700  0.8342 -1.2912 -1.1024
 6314TIP3   OH240356   4.355   4.047  15.123 -0.5133  0.0463  0.1453
 6314TIP3    H140357   4.320   3.984  15.186 -2.3099  0.8073 -0.0405
 6314TIP3    H240358   4.428   4.001  15.082  0.2320 -0.7679  2.2000
 6315TIP3   OH240359   5.368   0.934  15.884  0.2878 -0.5701  0.1363
 6315TIP3    H140360   5.454   0.941  15.842 -0.0901  2.5637 -0.3498
 6315TIP3    H240361   5.372   0.998  15.956 -2.1137  0.8763 -0.9058
 6316TIP3   OH240362   0.845   2.743   0.832  0.1846  0.4235 -0.3746
 6316TIP3    H140363   0.830   2.800   0.756  1.1446  3.1251  1.3193
 6316TIP3    H240364   0.933   2.709   0.819  0.5650  1.3208 -0.2394
 6317TIP3   OH240365   0.383   6.703  15.760  0.0311  0.2063  0.1286
 6317TIP3    H140366   0.473   6.672  15.759 -0.8070 -2.4661 -0.2102
 6317TIP3    H240367   0.334   6.632  15.803 -1.7325  2.1951  1.6059
 6318TIP3   OH240368   2.521   1.708   3.978 -0.2587  0.1097 -0.2256
 6318TIP3    H140369   2.434   1.671   3.990 -1.0457  1.7561 -0.6156
 6318TIP3    H240370   2.506   1.795   3.940  1.5919 -0.0071 -1.3839
 6319TIP3   OH240371   1.419   5.342   4.193  0.4078  0.1749 -0.2628
 6319TIP3    H140372   1.366   5.390   4.256  0.3727  0.7244 -0.6962
 6319TIP3    H240373   1.490   5.304   4.244 -1.4529 -2.2726  0.6853
 6320TIP3   OH240374   2.325   1.651  15.664  0.1264 -0.9681  0.3677
 6320TIP3    H140375   2.383   1.659  15.740  1.9221 -0.1768 -1.0051
 6320TIP3    H240376   2.361   1.579  15.613  0.1944 -0.1846 -0.7329
 6321TIP3   OH240377   4.093   6.686  14.980  0.1052 -0.3523 -0.3301
 6321TIP3    H140378   4.141   6.768  14.976  0.4391 -0.2593  3.0000
 6321TIP3    H240379   4.160   6.619  14.997 -0.4719 -0.8195  0.1786
 6322TIP3   OH240380   0.778   2.262  12.016  0.1953  0.5346  0.3348
 6322TIP3    H140381   0.781   2.167  12.031 -1.4747  0.2884 -0.6669
 6322TIP3    H240382   0.708   2.293  12.072 -0.7125  0.8205 -0.9206
 6323TIP3   OH240383   4.404   1.896   5.559  0.4384 -0.0158 -0.5870
 6323TIP3    H140384   4.362   1.811   5.574 -0.5476  0.8671  2.4837
 6323TIP3    H240385   4.366   1.953   5.626  3.5012  1.9750 -0.3323
 6324TIP3   OH240386   2.917   6.775  11.091  0.3876  0.7194  0.5372
 6324TIP3    H140387   2.949   6.796  11.003 -0.2846 -0.8703 -0.1013
 6324TIP3    H240388   2.977   6.708  11.123  2.2610  3.0913  2.4062
 6325TIP3   OH240389   5.510   1.546   4.380 -0.0695  0.4010  0.2423
 6325TIP3    H140390   5.529   1.620   4.437 -1.1717 -0.7784  2.2413
 6325TIP3    H240391   5.415   1.549   4.367  0.2531  1.3097 -2.5919
 6326TIP3   OH240392   1.414   5.468   2.139 -0.7664  0.4375 -0.0066
 6326TIP3    H140393   1.328   5.499   2.110 -0.5125  1.4910  0.3238
 6326TIP3    H240394   1.466   5.548   2.149  0.6733 -0.2528 -1.4609
 6327TIP3   OH240395   0.793   5.192   0.433  0.1168 -0.0599  0.4855
 6327TIP3    H140396   0.792   5.288   0.425  0.8870 -0.0705  0.1152
 6327TIP3    H240397   0.841   5.176   0.514  0.1383 -0.1352  0.4575
 6328TIP3   OH240398   0.344   5.831   5.021 -0.3608  0.2678 -0.0590
 6328TIP3    H140399   0.319   5.804   5.109 -0.7272 -0.5857 -0.4150
 6328TIP3    H240400   0.313   5.760   4.964 -0.0098  0.7411 -0.8591
 6329TIP3   OH240401   4.709   3.908  15.865  0.3417  0.0074  0.4290
 6329TIP3    H140402   4.750   3.897  15.951  0.8946 -1.2747  0.0143
 6329TIP3    H240403   4.681   3.820  15.840  2.3748 -0.1002 -1.7671
 6330TIP3   OH240404   1.352   0.462   2.639  0.3599 -0.0846 -0.7534
 6330TIP3    H140405   1.295   0.430   2.708 -1.5095  0.4337 -1.9892
 6330TIP3    H240406   1.424   0.399   2.636  1.0596  0.4279  2.2956
 6331TIP3   OH240407   2.773   4.849   3.428  0.5008  0.0757  0.1533
 6331TIP3    H140408   2.728   4.896   3.498  1.0983 -0.8195  1.1816
 6331TIP3    H240409   2.704   4.823   3.368 -0.0451  0.7640  0.4678
 6332TIP3   OH240410   3.062   6.113   4.749  0.5735  0.2669  0.2250
 6332TIP3    H140411   3.108   6.162   4.681 -0.9507  1.5930  0.0922
 6332TIP3    H240412   3.102   6.142   4.831  0.0778  1.3370  0.1051
 6333TIP3   OH240413   4.987   5.222  14.024  0.0055 -0.3810  0.0271
 6333TIP3    H140414   4.977   5.178  14.108  0.6139 -2.0120 -0.7097
 6333TIP3    H240415   4.897   5.243  13.997 -0.1216  1.9445  1.9155
 6334TIP3   OH240416   1.932   5.115  13.104 -0.0646 -0.3241  0.0630
 6334TIP3    H140417   2.008   5.114  13.163 -1.2107 -0.5366  1.5835
 6334TIP3    H240418   1.885   5.034  13.124 -1.6991  0.6916  0.4966
 6335TIP3   OH240419   4.085   3.412  11.936  0.0700  0.0528 -0.1062
 6335TIP3    H140420   3.999   3.454  11.941 -0.0419 -0.1763 -0.0750
 6335TIP3    H240421   4.108   3.396  12.027  0.2208  0.2653 -0.1071
 6336TIP3   OH240422   6.057   2.447  13.988  0.8865  0.4986  0.5825
 6336TIP3    H140423   5.981   2.399  14.022  0.8334 -0.0556 -0.2992
 6336TIP3    H240424   6.031   2.475  13.901  1.5134  0.7329  0.4643
 6337TIP3   OH240425   6.522   2.555  13.831 -0.0058  0.1195  0.2662
 6337TIP3    H140426   6.466   2.596  13.897  0.8936  1.2072  0.3799
 6337TIP3    H240427   6.600   2.610  13.827 -0.5928  0.9011 -2.7213
 6338TIP3   OH240428   5.665   0.032  11.825 -0.3713 -0.0744  0.0090
 6338TIP3    H140429   5.738   0.093  11.830 -0.1040 -0.1539 -2.0482
 6338TIP3    H240430   5.593   0.084  11.790 -0.5788 -0.5702 -0.3093
 6339TIP3   OH240431   1.014   0.932  16.283  0.1739  0.2524 -0.2699
 6339TIP3    H140432   1.105   0.958  16.292  0.9973 -2.4075 -0.0690
 6339TIP3    H240433   0.999   0.870  16.355 -2.2158  1.6185  0.5144
 6340TIP3   OH240434   0.733   4.484   2.956  0.1147 -0.3923 -0.0579
 6340TIP3    H140435   0.702   4.575   2.961  0.9610 -0.0898 -0.2479
 6340TIP3    H240436   0.673   4.436   3.013 -1.5618 -0.0656 -1.4293
 6341TIP3   OH240437   4.943   1.517  11.184  0.4551 -0.8544  0.3996
 6341TIP3    H140438   5.029   1.501  11.223  0.9280 -0.9883 -0.6605
 6341TIP3    H240439   4.884   1.458  11.231  0.5713  0.5462  2.3850
 6342TIP3   OH240440   2.674   0.238  13.704  0.1016 -0.3051  0.1996
 6342TIP3    H140441   2.753   0.187  13.723  1.0936  0.8975 -0.4989
 6342TIP3    H240442   2.667   0.299  13.777  1.7705  1.7999 -1.2702
 6343TIP3   OH240443   6.351   4.743   4.157  0.0319  0.5664 -0.9420
 6343TIP3    H140444   6.392   4.805   4.097  0.2748  0.9571 -0.3880
 6343TIP3    H240445   6.420   4.722   4.220 -1.0167  2.4913  0.9865
 6344TIP3   OH240446   0.409   3.220   3.520  0.1072 -0.1556  0.7965
 6344TIP3    H140447   0.486   3.176   3.484  0.1752  0.0848  0.6453
 6344TIP3    H240448   0.370   3.155   3.579  0.1863 -0.4317  0.5510
 6345TIP3   OH240449   6.570   1.136   3.587 -0.3825  0.1467 -0.0192
 6345TIP3    H140450   6.589   1.045   3.607  0.6672  1.0468  3.8990
 6345TIP3    H240451   6.499   1.159   3.646  0.5895  2.3088  0.3983
 6346TIP3   OH240452   4.166   3.437  15.958 -0.1453  0.0776  0.5787
 6346TIP3    H140453   4.163   3.370  15.890  0.2843  0.0042  0.6253
 6346TIP3    H240454   4.260   3.446  15.978 -0.1982  0.7114  0.5476
 6347TIP3   OH240455   3.133   6.562  12.606  0.2942  0.8472  0.3079
 6347TIP3    H140456   3.153   6.649  12.641 -0.2861  0.8662  0.6140
 6347TIP3    H240457   3.191   6.503  12.653 -1.0905  0.7582  2.0110
 6348TIP3   OH240458   2.808   6.627  16.343  0.2698 -0.2060 -0.5506
 6348TIP3    H140459   2.876   6.695  16.343 -0.0757  0.1453 -0.5371
 6348TIP3    H240460   2.760   6.643  16.424 -0.4068  0.1366 -1.0124
 6349TIP3   OH240461   3.140   4.920   5.190  1.1964 -0.2608  0.3951
 6349TIP3    H140462   3.077   4.946   5.123 -0.3986 -0.6841  1.6712
 6349TIP3    H240463   3.142   4.825   5.187  2.2225 -0.2475  0.0126
 6350TIP3   OH240464   0.484   5.760  15.385 -0.0720 -0.1734 -0.6960
 6350TIP3    H140465   0.422   5.807  15.441 -1.2869 -0.7502 -1.5332
 6350TIP3    H240466   0.430   5.700  15.334  1.0538  0.0191 -2.1756
 6351TIP3   OH240467   6.772   3.687  16.340 -0.0063  0.4363  0.0337
 6351TIP3    H140468   6.810   3.606  16.375  1.6315  1.2028  0.1129
 6351TIP3    H240469   6.710   3.716  16.406  0.3389 -0.0832  0.5907
 6352TIP3   OH240470   3.034   4.390  14.193 -0.2299  0.0909 -0.2359
 6352TIP3    H140471   3.124   4.421  14.182  0.1343 -0.3263  1.3163
 6352TIP3    H240472   3.037   4.299  14.161  0.5168 -0.7066  1.9104
 6353TIP3   OH240473   6.577   0.016   3.152  0.4905  0.1952 -0.3520
 6353TIP3    H140474   6.526   0.064   3.217  1.8014  0.8446  0.2368
 6353TIP3    H240475   6.512  -0.033   3.102 -0.8204  1.7946 -0.3217
 6354TIP3   OH240476   0.170   5.742   0.136  0.5120 -0.9282 -0.5762
 6354TIP3    H140477   0.143   5.832   0.155  0.2139 -1.2405  0.6052
 6354TIP3    H240478   0.130   5.690   0.206  0.5011 -2.0159 -1.3603
 6355TIP3   OH240479   5.379   1.132   1.087 -0.1462 -0.3455  0.0464
 6355TIP3    H140480   5.342   1.155   1.002 -0.1908 -0.7963 -0.0578
 6355TIP3    H240481   5.421   1.213   1.117 -3.5329  1.0971  1.4273
 6356TIP3   OH240482   6.346   6.630   1.299  0.0999  0.2536  0.4235
 6356TIP3    H140483   6.429   6.613   1.253 -0.3833 -3.3141  0.5561
 6356TIP3    H240484   6.279   6.601   1.237 -1.1734  3.2319  0.2661
 6357TIP3   OH240485   1.815   5.396   2.711 -0.2261  0.1074  0.2629
 6357TIP3    H140486   1.870   5.422   2.638  1.1680 -2.2555  0.3585
 6357TIP3    H240487   1.726   5.406   2.680  0.2271  2.6725 -0.4047
 6358TIP3   OH240488   3.190   3.299   4.871 -0.0545  0.1509 -0.4856
 6358TIP3    H140489   3.101   3.331   4.885  0.2876  1.4073 -1.0426
 6358TIP3    H240490   3.212   3.328   4.782  0.4237 -1.3369 -0.8819
 6359TIP3   OH240491   1.639   1.675  10.560  0.1669  0.1871  0.3243
 6359TIP3    H140492   1.593   1.648  10.640 -1.5947  1.8250 -0.0699
 6359TIP3    H240493   1.641   1.770  10.564  0.3670  0.2899 -1.4171
 6360TIP3   OH240494   6.536   2.665  11.874  0.2419 -0.4930  0.0309
 6360TIP3    H140495   6.616   2.656  11.823 -0.4459 -1.5330 -0.9325
 6360TIP3    H240496   6.492   2.742  11.838  1.0873  0.4749  1.0048
 6361TIP3   OH240497   1.208   1.769  15.327  0.1778 -0.0232 -0.1424
 6361TIP3    H140498   1.219   1.693  15.385 -0.1315  1.0052  1.3347
 6361TIP3    H240499   1.114   1.775  15.313 -0.3388  2.3801  3.1412
 6362TIP3   OH240500   5.629   2.554  12.387  0.1646 -0.3241 -0.2780
 6362TIP3    H140501   5.608   2.648  12.379  0.1561 -0.2719  0.3186
 6362TIP3    H240502   5.612   2.519  12.300  1.7240  0.5363 -0.9810
 6363TIP3   OH240503   3.669   1.699  11.986 -0.0113 -0.1875 -0.1322
 6363TIP3    H140504   3.605   1.659  11.926 -0.5887 -0.2515  0.5148
 6363TIP3    H240505   3.658   1.650  12.068 -2.3498  2.6389  1.4500
 6364TIP3   OH240506   0.606   5.847   0.190 -0.0164 -0.1957  0.0428
 6364TIP3    H140507   0.672   5.831   0.122 -1.1820  0.4094 -1.2881
 6364TIP3    H240508   0.634   5.793   0.264 -0.5408 -3.7513 -2.1191
 6365TIP3   OH240509   5.454   0.847  14.917 -0.7959  0.0573  0.4034
 6365TIP3    H140510   5.506   0.767  14.927 -0.8462  0.1707  1.9001
 6365TIP3    H240511   5.402   0.833  14.838  1.0467 -0.3113 -0.7954
 6366TIP3   OH240512   4.040   3.041   4.652  0.3049 -0.2362 -0.4067
 6366TIP3    H140513   4.003   2.995   4.577 -0.1377  0.8527 -0.8823
 6366TIP3    H240514   4.011   3.132   4.641  1.3878  0.2240  0.3413
 6367TIP3   OH240515   2.778   2.470   4.756  0.1647 -0.3812 -0.2870
 6367TIP3    H140516   2.817   2.521   4.827  0.2325  0.0146 -0.6002
 6367TIP3    H240517   2.772   2.381   4.789 -0.5432 -0.0463  0.5175
 6368TIP3   OH240518   3.409   6.652   5.951  0.9414 -0.7453 -0.9103
 6368TIP3    H140519   3.314   6.667   5.953  1.1648  0.7178 -0.1971
 6368TIP3    H240520   3.427   6.626   5.861 -0.1433 -1.1138 -1.0363
 6369TIP3   OH240521   0.988   2.363   1.507  0.1221  0.5748  0.1971
 6369TIP3    H140522   1.049   2.436   1.511  1.4764 -0.5795  2.1324
 6369TIP3    H240523   1.027   2.303   1.443 -0.2758  0.9161 -0.3728
 6370TIP3   OH240524   1.297   6.269  16.277 -0.6374  0.5408 -0.4235
 6370TIP3    H140525   1.224   6.287  16.337 -0.6771  2.2042 -0.9062
 6370TIP3    H240526   1.365   6.331  16.304 -0.2760  0.5887 -1.4184
 6371TIP3   OH240527   0.179   3.064   5.164  0.2324 -0.1029 -0.3435
 6371TIP3    H140528   0.093   3.088   5.129 -0.1069 -0.8094 -0.0104
 6371TIP3    H240529   0.169   2.974   5.193  0.4243  0.5077  1.7950
 6372TIP3   OH240530   0.108   4.945  14.171 -0.8153  0.5932 -0.2508
 6372TIP3    H140531   0.076   4.913  14.255 -0.4428  1.1935  0.1231
 6372TIP3    H240532   0.045   5.013  14.146 -2.7103 -1.6140 -1.9537
 6373TIP3   OH240533   4.459   4.920   2.506 -0.3125  0.5062 -0.2674
 6373TIP3    H140534   4.539   4.904   2.454  0.3141  1.2576  0.4305
 6373TIP3    H240535   4.412   4.837   2.503  1.2286 -0.4515  0.5487
 6374TIP3   OH240536   3.904   0.987   4.630  0.1303  0.4969 -0.3161
 6374TIP3    H140537   3.929   1.078   4.612  0.3253  0.2309 -1.4344
 6374TIP3    H240538   3.888   0.949   4.544 -1.2984 -0.1562  0.2109
 6375TIP3   OH240539   4.944   6.066  12.765 -0.5005 -0.1808 -0.2393
 6375TIP3    H140540   4.915   6.070  12.674 -0.9625 -0.3806 -0.1037
 6375TIP3    H240541   4.863   6.063  12.816 -0.3002  2.0019  0.2991
 6376TIP3   OH240542   3.498   5.184   0.640 -0.3037  0.1759 -0.1529
 6376TIP3    H140543   3.490   5.246   0.712 -0.8266 -0.9055  0.7492
 6376TIP3    H240544   3.581   5.138   0.656  1.0003  1.7856 -1.7909
 6377TIP3   OH240545   6.764   1.894   4.543  0.1948  0.0054  0.6803
 6377TIP3    H140546   6.815   1.817   4.568  2.0799  0.7993 -0.5498
 6377TIP3    H240547   6.720   1.867   4.462  0.0193 -0.1074  0.8114
 6378TIP3   OH240548   3.397   2.827  12.049 -0.0901 -0.1987  0.1545
 6378TIP3    H140549   3.350   2.793  11.974 -0.3492 -0.7188  0.5469
 6378TIP3    H240550   3.334   2.884  12.093 -0.0730 -0.2260  0.2138
 6379TIP3   OH240551   4.558   6.775  13.833 -0.9850  0.2728  1.0727
 6379TIP3    H140552   4.469   6.739  13.832 -0.3572 -1.5786 -1.4538
 6379TIP3    H240553   4.613   6.701  13.860  0.0868  0.0510 -1.3913
 6380TIP3   OH240554   1.212   5.751   3.650 -0.0199  0.1916  0.1003
 6380TIP3    H140555   1.273   5.824   3.654 -0.0178  0.2088 -0.2227
 6380TIP3    H240556   1.172   5.748   3.737 -0.3718  0.8797 -0.0358
 6381TIP3   OH240557   4.259   4.958   5.062 -0.8270 -0.2720 -0.3143
 6381TIP3    H140558   4.304   4.884   5.022  1.1749 -0.4906  2.1414
 6381TIP3    H240559   4.219   5.004   4.988  1.2900 -1.5031 -2.3545
 6382TIP3   OH240560   2.456   6.152  12.960  0.0669  0.1099  0.2324
 6382TIP3    H140561   2.374   6.109  12.933 -0.2424  1.0225 -0.3010
 6382TIP3    H240562   2.523   6.112  12.906  0.0456 -0.8841  0.9013
 6383TIP3   OH240563   4.666   4.183  13.837  0.2859  0.1352 -0.1681
 6383TIP3    H140564   4.672   4.144  13.750  1.9499 -2.0315  0.8341
 6383TIP3    H240565   4.593   4.245  13.830  0.4003  0.0784 -3.0823
 6384TIP3   OH240566   2.756   5.647   0.230 -0.1516 -0.1538 -0.2078
 6384TIP3    H140567   2.758   5.552   0.238 -0.0209 -0.1540 -0.2290
 6384TIP3    H240568   2.689   5.665   0.164  0.3116 -0.2690 -0.7173
 6385TIP3   OH240569   5.970   2.512   1.566 -0.0483  0.0752 -0.2063
 6385TIP3    H140570   5.992   2.603   1.586  0.8241  0.0538 -1.0310
 6385TIP3    H240571   6.020   2.492   1.488 -0.6987 -0.9382 -0.3758
 6386TIP3   OH240572   0.694   6.542   2.060  0.0984  0.3638  0.4470
 6386TIP3    H140573   0.651   6.523   2.143  0.9351 -0.1694  0.7823
 6386TIP3    H240574   0.687   6.460   2.011 -1.5915  1.0807 -0.5891
 6387TIP3   OH240575   6.347   2.534   5.452  0.1566  0.2635 -0.0170
 6387TIP3    H140576   6.335   2.450   5.497 -0.0049  0.5835  0.5393
 6387TIP3    H240577   6.270   2.542   5.395 -0.3088  0.4842  0.6406
 6388TIP3   OH240578   3.164   1.476   5.534  0.6302 -0.1052  0.0372
 6388TIP3    H140579   3.096   1.526   5.489  1.9224  1.5261 -0.2157
 6388TIP3    H240580   3.119   1.398   5.566 -0.9498  0.0400 -1.6416
 6389TIP3   OH240581   4.170   0.064  12.679  0.5127  0.2172 -0.3202
 6389TIP3    H140582   4.202   0.154  12.677 -1.4829  0.9643 -1.3631
 6389TIP3    H240583   4.074   0.073  12.679  0.2474 -1.8961  1.0807
 6390TIP3   OH240584   2.549   4.726   4.745  0.0206 -0.7834  0.2550
 6390TIP3    H140585   2.487   4.798   4.757  2.1547  0.8197  2.5987
 6390TIP3    H240586   2.538   4.700   4.654 -0.2281  3.1804 -1.0362
 6391TIP3   OH240587   4.924   0.561   5.521 -0.4097  0.2240  0.6338
 6391TIP3    H140588   4.925   0.543   5.615  0.5205  0.2658  0.6476
 6391TIP3    H240589   4.986   0.497   5.484 -2.1413 -1.0268 -0.2107
 6392TIP3   OH240590   6.515   6.596  12.017 -0.1384  0.1084  0.2867
 6392TIP3    H140591   6.477   6.684  12.006 -0.0894  0.0179 -0.6799
 6392TIP3    H240592   6.465   6.541  11.957  0.8868 -0.2049 -0.2928
 6393TIP3   OH240593   5.982   1.280   2.616  0.5784  0.7762 -0.2622
 6393TIP3    H140594   5.930   1.213   2.572 -1.0975  0.2669  2.2705
 6393TIP3    H240595   6.041   1.231   2.673  1.0830  1.4323 -0.2086
 6394TIP3   OH240596   0.551   0.783  15.583  0.1291  0.5583  0.3637
 6394TIP3    H140597   0.547   0.856  15.520  1.8315 -0.0448 -0.5220
 6394TIP3    H240598   0.628   0.803  15.637  0.3255 -0.3281  0.4232
 6395TIP3   OH240599   2.159   2.552   1.206 -0.2391  0.4869 -0.1477
 6395TIP3    H140600   2.134   2.466   1.172  0.6993 -0.5159  1.5575
 6395TIP3    H240601   2.242   2.572   1.162 -1.0994  1.1803 -1.5342
 6396TIP3   OH240602   2.587   4.691   3.941 -0.4808 -0.2735 -0.3699
 6396TIP3    H140603   2.611   4.691   3.848 -0.4477 -0.3602 -0.3610
 6396TIP3    H240604   2.519   4.758   3.947  0.3804  0.6169 -0.2323
 6397TIP3   OH240605   2.534   1.243  13.010 -0.1978 -0.2488  0.2885
 6397TIP3    H140606   2.591   1.259  13.085  3.4301  0.5830 -2.3828
 6397TIP3    H240607   2.508   1.151  13.019 -0.9523  0.1396  3.0796
 6398TIP3   OH240608   1.614   2.555  14.519  0.3722  0.3313  0.0649
 6398TIP3    H140609   1.647   2.519  14.601  1.7734 -1.7693 -1.3266
 6398TIP3    H240610   1.527   2.516  14.510  0.5642 -0.1132  0.1281
 6399TIP3   OH240611   3.790   6.166   4.322  0.0288 -0.0538 -0.4548
 6399TIP3    H140612   3.779   6.096   4.258  0.8078 -1.1535  0.5518
 6399TIP3    H240613   3.877   6.151   4.359 -0.6681  0.0791  1.3618
 6400TIP3   OH240614   1.194   3.773  11.408  0.6167  0.0933  0.3173
 6400TIP3    H140615   1.251   3.777  11.484  1.7147 -1.9585 -0.3048
 6400TIP3    H240616   1.120   3.719  11.436  1.2593 -1.0736 -0.1604
 6401TIP3   OH240617   5.517   0.462  15.505  0.0841 -0.4922  0.3239
 6401TIP3    H140618   5.548   0.545  15.540 -1.0458 -0.3255  0.9604
 6401TIP3    H240619   5.505   0.478  15.412 -0.5458  0.1966  0.5170
 6402TIP3   OH240620   1.541   4.253  12.933  0.2789 -0.0900 -0.7486
 6402TIP3    H140621   1.492   4.177  12.963 -2.1254  0.5941 -2.5879
 6402TIP3    H240622   1.479   4.326  12.937  1.9999  1.4627 -0.5817
 6403TIP3   OH240623   3.771   0.446  13.176 -0.7745 -0.2290  0.3241
 6403TIP3    H140624   3.715   0.369  13.175 -1.5570  0.3147  1.0985
 6403TIP3    H240625   3.841   0.426  13.113 -1.9809 -0.8010 -0.8802
 6404TIP3   OH240626   6.513   1.285   4.353  0.1684  0.2112 -0.1298
 6404TIP3    H140627   6.448   1.220   4.329  1.2909 -0.2510 -2.1297
 6404TIP3    H240628   6.596   1.237   4.353  0.9009  1.4130 -0.7506
 6405TIP3   OH240629   1.307   3.295  14.801  0.1936 -0.1164 -0.3470
 6405TIP3    H140630   1.342   3.384  14.797 -0.4030  0.0798 -1.4693
 6405TIP3    H240631   1.253   3.287  14.723 -0.5428 -1.1403  0.2521
 6406TIP3   OH240632   3.838   2.176   0.996  0.3678  0.9440  0.0762
 6406TIP3    H140633   3.887   2.151   0.918 -0.5123  0.7386 -0.4139
 6406TIP3    H240634   3.765   2.115   1.000 -0.7813  2.2673 -0.1209
 6407TIP3   OH240635   0.951   1.080  12.841 -0.3406 -0.8334  0.2199
 6407TIP3    H140636   0.939   1.023  12.917 -1.9935 -0.9723 -0.1063
 6407TIP3    H240637   0.956   1.020  12.767 -0.2176 -0.6422  0.0726
 6408TIP3   OH240638   5.513   0.458  16.352 -0.2812 -0.1598  0.1873
 6408TIP3    H140639   5.559   0.536  16.320 -2.8002  1.3829  0.0172
 6408TIP3    H240640   5.536   0.453  16.445 -0.5064  1.1750  0.3430
 6409TIP3   OH240641   4.361   1.351   3.139  0.0478 -0.0156  0.4264
 6409TIP3    H140642   4.416   1.414   3.093  0.2171 -1.0977 -0.9084
 6409TIP3    H240643   4.280   1.400   3.159  0.5012  0.8559  0.1829
 6410TIP3   OH240644   1.747   1.970  16.991 -0.5186  0.1465 -0.3574
 6410TIP3    H140645   1.764   1.887  16.947 -3.1765  0.1186 -1.4637
 6410TIP3    H240646   1.702   2.023  16.926 -0.2612  1.9046  0.8355
 6411TIP3   OH240647   6.160   4.037   3.324 -0.4109  0.1752 -0.3190
 6411TIP3    H140648   6.197   3.950   3.337  0.7229  0.9532  2.6353
 6411TIP3    H240649   6.212   4.075   3.253  0.6996 -0.7488 -0.0248
 6412TIP3   OH240650   4.648   3.682   5.029  0.2268 -0.3377  0.4483
 6412TIP3    H140651   4.588   3.613   5.058 -1.5878  0.9147 -0.1174
 6412TIP3    H240652   4.597   3.733   4.966  1.7705  1.0385  0.2366
 6413TIP3   OH240653   5.428   3.542  12.426 -0.7215 -0.4741  0.3175
 6413TIP3    H140654   5.340   3.568  12.451  0.0173  1.9505  0.6829
 6413TIP3    H240655   5.442   3.585  12.342  0.2018 -0.6170  0.3896
 6414TIP3   OH240656   2.741   2.168   5.405  0.5848 -0.4229  0.0443
 6414TIP3    H140657   2.778   2.190   5.491  0.4039  0.1701 -0.0228
 6414TIP3    H240658   2.816   2.149   5.351  0.6267 -2.8938  0.8696
 6415TIP3   OH240659   1.259   0.655  14.727 -0.9123  0.2769  0.6677
 6415TIP3    H140660   1.223   0.742  14.712 -2.4063 -0.5468 -0.8787
 6415TIP3    H240661   1.206   0.617  14.796  0.3445  0.8898  2.0178
 6416TIP3   OH240662   1.293   4.482  15.830  0.2930 -0.2616  0.2306
 6416TIP3    H140663   1.294   4.403  15.777 -0.9647  1.1009 -1.9963
 6416TIP3    H240664   1.204   4.486  15.866  0.0969  0.5213 -0.3219
 6417TIP3   OH240665   2.629   4.746   0.379  0.2189  0.3070 -0.1378
 6417TIP3    H140666   2.556   4.703   0.333 -1.1697 -0.9263  2.9738
 6417TIP3    H240667   2.586   4.812   0.434  1.3918 -0.4766  1.8071
 6418TIP3   OH240668   2.331   4.602  14.696 -0.0308  0.2355 -0.6057
 6418TIP3    H140669   2.265   4.541  14.664 -1.4706  1.4543 -0.1179
 6418TIP3    H240670   2.394   4.548  14.743 -1.2670 -0.8655 -0.1738
 6419TIP3   OH240671   6.159   3.648   1.118  0.7991  0.2501  0.7919
 6419TIP3    H140672   6.237   3.699   1.097  0.5935  0.2354 -0.0392
 6419TIP3    H240673   6.086   3.710   1.108  0.7222  0.3451  1.8648
 6420TIP3   OH240674   0.750   5.393   4.456  0.1458  0.3559 -0.3873
 6420TIP3    H140675   0.758   5.351   4.542  1.9166  1.5520  0.0885
 6420TIP3    H240676   0.736   5.320   4.395  1.1573 -0.7517  0.6429
 6421TIP3   OH240677   0.029   2.362  13.716 -0.1335  0.3158  0.7219
 6421TIP3    H140678   0.031   2.412  13.635 -0.1376  1.3614  1.3496
 6421TIP3    H240679   0.091   2.290  13.702 -0.5435  0.1689 -0.3933
 6422TIP3   OH240680   0.202   1.209   0.457  0.2076 -0.1914  0.3736
 6422TIP3    H140681   0.204   1.114   0.445  1.5456 -0.4284  2.0359
 6422TIP3    H240682   0.287   1.239   0.424  0.0102  0.3590  0.3542
 6423TIP3   OH240683   5.975   6.800   1.238 -0.3717 -0.1561 -0.0456
 6423TIP3    H140684   5.947   6.805   1.330  0.9617 -1.7773  0.4999
 6423TIP3    H240685   5.951   6.885   1.202  0.7013  1.2606  2.2938
 6424TIP3   OH240686   0.982   2.558  14.460 -0.0553  0.3292  0.5823
 6424TIP3    H140687   0.910   2.518  14.509  0.7338  0.8257  2.2196
 6424TIP3    H240688   1.015   2.627  14.518  2.6215 -0.7694  0.5109
 6425TIP3   OH240689   3.203   2.553   1.636 -0.0238 -0.1601  0.6864
 6425TIP3    H140690   3.219   2.460   1.618 -1.1779  0.1523 -2.4832
 6425TIP3    H240691   3.268   2.600   1.584 -0.7107  0.8258  0.6822
 6426TIP3   OH240692   5.890   3.029   2.622 -0.4678  0.0289  0.2515
 6426TIP3    H140693   5.975   3.068   2.601 -0.0987 -0.8021  0.1559
 6426TIP3    H240694   5.885   2.951   2.567 -2.2276  1.1617 -1.3256
 6427TIP3   OH240695   3.757   4.285  13.575  0.4790 -0.3473 -0.0702
 6427TIP3    H140696   3.677   4.248  13.539  1.1347 -2.6501  0.6937
 6427TIP3    H240697   3.825   4.261  13.512  0.9490 -0.6549  0.5435
 6428TIP3   OH240698   1.286   6.131   2.695 -0.1613 -0.2133 -0.5733
 6428TIP3    H140699   1.321   6.080   2.621 -0.5999  1.2433 -1.8484
 6428TIP3    H240700   1.361   6.184   2.724 -0.0054 -0.7427  0.0157
 6429TIP3   OH240701   6.163   4.899   5.268 -0.5077  0.6919  0.2626
 6429TIP3    H140702   6.239   4.849   5.239 -0.7507 -0.0374  0.8529
 6429TIP3    H240703   6.108   4.908   5.190 -0.9963 -0.9419  0.3911
 6430TIP3   OH240704   5.546   6.720  12.476 -0.1938  0.5843  0.5783
 6430TIP3    H140705   5.616   6.656  12.478  0.6712  1.4904  0.3575
 6430TIP3    H240706   5.518   6.728  12.567  0.5646  0.8115  0.8014
 6431TIP3   OH240707   0.264   3.651  12.043  0.5271 -0.1092  0.5166
 6431TIP3    H140708   0.248   3.744  12.032 -0.7098 -0.3870 -0.2238
 6431TIP3    H240709   0.272   3.616  11.955  0.6956 -0.7531  0.7753
 6432TIP3   OH240710   3.048   0.000   2.163  0.4092 -0.1258  0.4885
 6432TIP3    H140711   3.116   0.019   2.098 -0.2715 -0.4513 -0.3435
 6432TIP3    H240712   3.034  -0.094   2.157  2.0012 -0.5971  2.8328
 6433TIP3   OH240713   4.112   2.629   1.382 -0.2719 -0.4175 -0.4011
 6433TIP3    H140714   4.099   2.618   1.476 -0.6066 -2.3782 -0.6261
 6433TIP3    H240715   4.089   2.543   1.344  2.3018 -0.5190 -1.9930
 6434TIP3   OH240716   3.312   6.685   5.227  0.1472 -0.2507  0.3998
 6434TIP3    H140717   3.218   6.686   5.209 -0.3672 -0.8261  2.7090
 6434TIP3    H240718   3.325   6.756   5.289  1.6325  1.0377 -1.2656
 6435TIP3   OH240719   0.898   6.730   4.881  0.0429 -0.2711 -0.5219
 6435TIP3    H140720   0.852   6.662   4.833  1.1656 -1.3020 -0.1826
 6435TIP3    H240721   0.862   6.726   4.969 -1.2611  0.9101 -0.9574
 6436TIP3   OH240722   5.377   0.428  13.184  0.1602 -0.5214  0.0903
 6436TIP3    H140723   5.334   0.482  13.250  2.7239  0.7364  0.8510
 6436TIP3    H240724   5.468   0.458  13.183  0.6275 -1.6686 -2.8237
 6437TIP3   OH240725   5.211   2.866  13.349  0.0421  0.7416  0.2668
 6437TIP3    H140726   5.172   2.809  13.284  1.4203  0.5007 -0.3787
 6437TIP3    H240727   5.223   2.811  13.426  1.3796  0.1271 -0.3581
 6438TIP3   OH240728   6.310   3.573  11.873 -0.2800  0.2903 -0.4660
 6438TIP3    H140729   6.295   3.521  11.952 -1.3262 -0.1928 -0.9673
 6438TIP3    H240730   6.315   3.664  11.904 -1.1455  0.1508  0.1051
 6439TIP3   OH240731   1.269   3.938   1.565  0.2795 -0.2826 -0.0386
 6439TIP3    H140732   1.240   3.847   1.559  0.7799 -0.4178 -0.5027
 6439TIP3    H240733   1.212   3.977   1.631 -1.3225 -0.3982 -1.2840
 6440TIP3   OH240734   1.238   0.797  12.040  0.1749  0.4073  0.3129
 6440TIP3    H140735   1.171   0.821  11.975 -1.6053 -1.5477  1.3073
 6440TIP3    H240736   1.306   0.752  11.990 -1.0490 -0.8380 -0.2907
 6441TIP3   OH240737   3.031   2.765  11.749  0.0688  0.0629  0.1576
 6441TIP3    H140738   2.982   2.844  11.771  1.6962  1.3998 -0.8043
 6441TIP3    H240739   2.978   2.721  11.683 -0.2003  1.1102 -0.3437
 6442TIP3   OH240740   2.573   1.644   3.037 -0.4330  0.3332  0.3830
 6442TIP3    H140741   2.549   1.553   3.018  1.5873  0.0121 -0.8000
 6442TIP3    H240742   2.521   1.666   3.115 -2.3291 -1.2003 -0.3596
 6443TIP3   OH240743   1.670   5.609   1.142  0.1870  0.1564 -0.1631
 6443TIP3    H140744   1.708   5.628   1.227  1.0287 -0.2628 -0.4375
 6443TIP3    H240745   1.687   5.516   1.128 -1.3614 -0.1635 -0.0917
 6444TIP3   OH240746   1.818   5.913   4.567  0.0252  0.9078 -0.2533
 6444TIP3    H140747   1.876   5.898   4.492 -0.7812 -1.3129 -0.5161
 6444TIP3    H240748   1.736   5.942   4.527  0.1073  1.3428 -0.1027
 6445TIP3   OH240749   0.334   5.724   1.659  0.3966  0.1558  0.0410
 6445TIP3    H140750   0.252   5.678   1.679  0.4219  0.5417  1.0511
 6445TIP3    H240751   0.312   5.780   1.584 -0.1003 -0.1996 -0.0835
 6446TIP3   OH240752   2.375   6.543   4.691  0.5681 -0.2246 -0.3051
 6446TIP3    H140753   2.422   6.473   4.646  0.4576 -1.5313  1.5025
 6446TIP3    H240754   2.282   6.526   4.673  0.5710 -0.1406 -0.4029
 6447TIP3   OH240755   1.557   3.831  12.981  0.5389  0.1174  0.3046
 6447TIP3    H140756   1.508   3.901  12.937  1.0955  0.8127  0.7581
 6447TIP3    H240757   1.626   3.877  13.029  0.6657 -0.7196  0.9473
 6448TIP3   OH240758   4.659   4.477   0.616  0.4437  0.8066 -0.1257
 6448TIP3    H140759   4.567   4.466   0.638  0.8671  0.3314  1.6036
 6448TIP3    H240760   4.675   4.416   0.544 -0.5522  0.8268 -0.3727
 6449TIP3   OH240761   2.481   2.454  13.551 -0.2979 -0.1368  0.7626
 6449TIP3    H140762   2.538   2.428  13.624 -0.5145  0.5303  1.1704
 6449TIP3    H240763   2.542   2.479  13.482 -0.0778  1.0216  1.3559
 6450TIP3   OH240764   0.868   1.971  15.915  0.3275  0.4695  0.0544
 6450TIP3    H140765   0.828   2.041  15.863  0.1941  0.2686 -0.1187
 6450TIP3    H240766   0.959   1.997  15.925  0.6718 -0.0941 -1.3652
 6451TIP3   OH240767   5.874   4.149   1.124 -0.0565 -0.1314 -0.4290
 6451TIP3    H140768   5.909   4.114   1.042 -0.4313 -1.1749 -0.1619
 6451TIP3    H240769   5.789   4.106   1.135  1.1997 -2.2938  1.9229
 6452TIP3   OH240770   6.699   6.463  16.311  0.2039 -0.0050  0.0777
 6452TIP3    H140771   6.793   6.472  16.296  0.0230  0.5621 -0.7938
 6452TIP3    H240772   6.659   6.506  16.236 -0.7572  1.5553  1.4320
 6453TIP3   OH240773   3.283   0.127   2.363 -0.6144  0.6710 -0.6944
 6453TIP3    H140774   3.319   0.080   2.438  0.8690  0.6275 -1.3986
 6453TIP3    H240775   3.188   0.114   2.370 -0.3209 -2.0600 -0.6186
 6454TIP3   OH240776   2.223   1.154   5.705 -0.0583 -0.4455  0.4721
 6454TIP3    H140777   2.151   1.099   5.675  0.1336  0.6988 -2.4632
 6454TIP3    H240778   2.184   1.210   5.772 -2.4390  1.1336 -2.0143
 6455TIP3   OH240779   6.115   1.329   0.128 -0.2027  0.4600  0.3892
 6455TIP3    H140780   6.187   1.363   0.074 -0.2976  2.0443  1.2174
 6455TIP3    H240781   6.099   1.241   0.093  2.1601  0.0262  0.2081
 6456TIP3   OH240782   3.018   6.494  10.875  0.2673 -1.0299  0.0268
 6456TIP3    H140783   2.959   6.557  10.835  0.8089 -1.8395 -2.1714
 6456TIP3    H240784   2.965   6.449  10.940 -0.3796  1.0055  0.9977
 6457TIP3   OH240785   5.524   6.370   4.688 -0.1827  0.4511  0.2655
 6457TIP3    H140786   5.471   6.299   4.723  0.5000  0.6354  1.7516
 6457TIP3    H240787   5.527   6.435   4.758 -1.3125  2.2680 -1.2899
 6458TIP3   OH240788   0.429   2.142   4.002  0.5126 -0.0876 -0.2474
 6458TIP3    H140789   0.488   2.170   3.932 -0.5825 -0.5198 -1.3859
 6458TIP3    H240790   0.386   2.064   3.968 -0.7322  0.2265  0.5107
 6459TIP3   OH240791   3.257   0.008  16.277  0.1532  0.2011 -0.4140
 6459TIP3    H140792   3.322   0.051  16.333  0.3152 -0.7894  0.1857
 6459TIP3    H240793   3.293  -0.079  16.262 -1.2854 -0.5699  0.4089
 6460TIP3   OH240794   5.205   2.150  13.151 -0.0864 -0.0900 -1.1452
 6460TIP3    H140795   5.149   2.219  13.188 -0.0231 -0.8396  0.4288
 6460TIP3    H240796   5.290   2.193  13.139  0.2677 -0.1219  0.8754
 6461TIP3   OH240797   4.056   1.366  11.405 -0.1283 -0.0377  0.3445
 6461TIP3    H140798   4.064   1.333  11.315 -1.7303 -0.8924  0.4677
 6461TIP3    H240799   3.972   1.331  11.435  0.5526 -0.0853  2.3165
 6462TIP3   OH240800   2.344   6.164  17.097 -0.2022  0.3839  0.3695
 6462TIP3    H140801   2.428   6.205  17.073 -0.3006 -0.1475 -0.9936
 6462TIP3    H240802   2.279   6.229  17.071 -0.2879 -0.0166 -0.4705
 6463TIP3   OH240803   3.069   0.930  11.891 -0.1332  0.1530  0.5314
 6463TIP3    H140804   3.158   0.951  11.919 -0.2182  1.3674 -0.0592
 6463TIP3    H240805   3.047   0.850  11.940  0.3039  1.2880  2.7015
 6464TIP3   OH240806   2.340   2.286   4.644 -0.5348 -0.0968  0.2458
 6464TIP3    H140807   2.303   2.261   4.560  0.8300 -2.4587  0.2458
 6464TIP3    H240808   2.431   2.309   4.623  0.6038 -3.1068  1.2200
 6465TIP3   OH240809   5.109   6.269  14.775  0.2780 -0.5702 -0.5831
 6465TIP3    H140810   5.178   6.273  14.842 -0.7385 -0.1615  0.4842
 6465TIP3    H240811   5.122   6.184  14.733 -0.4267 -1.9363  1.7307
 6466TIP3   OH240812   5.646   5.057   6.001  0.6002  0.4527  0.2555
 6466TIP3    H140813   5.584   5.008   6.055 -0.6590 -0.3981 -1.8275
 6466TIP3    H240814   5.689   4.990   5.947 -0.9768  1.4752 -2.4870
 6467TIP3   OH240815   3.284   3.780   3.829  0.1009  0.6646  0.0499
 6467TIP3    H140816   3.370   3.821   3.838  0.7739 -0.7503  0.4353
 6467TIP3    H240817   3.222   3.851   3.840  1.2267  1.9249 -1.3590
 6468TIP3   OH240818   6.724   2.843  12.089  0.1320 -0.0662  0.2376
 6468TIP3    H140819   6.695   2.924  12.047  1.6983  0.3806 -0.0478
 6468TIP3    H240820   6.787   2.805  12.027  1.0339 -0.3874  1.3032
 6469TIP3   OH240821   3.182   4.642  15.633  0.0125  0.2084 -0.4298
 6469TIP3    H140822   3.097   4.681  15.612 -0.4953  0.5530  1.9702
 6469TIP3    H240823   3.232   4.713  15.673  1.2035 -0.1861 -1.1524
 6470TIP3   OH240824   4.614   3.613   1.655 -1.0552 -0.3481  0.2021
 6470TIP3    H140825   4.545   3.679   1.654  0.8576  1.8136  0.3336
 6470TIP3    H240826   4.666   3.635   1.733  1.2011 -0.2010 -1.2368
 6471TIP3   OH240827   5.929   4.495  10.694 -0.0207 -0.0199 -0.2547
 6471TIP3    H140828   5.929   4.441  10.615 -1.6205  0.2557 -0.4733
 6471TIP3    H240829   5.873   4.570  10.673  0.4473  0.6421  0.7640
 6472TIP3   OH240830   6.363   3.965  14.586 -0.3242  0.0509 -0.1784
 6472TIP3    H140831   6.282   4.016  14.581 -1.2531 -1.3997 -0.3660
 6472TIP3    H240832   6.342   3.893  14.645  1.2024  0.2716  0.6783
 6473TIP3   OH240833   4.012   1.734  13.063  0.2700 -0.4247  0.0460
 6473TIP3    H140834   3.986   1.721  12.972 -0.1731 -1.8217  0.3359
 6473TIP3    H240835   4.080   1.667  13.078  1.2126  0.5907  0.4090
 6474TIP3   OH240836   4.861   5.353   1.758  0.6689  0.4775 -0.6504
 6474TIP3    H140837   4.927   5.380   1.822  0.0379 -2.4176  1.4438
 6474TIP3    H240838   4.778   5.362   1.804 -0.0290  0.2692 -1.8159
 6475TIP3   OH240839   1.924   0.309   2.813  0.8029 -0.0488 -0.2591
 6475TIP3    H140840   1.970   0.279   2.891 -0.3505  1.2748  0.9675
 6475TIP3    H240841   1.964   0.258   2.741  3.4678  0.3307  0.8372
 6476TIP3   OH240842   1.318   6.253   3.744 -0.1429  0.2830  0.2936
 6476TIP3    H140843   1.384   6.303   3.695 -0.8236  2.1461  1.1971
 6476TIP3    H240844   1.326   6.284   3.834 -1.7022 -0.0386  0.5688
 6477TIP3   OH240845   2.922   4.830   2.864 -0.1963  0.5097  0.7343
 6477TIP3    H140846   2.938   4.809   2.772  4.5328  0.3630  1.3536
 6477TIP3    H240847   2.847   4.776   2.888 -0.5243 -0.7404 -2.5432
 6478TIP3   OH240848   4.853   1.849  10.307 -0.1672  0.2696  0.0382
 6478TIP3    H140849   4.946   1.841  10.285  0.0615 -1.3361  1.3964
 6478TIP3    H240850   4.807   1.841  10.224  0.9164  2.1504 -0.8065
 6479TIP3   OH240851   0.994   4.814  17.160  0.4663  0.1152 -0.0675
 6479TIP3    H140852   1.082   4.849  17.174  0.5880 -0.3808  0.4476
 6479TIP3    H240853   0.946   4.837  17.239  0.8893 -1.8993  0.8488
 6480TIP3   OH240854   4.153   6.201  16.541  0.1249 -0.3846 -0.4926
 6480TIP3    H140855   4.206   6.278  16.563  0.4267 -0.9015  0.6391
 6480TIP3    H240856   4.207   6.126  16.567 -0.1707 -0.9887 -1.5820
 6481TIP3   OH240857   3.240   3.288  13.510 -0.3962  0.3760  0.6305
 6481TIP3    H140858   3.250   3.350  13.438 -0.3170 -0.6889 -0.2926
 6481TIP3    H240859   3.263   3.203  13.473  0.0496 -0.1432  2.0207
 6482TIP3   OH240860   2.025   0.010  13.320  0.0735 -0.0823 -0.7755
 6482TIP3    H140861   2.119   0.012  13.337 -0.2994  1.6436  1.5428
 6482TIP3    H240862   2.001   0.101  13.304 -1.2618 -0.4378 -0.9487
 6483TIP3   OH240863   6.103   0.147   5.169  0.2987 -0.1046 -0.1726
 6483TIP3    H140864   6.050   0.107   5.237  2.2940 -0.5331  1.2011
 6483TIP3    H240865   6.114   0.238   5.197 -0.6242  0.3035 -1.0588
 6484TIP3   OH240866   2.955   4.429  15.304  0.4729  0.3462 -0.4277
 6484TIP3    H140867   2.944   4.468  15.217  0.6411  0.5562 -0.3548
 6484TIP3    H240868   2.986   4.340  15.286  1.5806  0.7452 -0.5617
 6485TIP3   OH240869   0.772   6.062   0.364 -0.2974 -0.1812  0.2148
 6485TIP3    H140870   0.770   5.970   0.393 -0.2546  0.3055  1.8291
 6485TIP3    H240871   0.680   6.085   0.350 -0.3300 -0.3727  0.1091
 6486TIP3   OH240872   6.706   1.905   0.998 -0.3704  0.6084 -0.0568
 6486TIP3    H140873   6.614   1.922   1.019 -0.3116  1.4377 -0.4224
 6486TIP3    H240874   6.712   1.810   0.988 -1.1404  0.5304  0.1750
 6487TIP3   OH240875   2.111   6.776  16.431  0.5605  0.0171 -0.5426
 6487TIP3    H140876   2.153   6.823  16.503  0.0364 -0.0362 -0.1957
 6487TIP3    H240877   2.181   6.725  16.391  1.0744  0.8477 -0.7293
 6488TIP3   OH240878   5.001   1.193   0.894  0.2020  0.6017  0.1717
 6488TIP3    H140879   4.924   1.249   0.898  0.7543  1.3738  0.1159
 6488TIP3    H240880   5.039   1.209   0.808  0.7712  0.6858  0.4357
 6489TIP3   OH240881   2.170   2.969   0.225 -0.7930 -0.0355  0.6440
 6489TIP3    H140882   2.077   2.975   0.204 -0.5334 -0.3134 -0.7155
 6489TIP3    H240883   2.198   3.060   0.233 -0.9465  0.0932 -0.1491
 6490TIP3   OH240884   1.199   5.851  12.876 -0.4226 -0.3115  0.2701
 6490TIP3    H140885   1.278   5.864  12.929 -1.6022 -1.7023  2.5173
 6490TIP3    H240886   1.231   5.827  12.790  1.5952  0.8108  0.6533
 6491TIP3   OH240887   4.074   3.701   5.334  0.1141  0.5408  0.2396
 6491TIP3    H140888   4.060   3.628   5.274  1.2434  0.7367 -0.2810
 6491TIP3    H240889   4.083   3.660   5.420 -0.4794  0.1803  0.1400
 6492TIP3   OH240890   6.411   4.830   5.614  0.0944  0.5390 -1.3513
 6492TIP3    H140891   6.492   4.824   5.563  0.5289  1.2881 -0.7755
 6492TIP3    H240892   6.435   4.881   5.691 -1.5269  3.0365 -2.3770
 6493TIP3   OH240893   6.421   6.212   6.555 -0.0357 -0.0859  0.1083
 6493TIP3    H140894   6.422   6.117   6.549 -0.4399 -0.1086  0.3675
 6493TIP3    H240895   6.345   6.239   6.503  0.1212  0.1033 -0.0279
 6494TIP3   OH240896   5.640   0.197  16.408  0.2971 -0.5083 -0.1359
 6494TIP3    H140897   5.721   0.173  16.364  0.2061 -1.0332 -0.0269
 6494TIP3    H240898   5.618   0.284  16.374  1.2730 -0.0591  0.3612
 6495TIP3   OH240899   4.823   4.353  13.618  0.6105  0.9474  0.0986
 6495TIP3    H140900   4.858   4.269  13.591  0.1633  0.4743  0.9447
 6495TIP3    H240901   4.729   4.346  13.602  0.7059  1.6673 -0.7982
 6496TIP3   OH240902   3.584   5.494  11.445  0.4030  0.3765  0.5047
 6496TIP3    H140903   3.583   5.412  11.396 -0.4984 -0.3799  1.7339
 6496TIP3    H240904   3.658   5.542  11.409 -1.2672  0.7122 -2.9439
 6497TIP3   OH240905   4.597   2.627  15.606 -0.2715 -0.6454  0.2381
 6497TIP3    H140906   4.616   2.696  15.543 -2.4516  0.8649  1.0700
 6497TIP3    H240907   4.637   2.657  15.688  1.8028 -2.1661 -0.1625
 6498TIP3   OH240908   5.722   0.112   3.041 -0.5945 -0.7509 -0.3154
 6498TIP3    H140909   5.767   0.051   3.099  0.3878 -1.1973 -1.5149
 6498TIP3    H240910   5.781   0.187   3.035 -0.0838 -1.2507 -1.7362
 6499TIP3   OH240911   0.091   1.361   0.790 -0.0913 -0.1724  0.6679
 6499TIP3    H140912   0.035   1.437   0.804 -1.0416 -1.1498  2.5526
 6499TIP3    H240913   0.046   1.311   0.722 -0.0766  0.3622  0.2559
 6500TIP3   OH240914   3.483   5.797  11.859 -0.2795 -0.5897 -0.0097
 6500TIP3    H140915   3.523   5.776  11.774  0.9998 -0.3138  0.5070
 6500TIP3    H240916   3.394   5.762  11.852 -0.6193  0.5116 -1.9146
 6501TIP3   OH240917   3.082   2.556   5.566 -0.0039 -0.4302 -0.1232
 6501TIP3    H140918   3.166   2.537   5.607  0.2774  1.1151  0.1047
 6501TIP3    H240919   3.102   2.563   5.472 -0.2903 -2.1057 -0.3278
 6502TIP3   OH240920   2.283   5.130   6.218  0.2534 -0.3621 -0.0771
 6502TIP3    H140921   2.333   5.050   6.233 -0.4037 -0.6319  0.7420
 6502TIP3    H240922   2.218   5.132   6.289 -1.2406 -0.3058 -1.3772
 6503TIP3   OH240923   1.001   6.707   4.334  0.2584 -0.5813  0.2325
 6503TIP3    H140924   0.911   6.705   4.301 -0.6929  0.5809  2.5308
 6503TIP3    H240925   1.027   6.799   4.326  0.9008 -0.7475  0.3908
 6504TIP3   OH240926   3.865   5.938   5.722  0.3847  0.4605  0.7632
 6504TIP3    H140927   3.781   5.983   5.714 -0.5677 -1.5435 -1.9384
 6504TIP3    H240928   3.922   5.982   5.659  0.1177 -0.5815 -0.2527
 6505TIP3   OH240929   0.606   6.516   0.283  0.3905 -0.0754 -0.6909
 6505TIP3    H140930   0.658   6.549   0.355  0.7331  1.0164 -1.4212
 6505TIP3    H240931   0.630   6.570   0.208  0.1489 -1.2616 -1.6731
 6506TIP3   OH240932   1.892   3.888   3.749 -0.9623 -0.4152  0.0914
 6506TIP3    H140933   1.877   3.973   3.789 -0.3346 -0.5991  0.7540
 6506TIP3    H240934   1.815   3.836   3.775 -0.7922 -0.3890  0.6697
 6507TIP3   OH240935   1.742   5.514  13.840 -0.3977 -0.4460  0.2445
 6507TIP3    H140936   1.706   5.582  13.898 -1.5927 -1.3323  0.5858
 6507TIP3    H240937   1.782   5.451  13.900 -0.9948 -0.9988  0.0790
 6508TIP3   OH240938   2.876   5.986  14.187  0.2687  0.3380  0.4541
 6508TIP3    H140939   2.896   5.904  14.233  0.6140 -0.7496 -1.5043
 6508TIP3    H240940   2.821   5.959  14.113  2.1319  1.4780 -1.4883
 6509TIP3   OH240941   0.529   5.186   2.460 -0.2440  0.3255  0.0347
 6509TIP3    H140942   0.461   5.120   2.475 -0.7366  0.7092 -0.4883
 6509TIP3    H240943   0.598   5.162   2.521 -0.1187 -1.0884 -0.6146
 6510TIP3   OH240944   5.859   4.196   4.032  0.3717  0.4612  0.2338
 6510TIP3    H140945   5.954   4.193   4.040  0.4391  2.0408  0.2406
 6510TIP3    H240946   5.836   4.287   4.049 -1.1797  0.0385  0.5560
 6511TIP3   OH240947   0.219   5.659  12.912 -0.6641 -0.4820  0.7543
 6511TIP3    H140948   0.311   5.633  12.915 -0.8303 -1.0128  1.3496
 6511TIP3    H240949   0.205   5.685  12.821  0.4686  1.0699  0.9651
 6512TIP3   OH240950   5.339   0.033  11.147  0.3980 -0.0206  0.5343
 6512TIP3    H140951   5.315   0.078  11.228 -0.6414  0.2628  0.0795
 6512TIP3    H240952   5.266  -0.025  11.128 -0.4270  1.5193 -1.3565
 6513TIP3   OH240953   3.454   2.203  13.497  0.2973  0.4602  0.1866
 6513TIP3    H140954   3.509   2.133  13.460  1.0422  0.6634  0.8826
 6513TIP3    H240955   3.365   2.169  13.490  0.5432 -0.0685 -0.5496
 6514TIP3   OH240956   6.363   6.014  15.924  0.4199 -0.0270 -0.5153
 6514TIP3    H140957   6.384   6.071  15.851 -0.3907 -0.3387 -1.0013
 6514TIP3    H240958   6.349   5.928  15.884  1.0281 -0.4472  0.1333
 6515TIP3   OH240959   1.364   5.938   3.124 -0.3911  0.3010 -0.0957
 6515TIP3    H140960   1.383   5.904   3.037 -2.8503 -1.0720 -0.1870
 6515TIP3    H240961   1.339   6.030   3.109  1.2464  0.6990 -0.5273
 6516TIP3   OH240962   6.762   3.523  10.859  0.2214  0.8422 -0.0386
 6516TIP3    H140963   6.850   3.530  10.896  0.1599  0.0346  0.2734
 6516TIP3    H240964   6.763   3.441  10.810  0.2542  1.8083 -1.7362
 6517TIP3   OH240965   5.665   6.802   0.917 -0.1767  0.6393  0.5066
 6517TIP3    H140966   5.753   6.825   0.885 -0.3675  0.6371 -0.0377
 6517TIP3    H240967   5.647   6.866   0.985  0.5291  0.2128  1.1047
 6518TIP3   OH240968   3.517   0.011   5.687  0.2438  0.3265  0.0825
 6518TIP3    H140969   3.600   0.049   5.716  0.7840  0.0013 -0.9750
 6518TIP3    H240970   3.450   0.066   5.726  0.9762  1.0174  0.3816
 6519TIP3   OH240971   6.415   1.256  13.006  0.3724 -0.3802  0.7489
 6519TIP3    H140972   6.397   1.166  13.032  0.1617 -0.7624 -0.6334
 6519TIP3    H240973   6.499   1.277  13.048  0.4159 -1.2131  1.0869
 6520TIP3   OH240974   6.755   1.321  15.721 -0.1739 -0.0051 -0.4055
 6520TIP3    H140975   6.842   1.344  15.690 -0.8402 -0.2053 -2.6038
 6520TIP3    H240976   6.769   1.250  15.785  1.1740 -1.6264 -2.3824
 6521TIP3   OH240977   3.786   0.094  15.134  0.1437  0.2907  0.8323
 6521TIP3    H140978   3.776   0.091  15.039 -2.6631 -0.0144  1.0571
 6521TIP3    H240979   3.786   0.002  15.160  1.6646  0.3452  1.1143
 6522TIP3   OH240980   2.153   5.178   3.146  0.1547 -0.5532  0.0212
 6522TIP3    H140981   2.068   5.157   3.107 -0.4703 -1.0601  1.5928
 6522TIP3    H240982   2.139   5.262   3.190  0.7670 -0.1300 -0.5715
 6523TIP3   OH240983   5.289   1.376  11.921  0.1930 -0.8853 -0.0974
 6523TIP3    H140984   5.359   1.347  11.862  0.0292  0.6155 -1.0878
 6523TIP3    H240985   5.223   1.415  11.864 -0.3354 -0.0820  1.0098
 6524TIP3   OH240986   0.692   5.735  13.029  0.4142 -0.3351  0.2352
 6524TIP3    H140987   0.756   5.669  13.056  1.0261  0.1410 -0.0322
 6524TIP3    H240988   0.744   5.810  13.003 -0.2105 -0.2369 -0.8096
 6525TIP3   OH240989   4.998   2.029   1.893  0.6152 -0.1711  0.1071
 6525TIP3    H140990   5.089   2.036   1.921  0.4877  3.8455  0.1357
 6525TIP3    H240991   5.002   2.000   1.802  2.0686  1.2486 -0.3203
 6526TIP3   OH240992   2.688   3.428   4.657 -0.2772  0.2439 -0.4882
 6526TIP3    H140993   2.693   3.506   4.603  1.3357 -1.0185 -2.2882
 6526TIP3    H240994   2.639   3.456   4.735 -0.5044  2.7756 -1.4466
 6527TIP3   OH240995   0.280   2.117  14.288  0.0527  0.1013 -0.5815
 6527TIP3    H140996   0.296   2.173  14.212 -1.1553  0.4300 -0.6287
 6527TIP3    H240997   0.250   2.034  14.251  2.5499 -0.8949 -0.5363
 6528TIP3   OH240998   0.808   4.892  16.931  0.1517 -0.4455  0.2640
 6528TIP3    H140999   0.840   4.968  16.981  0.3407 -0.8436  0.7567
 6528TIP3    H241000   0.867   4.821  16.956  1.3337 -0.2719 -1.8261
 6529TIP3   OH241001   6.170   1.669   1.460 -0.2800  0.4728 -0.2393
 6529TIP3    H141002   6.098   1.679   1.398 -1.0038  0.9383  0.6493
 6529TIP3    H241003   6.134   1.699   1.544  0.2536 -1.3491  0.6944
 6530TIP3   OH241004   4.210   0.379   5.939 -0.1180  0.0959  0.2960
 6530TIP3    H141005   4.276   0.336   5.994  1.0011 -0.2035 -1.2035
 6530TIP3    H241006   4.214   0.332   5.856 -0.7382  1.4409 -0.5216
 6531TIP3   OH241007   0.354   4.641  13.935 -0.2212 -0.1784  0.0160
 6531TIP3    H141008   0.320   4.719  13.893  0.6989  0.3810  0.2715
 6531TIP3    H241009   0.435   4.621  13.888 -2.0119 -2.9455 -2.2406
 6532TIP3   OH241010   0.544   0.552   5.699  0.0773  0.0293  0.0926
 6532TIP3    H141011   0.494   0.472   5.717  0.9943 -0.4454  0.5721
 6532TIP3    H241012   0.549   0.596   5.784  0.2450  0.2085 -0.0113
 6533TIP3   OH241013   1.632   5.536   2.418  0.3159  0.0259 -0.3172
 6533TIP3    H141014   1.590   5.474   2.478 -0.9567  0.8238 -0.3568
 6533TIP3    H241015   1.719   5.549   2.456  0.4918 -1.4963 -0.1149
 6534TIP3   OH241016   3.740   6.688   4.588  0.3187  0.8012 -0.0653
 6534TIP3    H141017   3.737   6.594   4.569  0.0787  0.6612  0.6322
 6534TIP3    H241018   3.734   6.693   4.684 -0.4700  1.5569 -0.1451
 6535TIP3   OH241019   0.255   2.134  11.372 -0.3042  0.7454 -0.4116
 6535TIP3    H141020   0.258   2.084  11.454 -0.9398  3.5113  1.4388
 6535TIP3    H241021   0.287   2.073  11.306 -2.0082 -2.4263  1.4241
 6536TIP3   OH241022   2.934   5.879  15.613  0.2843 -0.2964 -0.0155
 6536TIP3    H141023   3.015   5.837  15.586  1.9322  2.8436 -0.3912
 6536TIP3    H241024   2.943   5.889  15.708 -0.1043 -0.7753  0.0749
 6537TIP3   OH241025   1.947   4.900  13.812  0.1745  0.8463 -0.4322
 6537TIP3    H141026   1.919   4.992  13.813 -3.1919  0.1009 -3.5523
 6537TIP3    H241027   2.004   4.893  13.735 -0.6468  0.1461 -1.0004
 6538TIP3   OH241028   1.926   5.880  16.939  0.1511 -0.2361 -0.9188
 6538TIP3    H141029   2.014   5.916  16.941  0.1442 -0.2575  0.5976
 6538TIP3    H241030   1.871   5.949  16.976 -0.0147 -1.3085  0.9644
 6539TIP3   OH241031   2.276   2.905   3.381 -0.1309 -0.1074 -0.3112
 6539TIP3    H141032   2.277   2.976   3.318  0.7847  2.2275  2.1109
 6539TIP3    H241033   2.367   2.898   3.411 -0.4483 -1.4089  0.4598
 6540TIP3   OH241034   2.258   2.891  11.494 -0.8725 -0.2157  0.0821
 6540TIP3    H141035   2.287   2.981  11.479  0.6996 -0.8127 -0.6361
 6540TIP3    H241036   2.303   2.840  11.427 -2.7940 -1.3779 -0.3882
 6541TIP3   OH241037   3.078   0.426   2.156  0.7970  0.5142  0.0155
 6541TIP3    H141038   3.137   0.355   2.132 -1.1817 -1.4025  0.5045
 6541TIP3    H241039   3.114   0.460   2.238  1.7486  0.0368 -0.1964
 6542TIP3   OH241040   5.858   4.431   2.122  0.1155 -0.4843  1.0246
 6542TIP3    H141041   5.843   4.478   2.040 -2.2289  0.3638  1.8590
 6542TIP3    H241042   5.782   4.452   2.176  2.0497 -0.1269  3.8522
 6543TIP3   OH241043   4.939   3.425  16.268  0.0560 -0.2168 -0.2753
 6543TIP3    H141044   4.929   3.513  16.304  2.1593 -0.6520  1.6166
 6543TIP3    H241045   4.868   3.375  16.308  0.4279  0.0484  0.7500
 6544TIP3   OH241046   0.890   2.947  16.814 -0.3217 -0.3738  0.2173
 6544TIP3    H141047   0.958   2.981  16.872  0.4088 -1.0512 -0.2323
 6544TIP3    H241048   0.816   3.007  16.827  1.3199  2.2341 -1.4830
 6545TIP3   OH241049   3.286   5.451  15.546  0.5739  0.0013  0.0089
 6545TIP3    H141050   3.311   5.477  15.635 -0.4560  0.5039  0.1626
 6545TIP3    H241051   3.365   5.411  15.510  1.6335  1.5974  0.4535
 6546TIP3   OH241052   0.034   4.258   2.168 -0.0334 -0.3027 -0.3990
 6546TIP3    H141053  -0.000   4.230   2.252  0.7587  2.3306  0.9306
 6546TIP3    H241054   0.128   4.240   2.172 -0.1143 -0.9373 -1.0908
 6547TIP3   OH241055   4.152   1.360   1.445 -0.3916  0.0073 -0.3203
 6547TIP3    H141056   4.117   1.378   1.358 -1.6401 -1.8245 -0.2611
 6547TIP3    H241057   4.153   1.264   1.451 -1.7661  0.0439  2.1756
 6548TIP3   OH241058   3.054   5.336   3.198  0.4959 -0.6085  0.2823
 6548TIP3    H141059   3.000   5.270   3.154 -1.0512 -0.2613  1.5597
 6548TIP3    H241060   3.144   5.315   3.172 -0.0625 -2.4648 -0.2920
 6549TIP3   OH241061   1.984   0.713  12.252  0.3440  0.0854  0.1784
 6549TIP3    H141062   1.916   0.677  12.310  1.0089 -1.7201 -0.0865
 6549TIP3    H241063   1.968   0.807  12.252 -2.0716 -0.2563  0.2437
 6550TIP3   OH241064   6.324   0.408   3.682  0.0636 -0.5181 -0.1227
 6550TIP3    H141065   6.275   0.349   3.740 -1.3018 -0.1586 -0.8503
 6550TIP3    H241066   6.357   0.477   3.740  0.8338 -1.4542  0.5802
 6551TIP3   OH241067   3.453   5.662  13.145  0.1022  0.2259  0.2787
 6551TIP3    H141068   3.532   5.608  13.155 -0.9046 -1.1226  1.3737
 6551TIP3    H241069   3.471   5.739  13.199  0.5493 -0.2440  0.8279
 6552TIP3   OH241070   3.632   6.597   3.269  0.3235  0.1970 -0.2619
 6552TIP3    H141071   3.591   6.657   3.331  0.3398  1.0435 -1.0516
 6552TIP3    H241072   3.566   6.530   3.253 -0.2651  0.8399 -0.5416
 6553TIP3   OH241073   2.050   3.827  12.504 -0.3435  0.4962  0.1213
 6553TIP3    H141074   1.979   3.763  12.504 -0.0678  0.0512 -2.8065
 6553TIP3    H241075   2.014   3.904  12.548 -2.1234 -0.2509  0.0372
 6554TIP3   OH241076   4.277   6.725   5.267  0.2986 -0.1309  0.3504
 6554TIP3    H141077   4.339   6.725   5.341  2.2263  0.1575 -1.1797
 6554TIP3    H241078   4.243   6.814   5.265  0.5288 -0.0312  0.6679
 6555TIP3   OH241079   4.017   5.712   3.790 -0.4070 -0.3043  0.4544
 6555TIP3    H141080   3.938   5.661   3.807 -1.1658  0.6884  0.0129
 6555TIP3    H241081   4.085   5.667   3.840 -1.7989  0.4686  3.2879
 6556TIP3   OH241082   5.507   5.068  14.751 -0.2971 -0.2339 -0.0530
 6556TIP3    H141083   5.435   5.008  14.769 -0.6391  0.4198  0.8365
 6556TIP3    H241084   5.560   5.023  14.685 -0.7831 -1.3057  0.2650
 6557TIP3   OH241085   3.788   0.380  16.358 -0.3188 -0.4055  0.1087
 6557TIP3    H141086   3.700   0.387  16.320 -1.0079  0.7268  1.7822
 6557TIP3    H241087   3.812   0.470  16.381  1.2900 -0.6979 -0.2953
 6558TIP3   OH241088   3.509   3.868   5.811  0.5312 -0.1044  0.0884
 6558TIP3    H141089   3.419   3.860   5.780 -0.0485  3.3612  0.4900
 6558TIP3    H241090   3.509   3.828   5.898 -0.7084  0.1135  0.2047
 6559TIP3   OH241091   4.199   6.246   0.258  0.4198  0.1605  0.0272
 6559TIP3    H141092   4.140   6.184   0.300 -0.2911  0.8077  0.0256
 6559TIP3    H241093   4.273   6.194   0.227  0.3114 -0.5181  0.9011
 6560TIP3   OH241094   3.359   4.828   6.158 -1.0500  0.2835  0.0646
 6560TIP3    H141095   3.320   4.906   6.199  0.7856  1.8444 -0.9778
 6560TIP3    H241096   3.363   4.850   6.065  0.9059 -0.3634 -0.0546
 6561TIP3   OH241097   3.391   2.367   4.011  0.1963 -0.2545  0.0810
 6561TIP3    H141098   3.331   2.438   3.989  0.2048 -0.6017 -1.0929
 6561TIP3    H241099   3.410   2.324   3.928 -0.1965 -1.9472  0.8226
 6562TIP3   OH241100   2.755   0.661   0.589 -0.0926 -0.1658 -0.2451
 6562TIP3    H141101   2.741   0.573   0.554  0.3937  0.4764 -2.2177
 6562TIP3    H241102   2.849   0.665   0.606  0.0949  0.3204 -1.2984
 6563TIP3   OH241103   5.755   3.848   3.718  0.5396  0.6306 -0.7380
 6563TIP3    H141104   5.812   3.919   3.751  0.4237  0.0663  0.7725
 6563TIP3    H241105   5.809   3.803   3.653  1.2968  1.0020 -0.3928
 6564TIP3   OH241106   2.471   5.855  14.609 -0.4623 -0.1235  0.0980
 6564TIP3    H141107   2.382   5.828  14.629 -0.3289 -0.1433  0.7094
 6564TIP3    H241108   2.481   5.939  14.653  0.6906 -1.3965  2.4885
 6565TIP3   OH241109   0.796   5.217  11.904  0.1804  0.6983 -0.5026
 6565TIP3    H141110   0.845   5.136  11.917 -1.0680 -0.2592 -1.5069
 6565TIP3    H241111   0.743   5.226  11.984  0.7717  0.8729 -0.1223
 6566TIP3   OH241112   2.034   4.408   4.947  0.4448 -0.0873  0.1544
 6566TIP3    H141113   2.052   4.316   4.964  0.9371 -0.4398 -2.0157
 6566TIP3    H241114   1.989   4.439   5.026 -0.0895 -2.2736  0.7558
 6567TIP3   OH241115   5.132   2.842  12.710 -0.6276  0.3148  0.2532
 6567TIP3    H141116   5.104   2.904  12.643  1.3568 -0.0180 -0.9951
 6567TIP3    H241117   5.158   2.764  12.660  0.0220 -0.2982  1.4980
 6568TIP3   OH241118   2.641   1.407   2.399  0.6676 -0.3712  0.4390
 6568TIP3    H141119   2.669   1.316   2.406 -0.1045 -0.5507  1.3894
 6568TIP3    H241120   2.549   1.406   2.425  1.0816  0.8984  2.1582
 6569TIP3   OH241121   0.795   3.328   6.325 -0.0885  0.2808  0.8276
 6569TIP3    H141122   0.752   3.361   6.404  0.1969  1.4268  0.5224
 6569TIP3    H241123   0.870   3.278   6.357 -0.2069  0.3997  1.2943
 6570TIP3   OH241124   0.443   2.282   3.638 -0.2418  0.3029  0.1809
 6570TIP3    H141125   0.402   2.338   3.703  1.9984  2.0152  0.2485
 6570TIP3    H241126   0.487   2.343   3.578  0.2833 -1.3201 -1.1679
 6571TIP3   OH241127   1.239   0.475   1.561  0.1571 -0.1877 -0.4070
 6571TIP3    H141128   1.314   0.419   1.543 -0.4897 -1.1446 -0.1559
 6571TIP3    H241129   1.278   0.556   1.595  1.1777  0.1529 -2.2545
 6572TIP3   OH241130   0.996   4.820   5.394  1.0416 -0.3422  0.4591
 6572TIP3    H141131   0.939   4.873   5.338  1.2299 -1.1689 -0.5517
 6572TIP3    H241132   1.059   4.882   5.431  0.5145  0.3180  0.2613
 6573TIP3   OH241133   0.800   4.851   3.555  0.0897 -0.3899  0.4097
 6573TIP3    H141134   0.719   4.873   3.510 -0.4644 -1.7088  0.7226
 6573TIP3    H241135   0.781   4.768   3.599  1.0160  0.2181  2.0208
 6574TIP3   OH241136   4.260   5.960   0.317  0.5397  0.3386 -0.6244
 6574TIP3    H141137   4.208   5.997   0.388 -2.2200 -0.3415 -2.1331
 6574TIP3    H241138   4.330   5.911   0.361 -0.4156  0.8145  1.5586
 6575TIP3   OH241139   0.539   0.194   5.576 -0.2443 -0.3428 -0.0656
 6575TIP3    H141140   0.515   0.215   5.667 -1.4714 -1.8377 -0.0097
 6575TIP3    H241141   0.609   0.130   5.585  3.0608  2.8759 -0.2420
 6576TIP3   OH241142   5.421   2.670  15.224 -0.4660 -0.1194  0.2950
 6576TIP3    H141143   5.466   2.704  15.301 -0.6001 -0.0637  0.3480
 6576TIP3    H241144   5.460   2.584  15.210  0.8336  0.5788 -0.6244
 6577TIP3   OH241145   1.481   5.065  14.376 -1.0176  0.4675  0.1247
 6577TIP3    H141146   1.460   4.976  14.404  0.3118  0.6635  1.9318
 6577TIP3    H241147   1.441   5.073  14.290  0.2274 -2.4574 -0.8753
 6578TIP3   OH241148   0.276   2.753  14.258 -0.0101 -0.3412 -0.2728
 6578TIP3    H141149   0.343   2.685  14.261  1.5123  0.9601 -2.2570
 6578TIP3    H241150   0.288   2.795  14.173 -0.3200  2.9322  1.1582
 6579TIP3   OH241151   5.940   4.251  16.004 -0.5119  0.4409 -0.2869
 6579TIP3    H141152   5.940   4.256  15.908 -3.0641  1.3775 -0.3130
 6579TIP3    H241153   5.847   4.247  16.028 -0.0684  2.3950  2.2368
 6580TIP3   OH241154   0.259   6.632  11.686  0.0401  0.2302 -0.0662
 6580TIP3    H141155   0.276   6.706  11.627 -2.3783  1.0851  0.1966
 6580TIP3    H241156   0.293   6.660  11.771 -0.8678  1.0774  0.0328
 6581TIP3   OH241157   3.716   4.309  12.080  0.5196  0.4334 -0.0594
 6581TIP3    H141158   3.674   4.227  12.107  2.4235 -0.5425  0.0588
 6581TIP3    H241159   3.711   4.309  11.985 -0.1393  0.5566 -0.0293
 6582TIP3   OH241160   4.434   1.067  12.516  0.0224  0.1533  0.3256
 6582TIP3    H141161   4.493   1.065  12.441 -0.2075  0.1233  0.1463
 6582TIP3    H241162   4.390   1.152  12.510  1.4161  1.0278  1.5173
 6583TIP3   OH241163   1.636   5.885  11.516  0.1353  0.2046 -0.4343
 6583TIP3    H141164   1.656   5.977  11.529 -0.0244  0.4248 -1.6112
 6583TIP3    H241165   1.646   5.845  11.603  1.7253  1.0363 -0.1977
 6584TIP3   OH241166   4.556   0.087   0.828 -0.3278 -0.1213  0.1793
 6584TIP3    H141167   4.586  -0.004   0.837  1.2029  0.2012 -1.1760
 6584TIP3    H241168   4.493   0.098   0.898  1.3664 -1.4565  2.0219
 6585TIP3   OH241169   4.287   5.353   4.668  0.2006 -0.2679 -0.4386
 6585TIP3    H141170   4.277   5.327   4.577  0.1212 -0.9822 -0.2254
 6585TIP3    H241171   4.363   5.412   4.667  0.6446 -0.8413 -0.8502
 6586TIP3   OH241172   4.811   3.961  16.145 -0.2232 -0.0907  0.1334
 6586TIP3    H141173   4.812   4.025  16.216  3.3077 -0.3472  0.5250
 6586TIP3    H241174   4.900   3.924  16.145  0.4099  0.6388 -5.0960
 6587TIP3   OH241175   0.605   3.523  12.390  0.2812  0.1325 -0.7992
 6587TIP3    H141176   0.553   3.444  12.406 -0.7908  1.1657  1.1365
 6587TIP3    H241177   0.693   3.490  12.373 -0.5062 -1.5514 -1.8508
 6588TIP3   OH241178   4.066   2.286  11.264  0.1299 -0.0776  0.0826
 6588TIP3    H141179   4.042   2.376  11.286  2.2974  0.0405  2.4700
 6588TIP3    H241180   4.140   2.295  11.203  0.6325 -0.1858  0.6594
 6589TIP3   OH241181   1.675   0.445   1.688 -0.2209 -0.1940  0.4195
 6589TIP3    H141182   1.745   0.426   1.751  1.4847  0.0166 -1.3131
 6589TIP3    H241183   1.684   0.539   1.671  0.8379 -0.6214 -1.7393
 6590TIP3   OH241184   1.345   1.077   0.066  0.3180 -0.2356  0.5096
 6590TIP3    H141185   1.421   1.111   0.019 -0.7632  1.5401 -0.0635
 6590TIP3    H241186   1.370   1.081   0.158  1.2857 -0.6603  0.2814
 6591TIP3   OH241187   6.265   1.103   1.543 -0.4355 -0.5739 -0.2190
 6591TIP3    H141188   6.289   1.076   1.631 -0.7421 -2.2105 -0.6077
 6591TIP3    H241189   6.254   1.198   1.549 -0.0188 -0.6023  1.3869
 6592TIP3   OH241190   3.462   4.881   5.100  0.2680  0.0584  0.1384
 6592TIP3    H141191   3.414   4.963   5.113  0.3997  0.1389  0.1192
 6592TIP3    H241192   3.421   4.841   5.023 -1.3743 -1.0420  1.5054
 6593TIP3   OH241193   3.890   2.915   0.323  0.3104 -0.1554 -0.1047
 6593TIP3    H141194   3.892   3.010   0.340 -0.6962 -0.4341  1.8661
 6593TIP3    H241195   3.977   2.885   0.350 -0.0994 -0.0714  1.4002
 6594TIP3   OH241196   1.734   1.979   5.718  0.3756  0.7603  0.1628
 6594TIP3    H141197   1.704   1.891   5.742  0.0669  0.4767 -1.2235
 6594TIP3    H241198   1.760   2.018   5.802 -3.4652  0.9167  1.4557
 6595TIP3   OH241199   1.853   1.028  11.487  0.1535  0.4463 -0.3972
 6595TIP3    H141200   1.894   1.099  11.439  1.8933  0.5629  1.1490
 6595TIP3    H241201   1.777   1.068  11.529 -1.4999  0.2998 -3.0502
 6596TIP3   OH241202   6.493   1.433   3.217 -0.0425 -0.0092 -0.3195
 6596TIP3    H141203   6.429   1.382   3.168  1.5380 -1.0622 -1.3731
 6596TIP3    H241204   6.480   1.407   3.308  1.0935 -2.8544 -0.8732
 6597TIP3   OH241205   3.204   5.745  10.954  0.4962  0.6035 -0.3922
 6597TIP3    H141206   3.177   5.690  10.880  0.2599 -0.3621  0.3943
 6597TIP3    H241207   3.268   5.805  10.917  2.2825 -1.4918 -0.8851
 6598TIP3   OH241208   1.879   0.989  17.148 -0.7562  0.0923  0.2478
 6598TIP3    H141209   1.970   0.989  17.118 -0.9172  1.8549 -0.3285
 6598TIP3    H241210   1.861   0.897  17.170  0.7971 -0.4716 -0.6912
 6599TIP3   OH241211   1.302   4.023  16.752  0.8478  0.3338 -0.2248
 6599TIP3    H141212   1.375   3.982  16.705  0.8495 -2.1519  1.7222
 6599TIP3    H241213   1.343   4.081  16.815  1.2272 -1.1966  0.9880
 6600TIP3   OH241214   1.308   0.112   0.099  0.2954 -0.2096 -0.2149
 6600TIP3    H141215   1.215   0.115   0.081  0.1235 -1.0496  0.4433
 6600TIP3    H241216   1.325   0.190   0.152  0.1232  0.3554 -0.9844
 6601TIP3   OH241217   1.361   3.679  16.664  0.0847 -0.6240 -0.2351
 6601TIP3    H141218   1.422   3.722  16.604 -0.9345  1.8120  0.3601
 6601TIP3    H241219   1.394   3.589  16.670  2.1644 -0.0687 -1.8008
 6602TIP3   OH241220   0.358   2.792  15.390  0.3215 -0.0729  0.5461
 6602TIP3    H141221   0.331   2.843  15.314  1.6076  0.0620  0.1520
 6602TIP3    H241222   0.453   2.804  15.394  0.4061 -0.9444  1.5487
 6603TIP3   OH241223   4.146   0.895   4.426  0.5765  0.1707  0.9686
 6603TIP3    H141224   4.237   0.917   4.408  0.5139 -0.9922 -1.0359
 6603TIP3    H241225   4.096   0.972   4.397  0.6794 -0.7005 -1.7553
 6604TIP3   OH241226   3.599   3.569   3.666 -0.0100 -0.0798 -0.0703
 6604TIP3    H141227   3.631   3.636   3.605  0.3945 -1.2955 -1.2371
 6604TIP3    H241228   3.565   3.619   3.740  0.7502  1.3995 -0.6723
 6605TIP3   OH241229   1.227   0.104   1.216  0.1228 -0.3400  0.1272
 6605TIP3    H141230   1.256   0.021   1.252  1.2576  0.4178  1.0008
 6605TIP3    H241231   1.190   0.151   1.290 -0.1741  0.0940 -0.2895
 6606TIP3   OH241232   4.288   3.486  11.784 -0.1782  0.2796  0.1303
 6606TIP3    H141233   4.277   3.550  11.713 -0.9197 -0.3584 -0.3471
 6606TIP3    H241234   4.209   3.495  11.837  0.2830  0.6117  0.7760
 6607TIP3   OH241235   5.764   2.696  13.956  0.4621 -0.3607  0.1554
 6607TIP3    H141236   5.845   2.725  13.913 -0.1237 -1.3318 -1.6813
 6607TIP3    H241237   5.779   2.604  13.976 -0.2059 -0.5726 -0.2834
 6608TIP3   OH241238   4.270   3.624  16.241 -0.1001 -0.7556 -0.5682
 6608TIP3    H141239   4.266   3.529  16.232 -2.0662 -0.5970 -1.8972
 6608TIP3    H241240   4.235   3.658  16.159 -0.1606  1.1169  0.1854
 6609TIP3   OH241241   0.307   2.049   1.473  0.0689 -0.6196  0.3265
 6609TIP3    H141242   0.384   2.102   1.494 -0.0566  0.8294 -2.4272
 6609TIP3    H241243   0.234   2.112   1.474 -1.4782 -2.1667  4.1013
 6610TIP3   OH241244   2.333   4.351  15.274  0.2419  0.1036  0.2223
 6610TIP3    H141245   2.380   4.381  15.351 -1.3419  1.2597  0.7993
 6610TIP3    H241246   2.334   4.425  15.214 -1.2673  0.3752  0.4840
 6611TIP3   OH241247   2.920   1.405  11.506  0.5499  0.4136  0.0225
 6611TIP3    H141248   2.968   1.486  11.488  0.7014  0.3818  0.2769
 6611TIP3    H241249   2.863   1.426  11.579 -1.9720  1.2911 -2.0564
 6612TIP3   OH241250   4.328   3.514   5.394 -0.0936  0.4271  0.3781
 6612TIP3    H141251   4.378   3.492   5.315  0.5586 -1.4493  1.2449
 6612TIP3    H241252   4.337   3.608   5.403  0.3344  0.6039 -1.4380
 6613TIP3   OH241253   1.072   4.441  13.575 -1.0483 -0.6335 -0.4468
 6613TIP3    H141254   1.057   4.516  13.633  0.0158 -1.5926  1.1591
 6613TIP3    H241255   1.047   4.472  13.488  0.2051  1.8840 -0.0014
 6614TIP3   OH241256   2.054   2.436  14.332 -0.1140  0.5453  0.0727
 6614TIP3    H141257   2.108   2.514  14.319  0.9023 -0.0991  0.2677
 6614TIP3    H241258   1.964   2.467  14.328  0.2593  1.5554 -0.9601
 6615TIP3   OH241259   6.568   5.409   3.365  0.1660  0.0460 -0.1874
 6615TIP3    H141260   6.528   5.491   3.337  0.9570  0.1271 -1.1284
 6615TIP3    H241261   6.509   5.375   3.433 -1.1825  0.4320 -1.1354
 6616TIP3   OH241262   5.259   0.987  12.219  0.0008 -0.2604  0.3777
 6616TIP3    H141263   5.343   0.942  12.225  1.2415  1.9872  0.9438
 6616TIP3    H241264   5.233   0.977  12.127  1.9840  0.8324 -0.3565
 6617TIP3   OH241265   4.764   5.927  11.224 -0.5926  0.2286 -0.2291
 6617TIP3    H141266   4.712   5.953  11.300 -0.4068  0.9198 -0.3324
 6617TIP3    H241267   4.846   5.894  11.262  0.3279  2.4300 -0.1568
 6618TIP3   OH241268   2.018   5.161   6.711  0.4197  0.1764  0.6890
 6618TIP3    H141269   1.962   5.208   6.649  1.9027  0.1588 -0.7167
 6618TIP3    H241270   1.961   5.093   6.748 -0.4207 -0.0000 -0.8788
 6619TIP3   OH241271   2.111   4.638   1.329  0.1209  0.0120 -0.3678
 6619TIP3    H141272   2.101   4.664   1.238 -4.1195 -0.1642 -0.1284
 6619TIP3    H241273   2.147   4.549   1.324  2.0998  0.8129 -1.6691
 6620TIP3   OH241274   2.123   6.319  14.599 -0.2663  0.4889 -0.0811
 6620TIP3    H141275   2.112   6.225  14.613  1.0149  0.3161 -0.1280
 6620TIP3    H241276   2.122   6.329  14.503  1.8870  0.1670 -0.2040
 6621TIP3   OH241277   6.325   2.180   4.117  0.5891 -0.1371 -0.3079
 6621TIP3    H141278   6.398   2.184   4.179  0.9950 -0.1731 -0.7836
 6621TIP3    H241279   6.335   2.096   4.073 -0.1899 -0.4981  0.1657
 6622TIP3   OH241280   0.781   6.178  12.793 -0.6046 -0.4071 -0.3580
 6622TIP3    H141281   0.873   6.163  12.772 -1.0839 -0.1536 -2.9142
 6622TIP3    H241282   0.781   6.263  12.837  0.5977 -1.5311  2.0270
 6623TIP3   OH241283   2.752   2.340  12.294 -0.4885 -0.2043  0.4876
 6623TIP3    H141284   2.728   2.364  12.383  0.5430  0.4776  0.6052
 6623TIP3    H241285   2.674   2.298  12.258 -0.7895 -0.8478  1.8307
 6624TIP3   OH241286   4.766   2.151  11.969 -0.0217  0.6292 -0.4917
 6624TIP3    H141287   4.841   2.109  12.011  0.0537  1.7595  0.5494
 6624TIP3    H241288   4.713   2.078  11.936  1.4046 -0.1949 -1.0508
 6625TIP3   OH241289   5.695   5.880   4.739  0.2553  0.2816  0.4217
 6625TIP3    H141290   5.731   5.813   4.681  0.3014 -0.5075  1.3429
 6625TIP3    H241291   5.650   5.941   4.680 -0.9310 -1.2607 -0.3231
 6626TIP3   OH241292   1.424   4.760   2.832 -0.6880 -0.5149 -0.9050
 6626TIP3    H141293   1.495   4.804   2.878 -1.3085 -0.8115  0.3690
 6626TIP3    H241294   1.454   4.669   2.824 -0.4765 -0.4136 -1.3388
 6627TIP3   OH241295   6.560   6.061  13.388  1.1288 -0.3786  0.3966
 6627TIP3    H141296   6.537   6.117  13.314  2.9164  0.9068  0.7711
 6627TIP3    H241297   6.647   6.028  13.367  2.4099  1.3485  2.6216
 6628TIP3   OH241298   1.140   5.759  10.536 -0.4085 -0.1847 -0.2797
 6628TIP3    H141299   1.195   5.703  10.590 -1.3321  0.3132  1.2298
 6628TIP3    H241300   1.073   5.701  10.501 -0.7095 -0.2296  0.3720
 6629TIP3   OH241301   0.221   0.611  15.906 -0.5251  0.5535  0.0193
 6629TIP3    H141302   0.238   0.530  15.955  0.6235  0.9997  0.3741
 6629TIP3    H241303   0.159   0.584  15.838  0.8486 -0.9337 -0.7131
 6630TIP3   OH241304   1.075   0.785  16.531  0.2141  0.4981 -0.3952
 6630TIP3    H141305   1.128   0.798  16.609 -0.4662  1.5164 -0.0877
 6630TIP3    H241306   1.024   0.706  16.549 -0.2730  0.9770  0.3916
 6631TIP3   OH241307   1.426   5.727   5.171 -0.4817 -0.0012  0.1163
 6631TIP3    H141308   1.485   5.656   5.195 -0.1159  0.7111  1.4150
 6631TIP3    H241309   1.482   5.805   5.171 -1.3770  0.6603  1.2162
 6632TIP3   OH241310   3.957   0.961   3.369  0.0194  0.2522  0.2726
 6632TIP3    H141311   3.914   1.026   3.423 -0.7438 -0.3858  0.4522
 6632TIP3    H241312   4.030   0.930   3.422 -0.6354 -0.2642  0.8901
 6633TIP3   OH241313   6.737   3.066   2.492 -0.3566  0.2438 -0.2818
 6633TIP3    H141314   6.730   3.087   2.399 -1.9974 -0.2745 -0.3028
 6633TIP3    H241315   6.694   2.981   2.501 -0.2980  0.3299  0.9666
 6634TIP3   OH241316   4.384   4.340   5.817 -0.6122 -0.1149  0.4145
 6634TIP3    H141317   4.375   4.374   5.906  1.4912 -1.9975  1.4191
 6634TIP3    H241318   4.365   4.247   5.825  2.0394 -0.8096 -0.5616
 6635TIP3   OH241319   4.590   5.565   3.692 -0.1839 -0.3099  0.1538
 6635TIP3    H141320   4.517   5.525   3.740  0.6537 -0.5222  1.3015
 6635TIP3    H241321   4.629   5.493   3.642  0.7854 -0.7832  1.5385
 6636TIP3   OH241322   0.117   0.876  11.175  0.8300 -0.0507  0.4707
 6636TIP3    H141323   0.027   0.905  11.161  0.8137 -0.3736 -0.1230
 6636TIP3    H241324   0.131   0.809  11.109  0.7099 -1.7545  2.0900
 6637TIP3   OH241325   2.309   6.656   4.112 -0.0855  0.5405 -0.2239
 6637TIP3    H141326   2.369   6.593   4.152 -1.2914 -1.3065 -1.1742
 6637TIP3    H241327   2.347   6.675   4.027 -0.8522 -0.7526 -0.8919
 6638TIP3   OH241328   6.291   3.617   3.118  0.3994  0.1092 -0.0583
 6638TIP3    H141329   6.385   3.630   3.122  0.5040 -0.7192  0.3817
 6638TIP3    H241330   6.279   3.522   3.117 -0.4279  0.1998 -0.1967
 6639TIP3   OH241331   1.017   2.679   0.121 -0.0275  0.0933  0.6439
 6639TIP3    H141332   1.002   2.716   0.208 -3.5398  0.1845  0.1246
 6639TIP3    H241333   0.976   2.740   0.060 -1.0997 -1.8496 -0.7085
 6640TIP3   OH241334   5.064   4.213  12.313 -0.3809  0.0009  0.3837
 6640TIP3    H141335   5.108   4.132  12.287  2.2153  0.9592  1.3976
 6640TIP3    H241336   5.067   4.268  12.235 -1.5612 -0.5923 -0.1102
 6641TIP3   OH241337   4.041   1.514  16.839 -0.8409 -0.3359 -0.3221
 6641TIP3    H141338   4.043   1.493  16.933  1.3097  1.6951  0.1515
 6641TIP3    H241339   4.124   1.481  16.805 -0.8933  0.4006 -1.1880
 6642TIP3   OH241340   3.792   3.536   2.035 -0.3821  0.2988  0.2544
 6642TIP3    H141341   3.707   3.529   1.991 -0.4218  0.1990  0.3472
 6642TIP3    H241342   3.797   3.628   2.062  0.4231  0.8260 -1.5342
 6643TIP3   OH241343   5.529   1.407   4.046 -0.0514 -0.0236 -0.0070
 6643TIP3    H141344   5.456   1.396   4.107 -0.4589  0.8113 -0.3201
 6643TIP3    H241345   5.489   1.448   3.969  0.6412 -0.1182 -0.4211
 6644TIP3   OH241346   4.647   3.672   0.184  0.2889  0.2006 -0.2115
 6644TIP3    H141347   4.553   3.681   0.165 -0.1304 -2.1106  0.4116
 6644TIP3    H241348   4.687   3.656   0.098  0.1435  1.1447 -0.4731
 6645TIP3   OH241349   2.174   2.645  12.150 -0.3815  0.0057  0.1571
 6645TIP3    H141350   2.201   2.727  12.192 -1.6421 -0.4494  1.9719
 6645TIP3    H241351   2.217   2.576  12.201 -1.0515 -0.5221  0.0255
 6646TIP3   OH241352   5.811   0.559   3.311  0.0802 -0.6300  0.4334
 6646TIP3    H141353   5.897   0.526   3.335 -0.0890 -1.7913 -0.4747
 6646TIP3    H241354   5.758   0.481   3.296 -0.1769 -0.0219 -2.4465
 6647TIP3   OH241355   4.620   3.526  14.553 -0.0615  0.4975 -0.0880
 6647TIP3    H141356   4.564   3.566  14.619  1.8273  0.4530  1.6660
 6647TIP3    H241357   4.626   3.434  14.579 -0.1776  0.2257 -0.9892
 6648TIP3   OH241358   2.441   5.498   1.664 -0.2001 -0.2236 -0.1090
 6648TIP3    H141359   2.514   5.532   1.715 -0.6375  0.9258 -0.2336
 6648TIP3    H241360   2.449   5.541   1.579 -0.7726 -0.4234 -0.2657
 6649TIP3   OH241361   2.905   4.406  10.724 -0.9669  0.4022 -0.0323
 6649TIP3    H141362   2.830   4.454  10.761 -0.6510  1.5177 -0.7822
 6649TIP3    H241363   2.968   4.474  10.702 -1.3243 -0.1084 -3.0767
 6650TIP3   OH241364   2.384   0.472  13.635  0.1444  0.1108 -0.2229
 6650TIP3    H141365   2.458   0.524  13.604  0.3524 -0.1429 -0.1532
 6650TIP3    H241366   2.344   0.438  13.555 -0.5893  1.1745 -0.3367
 6651TIP3   OH241367   3.459   1.131  16.406  0.5281 -0.3180  0.3488
 6651TIP3    H141368   3.500   1.117  16.491  2.5553  0.5873 -0.4066
 6651TIP3    H241369   3.510   1.202  16.366 -0.7695 -0.2748 -1.3580
 6652TIP3   OH241370   6.346   0.105   1.318  0.2536 -0.5005 -0.4393
 6652TIP3    H141371   6.361   0.012   1.334  1.4410 -0.0949  1.0968
 6652TIP3    H241372   6.270   0.127   1.372  0.6507 -0.3731  0.0835
 6653TIP3   OH241373   0.861   3.214  15.221 -0.0304  0.1002 -0.1604
 6653TIP3    H141374   0.904   3.274  15.160 -1.8159 -0.0330 -1.6342
 6653TIP3    H241375   0.836   3.268  15.295 -0.5911  0.9431 -0.9519
 6654TIP3   OH241376   2.714   0.490  11.763 -0.4177  0.1450 -0.3861
 6654TIP3    H141377   2.714   0.401  11.728 -0.3844  0.5391 -1.4412
 6654TIP3    H241378   2.622   0.514  11.769 -0.4088  0.2688 -0.7258
 6655TIP3   OH241379   5.292   6.478   0.850 -0.3063 -0.4829 -0.5863
 6655TIP3    H141380   5.219   6.475   0.788 -2.2397  2.5386  1.2894
 6655TIP3    H241381   5.365   6.511   0.799 -1.7413  1.5539 -1.4394
 6656TIP3   OH241382   4.171   4.875  13.525 -0.1835  0.4966 -1.0131
 6656TIP3    H141383   4.193   4.962  13.558 -0.9479 -0.4352  2.4182
 6656TIP3    H241384   4.105   4.890  13.458 -0.1443  2.5588 -0.6506
 6657TIP3   OH241385   5.787   0.945   0.737  0.0719  0.2873 -0.1003
 6657TIP3    H141386   5.867   0.894   0.747  1.1740  1.8502 -0.6144
 6657TIP3    H241387   5.757   0.925   0.648 -0.3310 -0.5672  0.2129
 6658TIP3   OH241388   1.977   0.237  16.885  0.2734 -0.4599 -0.6647
 6658TIP3    H141389   1.976   0.237  16.981  1.5422  0.1844 -0.6388
 6658TIP3    H241390   1.982   0.144  16.862 -0.9721 -0.6778 -0.1414
 6659TIP3   OH241391   1.890   4.135  15.164  0.2739 -0.0848 -0.1546
 6659TIP3    H141392   1.851   4.055  15.127 -1.0979  1.3415 -1.9767
 6659TIP3    H241393   1.846   4.206  15.118  1.5414  1.7485  1.3381
 6660TIP3   OH241394   1.748   0.964  12.645 -0.1909  0.3960  0.0628
 6660TIP3    H141395   1.745   1.050  12.603  0.5747  0.6903  0.5954
 6660TIP3    H241396   1.770   0.983  12.736  0.6780 -0.4167  0.0291
 6661TIP3   OH241397   0.993   5.935   2.150 -0.2705  0.7705  0.1994
 6661TIP3    H141398   1.052   6.004   2.181  1.1629 -0.2244 -0.1847
 6661TIP3    H241399   1.014   5.859   2.205 -2.1684  0.7205  0.9518
 6662TIP3   OH241400   6.568   1.350  12.304  0.8591 -0.3910  0.0525
 6662TIP3    H141401   6.577   1.366  12.210 -0.1652  0.8033  0.1348
 6662TIP3    H241402   6.640   1.290  12.325  1.0033 -0.8216 -1.5146
 6663TIP3   OH241403   1.038   4.763   2.550 -0.7913  0.8073 -0.2741
 6663TIP3    H141404   0.979   4.786   2.478 -0.1466  0.1612 -1.0296
 6663TIP3    H241405   0.986   4.708   2.608 -0.3823 -1.6048 -2.0407
 6664TIP3   OH241406   4.527   6.659  14.922 -0.3852 -0.4575  0.0873
 6664TIP3    H141407   4.452   6.617  14.965 -0.5735 -0.2256 -0.0194
 6664TIP3    H241408   4.593   6.665  14.992 -1.3398  1.6270  0.8865
 6665TIP3   OH241409   5.675   3.578   4.810 -0.1291  0.5102 -0.4732
 6665TIP3    H141410   5.711   3.662   4.841 -0.8828  1.3266 -1.7302
 6665TIP3    H241411   5.581   3.584   4.828 -0.0770 -0.4118  0.1588
 6666TIP3   OH241412   4.507   5.299  14.107 -0.1955 -0.1335 -0.1021
 6666TIP3    H141413   4.460   5.277  14.187 -0.0392 -2.0551 -0.5064
 6666TIP3    H241414   4.581   5.353  14.137  0.4088 -1.6207  1.1923
 6667TIP3   OH241415   2.485   1.688   5.585 -0.0562  0.4635 -0.1787
 6667TIP3    H141416   2.423   1.674   5.514 -0.2568  1.1799 -0.1526
 6667TIP3    H241417   2.487   1.605   5.632  1.8780 -0.9163 -2.3931
 6668TIP3   OH241418   4.278   3.885   2.795  1.1429 -0.2579 -0.0464
 6668TIP3    H141419   4.283   3.975   2.764  0.2600  0.1857  1.0343
 6668TIP3    H241420   4.286   3.832   2.716  1.7999  0.7530 -0.6872
 6669TIP3   OH241421   1.229   2.153  13.337 -0.1383 -0.7324 -0.1078
 6669TIP3    H141422   1.221   2.108  13.421  2.1269  1.6189  1.5305
 6669TIP3    H241423   1.296   2.103  13.290 -0.1667 -1.0701  0.2037
 6670TIP3   OH241424   2.300   3.439   3.877  0.2934  0.2329  0.5696
 6670TIP3    H141425   2.263   3.512   3.827  0.9042 -0.0278 -0.2929
 6670TIP3    H241426   2.349   3.481   3.947 -0.0819  0.6273  0.6008
 6671TIP3   OH241427   3.501   2.283   5.226  0.4552  0.3035  0.2366
 6671TIP3    H141428   3.415   2.317   5.250  0.5309  0.0255  0.9216
 6671TIP3    H241429   3.485   2.191   5.206  0.4469  0.4593 -0.5115
 6672TIP3   OH241430   4.696   2.618   1.802 -0.3549 -0.2542  0.3091
 6672TIP3    H141431   4.708   2.604   1.896 -1.2398 -1.7717  0.2289
 6672TIP3    H241432   4.749   2.695   1.783  2.8219 -1.9835  1.3717
 6673TIP3   OH241433   0.758   0.156  13.742  0.0675  0.2875 -0.0537
 6673TIP3    H141434   0.725   0.066  13.746 -0.5994  0.5069 -0.4187
 6673TIP3    H241435   0.845   0.152  13.782  0.5373 -0.7449 -1.1393
 6674TIP3   OH241436   1.926   5.177   4.464  0.2201 -0.0429 -0.1065
 6674TIP3    H141437   1.937   5.157   4.371  1.9122  0.6264 -0.1010
 6674TIP3    H241438   1.888   5.098   4.501  0.2108 -0.5955 -1.2404
 6675TIP3   OH241439   6.777   2.744  13.809 -0.1943  0.1767 -0.1054
 6675TIP3    H141440   6.755   2.808  13.878  1.3303  0.4722  0.1578
 6675TIP3    H241441   6.797   2.664  13.857  0.2127  0.1943 -0.2382
 6676TIP3   OH241442   3.870   1.016  16.477  0.2336 -0.3009 -0.6100
 6676TIP3    H141443   3.963   1.038  16.472  0.0173  0.3608 -2.4055
 6676TIP3    H241444   3.856   0.955  16.405 -0.8399  0.0737 -0.7388
 6677TIP3   OH241445   4.975   3.556  14.939  0.3367  0.7188 -0.4458
 6677TIP3    H141446   5.039   3.619  14.907  0.2678  0.4917 -1.0417
 6677TIP3    H241447   4.952   3.587  15.027  0.2316  1.5684 -0.7684
 6678TIP3   OH241448   1.770   1.393  16.328  0.6989 -0.0133  0.2833
 6678TIP3    H141449   1.829   1.361  16.259 -1.4831 -2.5242 -0.5745
 6678TIP3    H241450   1.811   1.366  16.410  0.5987 -2.1963 -0.3169
 6679TIP3   OH241451   4.770   1.685   1.565 -0.2232  0.3689  0.0479
 6679TIP3    H141452   4.835   1.636   1.615  2.2609  2.0647 -1.2972
 6679TIP3    H241453   4.724   1.738   1.630 -0.4061 -0.9709  1.0463
 6680TIP3   OH241454   3.766   5.288  15.872 -0.2107 -0.4507 -0.4356
 6680TIP3    H141455   3.743   5.220  15.935 -0.7100 -1.2016 -1.3927
 6680TIP3    H241456   3.860   5.303  15.885 -0.4962  0.1101  1.1301
 6681TIP3   OH241457   4.068   5.135  16.170  0.0880 -0.5990 -0.0956
 6681TIP3    H141458   4.136   5.186  16.215 -0.6533  0.2411  0.1199
 6681TIP3    H241459   3.996   5.131  16.233 -0.2192 -1.1075 -0.4752
 6682TIP3   OH241460   4.518   3.826  12.312 -0.4751 -0.8414  0.0059
 6682TIP3    H141461   4.432   3.859  12.336 -0.0184  1.0230 -0.7455
 6682TIP3    H241462   4.579   3.884  12.357  0.3746 -0.6408 -1.3347
 6683TIP3   OH241463   4.861   6.530   0.593 -0.5402 -0.2240  0.2292
 6683TIP3    H141464   4.948   6.568   0.578 -0.9558 -0.1282 -2.2601
 6683TIP3    H241465   4.800   6.599   0.570 -1.2872 -0.9337  0.0443
 6684TIP3   OH241466   2.821   6.152  16.131 -0.3523  0.5806 -0.3902
 6684TIP3    H141467   2.779   6.081  16.083  0.0188  0.9734 -1.3057
 6684TIP3    H241468   2.878   6.108  16.194  0.4598  0.0605 -1.4679
 6685TIP3   OH241469   3.968   5.238   2.452 -0.0943 -1.0142  0.0536
 6685TIP3    H141470   3.887   5.236   2.504  1.1095 -2.1850  2.0369
 6685TIP3    H241471   4.021   5.167   2.489  1.6936 -0.5200 -1.4390
 6686TIP3   OH241472   5.449   2.175  16.613 -0.3096  0.4596 -0.1640
 6686TIP3    H141473   5.476   2.253  16.662  0.9678 -0.5587  0.8282
 6686TIP3    H241474   5.528   2.148  16.565 -0.4759 -0.6970  0.1832
 6687TIP3   OH241475   2.351   5.300  11.677 -0.3616 -0.3104 -0.0915
 6687TIP3    H141476   2.357   5.321  11.584 -0.2452 -0.8458 -0.2053
 6687TIP3    H241477   2.430   5.250  11.695  1.4091  2.6450  1.0724
 6688TIP3   OH241478   6.693   1.762  13.995  0.1322  0.3837  0.2610
 6688TIP3    H141479   6.714   1.751  14.088 -2.2903 -0.7208  0.7556
 6688TIP3    H241480   6.669   1.674  13.966 -0.0013  0.8893 -1.1966
 6689TIP3   OH241481   0.304   2.424  16.249  0.2540 -0.1992  0.3932
 6689TIP3    H141482   0.263   2.345  16.281 -1.1127  0.5889  0.6480
 6689TIP3    H241483   0.366   2.449  16.318  0.5353 -0.8999  0.4060
 6690TIP3   OH241484   1.664   0.810   4.167 -0.3417  1.1173  0.6778
 6690TIP3    H141485   1.672   0.741   4.233  0.7949  0.5984  0.0269
 6690TIP3    H241486   1.664   0.763   4.083 -2.0151  1.7457  0.2875
 6691TIP3   OH241487   1.024   6.545   4.546 -0.0646  0.2310 -0.1543
 6691TIP3    H141488   0.934   6.554   4.578 -0.0057  1.4231 -0.2685
 6691TIP3    H241489   1.029   6.603   4.470  1.1170  1.1706  0.5836
 6692TIP3   OH241490   4.743   3.023   4.302 -0.6702 -0.5004 -0.2530
 6692TIP3    H141491   4.763   3.009   4.394  0.4825  0.6619 -0.2906
 6692TIP3    H241492   4.651   2.999   4.293 -0.0440 -3.6054  0.5022
 6693TIP3   OH241493   6.655   4.169   4.373  0.2874 -0.3966 -0.6384
 6693TIP3    H141494   6.677   4.078   4.393 -0.0903 -0.7365 -1.6626
 6693TIP3    H241495   6.691   4.184   4.285  1.4061  0.8387 -0.0001
 6694TIP3   OH241496   4.662   0.829   0.342 -0.0021 -0.1270  0.1100
 6694TIP3    H141497   4.634   0.888   0.272 -1.2740  0.3090  0.9503
 6694TIP3    H241498   4.756   0.818   0.328  0.6497  3.4312  0.9289
 6695TIP3   OH241499   5.882   3.219   0.626 -0.3080 -0.0957 -0.3780
 6695TIP3    H141500   5.833   3.168   0.690 -0.7128  0.0732 -0.5478
 6695TIP3    H241501   5.970   3.227   0.663 -0.7110  0.5358  0.4557
 6696TIP3   OH241502   4.443   1.794  15.331  0.0468  0.4510  0.0676
 6696TIP3    H141503   4.372   1.848  15.366 -0.3913 -0.3522  0.4594
 6696TIP3    H241504   4.449   1.721  15.392 -0.3217 -0.6787 -1.1937
 6697TIP3   OH241505   5.975   0.243   4.197 -0.0768 -0.4059 -0.3521
 6697TIP3    H141506   6.052   0.206   4.240 -0.6757 -0.9607  0.2578
 6697TIP3    H241507   5.924   0.283   4.268 -0.2951  0.0620 -0.7668
 6698TIP3   OH241508   1.934   3.153  13.747  0.0322 -0.4533 -0.0930
 6698TIP3    H141509   1.972   3.065  13.743  1.5365  0.1850 -0.9156
 6698TIP3    H241510   1.840   3.140  13.734  0.2582 -1.9168 -0.4354
 6699TIP3   OH241511   3.976   5.422  15.541 -0.2398  0.5284 -0.1625
 6699TIP3    H141512   4.010   5.471  15.466  1.9518  0.3154  0.6151
 6699TIP3    H241513   4.022   5.459  15.617 -1.1775 -0.3564  0.8753
 6700TIP3   OH241514   4.203   5.888  11.145 -0.8982 -0.8794 -0.3801
 6700TIP3    H141515   4.198   5.881  11.050  0.6706 -1.7616 -0.4419
 6700TIP3    H241516   4.124   5.845  11.176 -1.0130 -1.3495 -1.2810
 6701TIP3   OH241517   2.898   3.364  13.902 -0.6441  0.2337 -0.0596
 6701TIP3    H141518   2.861   3.409  13.978  0.4327  0.5486  0.3047
 6701TIP3    H241519   2.926   3.435  13.844 -1.7699 -0.0069 -0.9255
 6702TIP3   OH241520   1.215   5.973   1.912 -0.5014  0.0826  0.4770
 6702TIP3    H141521   1.196   6.067   1.904 -1.3823 -0.0232  1.2502
 6702TIP3    H241522   1.137   5.936   1.952  0.3079 -0.8066  1.2615
 6703TIP3   OH241523   2.883   4.266  12.429  0.5250  0.7179 -0.2064
 6703TIP3    H141524   2.940   4.230  12.361  0.6107  0.6353 -0.0936
 6703TIP3    H241525   2.797   4.271  12.389  0.4843  0.2511 -0.1819
 6704TIP3   OH241526   3.785   0.763   2.212  0.0056 -0.0434  0.3848
 6704TIP3    H141527   3.758   0.684   2.258 -1.4028  0.3488  0.2658
 6704TIP3    H241528   3.847   0.805   2.272 -0.2752 -0.5485  1.0419
 6705TIP3   OH241529   5.084   2.875  15.423 -0.3700 -0.0818  0.5636
 6705TIP3    H141530   5.122   2.901  15.340  2.0417  1.5694  2.0511
 6705TIP3    H241531   5.159   2.869  15.483 -1.8739 -2.1648  2.4255
 6706TIP3   OH241532   1.039   6.335   1.785  0.3193  0.0996 -0.2631
 6706TIP3    H141533   1.055   6.425   1.814  1.8744  0.0047 -0.7791
 6706TIP3    H241534   1.074   6.281   1.855  0.6851 -0.1093 -0.6065
 6707TIP3   OH241535   0.353   3.138   2.524  0.1997 -0.2761  0.4280
 6707TIP3    H141536   0.282   3.078   2.501 -0.0929 -0.3241  1.4194
 6707TIP3    H241537   0.309   3.214   2.562  0.6482 -0.0458  0.4945
 6708TIP3   OH241538   4.936   6.600   1.574 -0.4189  0.0259 -0.6090
 6708TIP3    H141539   4.864   6.549   1.537  0.9170 -2.9683  0.5801
 6708TIP3    H241540   4.894   6.663   1.632 -2.1303 -1.5959  0.0075
 6709TIP3   OH241541   6.612   1.539  13.870  0.0673 -0.0595 -0.0760
 6709TIP3    H141542   6.569   1.453  13.877 -1.7543  0.8230  0.3787
 6709TIP3    H241543   6.555   1.589  13.811  1.8456  0.4376 -1.4404
 6710TIP3   OH241544   2.886   0.232   2.048  0.2246  0.0934  0.3825
 6710TIP3    H141545   2.980   0.248   2.062 -0.1795  0.5270  3.0409
 6710TIP3    H241546   2.865   0.159   2.106 -1.1013 -0.0060 -0.1848
 6711TIP3   OH241547   3.604   1.180  12.001  0.3751  0.0920 -0.4420
 6711TIP3    H141548   3.655   1.156  12.078 -0.5547 -0.2350  0.0926
 6711TIP3    H241549   3.664   1.230  11.946  0.7450  1.3077  1.0105
 6712TIP3   OH241550   2.182   3.111  16.375 -0.2572 -0.4663  0.0790
 6712TIP3    H141551   2.104   3.135  16.325 -0.1893  1.2604  0.7149
 6712TIP3    H241552   2.254   3.152  16.328  0.3140 -2.0972 -0.5386
 6713TIP3   OH241553   2.160   1.074   2.071 -0.4374  0.2464  0.0048
 6713TIP3    H141554   2.230   1.137   2.084  1.6298 -1.2642 -2.6180
 6713TIP3    H241555   2.108   1.111   1.999  0.6258 -0.7589 -1.3585
 6714TIP3   OH241556   5.853   3.270   6.319  0.1863 -0.0097 -0.4297
 6714TIP3    H141557   5.763   3.272   6.286 -0.2988  0.2479  0.8219
 6714TIP3    H241558   5.878   3.178   6.314 -0.4319 -0.2053 -0.1234
 6715TIP3   OH241559   3.488   5.396  12.881  0.1016  0.6047  0.6783
 6715TIP3    H141560   3.440   5.331  12.931 -0.1991 -2.0473 -2.6850
 6715TIP3    H241561   3.577   5.393  12.915  0.2164 -2.0553  0.2890
 6716TIP3   OH241562   6.134   4.871  14.124 -0.9013 -0.0969 -0.6138
 6716TIP3    H141563   6.131   4.937  14.055  0.0177 -0.5673 -1.1193
 6716TIP3    H241564   6.189   4.801  14.088  2.2286  0.9629  1.7023
 6717TIP3   OH241565   0.358   3.217   3.240  0.4441  0.3903  0.3093
 6717TIP3    H141566   0.348   3.230   3.334 -1.8259 -1.6468  0.4506
 6717TIP3    H241567   0.419   3.144   3.232 -0.5928 -0.5142  0.3336
 6718TIP3   OH241568   1.405   6.562   4.772 -0.5731 -0.0959 -0.2848
 6718TIP3    H141569   1.450   6.493   4.820 -1.6120  0.2666  1.2815
 6718TIP3    H241570   1.452   6.642   4.794  0.2859 -0.1795 -1.6585
 6719TIP3   OH241571   2.283   5.601  13.377  0.2034  0.1778 -0.2561
 6719TIP3    H141572   2.356   5.540  13.367 -1.7770 -2.1496 -1.5351
 6719TIP3    H241573   2.285   5.654  13.297  1.4612  1.3671  0.5101
 6720TIP3   OH241574   4.204   4.376   3.334  0.4482 -0.4588  0.2150
 6720TIP3    H141575   4.201   4.458   3.383 -2.0014 -1.1508  1.3731
 6720TIP3    H241576   4.282   4.331   3.369  0.8190  0.6085  0.8102
 6721TIP3   OH241577   2.614   6.064   1.221 -0.3086 -0.3359 -0.1076
 6721TIP3    H141578   2.606   6.139   1.162  0.3240 -1.5266 -1.7878
 6721TIP3    H241579   2.657   6.099   1.299  2.1585  0.6470 -1.7995
 6722TIP3   OH241580   4.616   3.892  16.544 -0.6484  0.2711  0.5705
 6722TIP3    H141581   4.588   3.961  16.603  1.6679  0.1948  1.8569
 6722TIP3    H241582   4.594   3.811  16.590  0.6630  0.2094  1.1237
 6723TIP3   OH241583   5.977   0.529  15.649  0.4089 -0.0154 -0.4439
 6723TIP3    H141584   5.896   0.578  15.635  0.3009 -0.0468  0.0439
 6723TIP3    H241585   5.948   0.448  15.693  0.9055  0.8617  1.6019
 6724TIP3   OH241586   4.425   2.549  10.690  0.0940  0.2523 -0.1063
 6724TIP3    H141587   4.498   2.563  10.630 -0.7497  0.2155 -1.1702
 6724TIP3    H241588   4.414   2.454  10.695 -1.8428  0.2488 -2.4778
 6725TIP3   OH241589   1.378   0.009  14.065 -0.0178  0.1596  0.2983
 6725TIP3    H141590   1.392   0.088  14.013  0.4737  0.5721  1.0338
 6725TIP3    H241591   1.435   0.020  14.142 -1.1120 -0.1950  1.1869
 6726TIP3   OH241592   5.273   0.711  14.417 -0.1326  0.5470  0.8831
 6726TIP3    H141593   5.313   0.725  14.331 -0.5979  1.0372  0.7428
 6726TIP3    H241594   5.331   0.648  14.460  0.1483  0.3572  0.2426
 6727TIP3   OH241595   4.172   2.763  11.770  1.0013 -0.1721  0.3865
 6727TIP3    H141596   4.190   2.682  11.722 -1.3580  0.5787 -1.9945
 6727TIP3    H241597   4.235   2.826  11.734 -0.2647  0.1944 -1.2749
 6728TIP3   OH241598   1.065   0.282   1.931 -0.8895 -0.0477  0.0312
 6728TIP3    H141599   1.118   0.212   1.966  1.7358  0.9656 -1.6155
 6728TIP3    H241600   1.090   0.360   1.981 -0.6539  0.4841 -0.8844
 6729TIP3   OH241601   6.113   1.001  13.423 -0.3316  0.2393  0.1963
 6729TIP3    H141602   6.055   0.990  13.347  0.6957 -0.2092 -0.5479
 6729TIP3    H241603   6.064   1.058  13.482 -1.1284  0.6753 -0.8460
 6730TIP3   OH241604   4.804   2.928  14.112  0.2147 -0.1932 -0.6191
 6730TIP3    H141605   4.771   2.984  14.183  1.0398  1.2774 -1.3518
 6730TIP3    H241606   4.863   2.867  14.156  2.7412  2.3310 -0.2649
 6731TIP3   OH241607   2.353   5.670  14.204  0.0447 -0.3210  0.4818
 6731TIP3    H141608   2.438   5.707  14.230  0.0746  0.7709 -1.0373
 6731TIP3    H241609   2.292   5.701  14.271  0.4717  0.7014  0.4170
 6732TIP3   OH241610   0.209   3.097  11.867 -0.1722 -0.2853  0.2602
 6732TIP3    H141611   0.244   3.066  11.951 -1.5506 -0.7878  0.6776
 6732TIP3    H241612   0.146   3.165  11.890  1.9747  2.1629 -0.5960
 6733TIP3   OH241613   1.650   6.402   0.287 -0.6900 -0.4421  0.5250
 6733TIP3    H141614   1.618   6.328   0.339 -1.0734  1.2853  2.8908
 6733TIP3    H241615   1.745   6.388   0.283 -0.6435 -0.6114  1.7616
 6734TIP3   OH241616   6.216   2.609  13.112  0.2488  0.5175 -0.2021
 6734TIP3    H141617   6.201   2.551  13.037 -1.7268  0.7333 -0.0313
 6734TIP3    H241618   6.270   2.557  13.172  1.1531  0.0398 -1.3921
 6735TIP3   OH241619   6.192   1.709   3.459  0.2247  0.2404  0.1029
 6735TIP3    H141620   6.117   1.767   3.448 -0.7831 -0.2006  3.4318
 6735TIP3    H241621   6.256   1.760   3.509  0.5578 -0.5768  0.5397
 6736TIP3   OH241622   6.103   1.262   4.835  0.1198 -0.0127 -0.1393
 6736TIP3    H141623   6.133   1.176   4.806  3.6860  1.0103  0.0008
 6736TIP3    H241624   6.014   1.270   4.803  0.0079 -3.3755 -0.9182
 6737TIP3   OH241625   6.562   3.631  15.378  0.1908 -0.9269  0.3868
 6737TIP3    H141626   6.515   3.602  15.301  1.2626 -1.1705 -0.1868
 6737TIP3    H241627   6.564   3.555  15.436 -1.6382 -0.4199  1.2112
 6738TIP3   OH241628   0.861   1.361  14.268 -0.4803 -0.4217  0.2673
 6738TIP3    H141629   0.895   1.351  14.179 -2.4526  1.0416 -0.7072
 6738TIP3    H241630   0.883   1.451  14.292 -0.5515 -0.5996  1.0331
 6739TIP3   OH241631   6.554   5.245  15.477  0.2675  0.0056 -0.3766
 6739TIP3    H141632   6.531   5.206  15.562 -0.8152  0.0289 -0.6378
 6739TIP3    H241633   6.531   5.177  15.413  0.5355  0.2086 -0.6899
 6740TIP3   OH241634   4.671   0.011  10.729  0.7416  0.0431 -0.2785
 6740TIP3    H141635   4.702   0.094  10.765  0.8990 -0.8688  1.8469
 6740TIP3    H241636   4.587  -0.004  10.773  1.2629 -1.4523  0.2623
 6741TIP3   OH241637   6.344   5.135   4.250 -0.3875 -0.2392  0.0623
 6741TIP3    H141638   6.376   5.132   4.341  0.6946 -3.8514 -0.2792
 6741TIP3    H241639   6.301   5.051   4.238 -1.3897  0.5716 -2.5309
 6742TIP3   OH241640   6.583   4.013  17.187  0.1583 -0.2517 -0.5895
 6742TIP3    H141641   6.669   4.042  17.157  0.5481  1.5766  1.9956
 6742TIP3    H241642   6.522   4.079  17.152  0.3446  0.6479  0.7122
 6743TIP3   OH241643   5.753   3.482  13.403 -0.7044  0.6070 -0.1056
 6743TIP3    H141644   5.782   3.568  13.433 -1.6403  0.9419 -0.1237
 6743TIP3    H241645   5.758   3.488  13.307  0.0461  0.3375 -0.0923
 6744TIP3   OH241646   6.068   4.210  11.595  0.4906 -0.0933 -0.1159
 6744TIP3    H141647   6.011   4.287  11.588 -1.5655 -1.5749 -0.6828
 6744TIP3    H241648   6.130   4.232  11.665 -0.7284  1.6509  0.4744
 6745TIP3   OH241649   4.695   5.151   2.502  0.1062  0.5922  0.0867
 6745TIP3    H141650   4.674   5.134   2.410  1.1421 -1.4662  0.1502
 6745TIP3    H241651   4.770   5.210   2.500  1.0790 -0.6286 -0.4740
 6746TIP3   OH241652   1.780   2.943  12.234 -0.0375 -1.0446 -0.1258
 6746TIP3    H141653   1.797   2.961  12.141 -0.6555 -0.4624 -0.1334
 6746TIP3    H241654   1.753   2.851  12.236 -1.7224 -0.6009 -0.7668
 6747TIP3   OH241655   0.971   6.145  14.225  0.3464 -0.4276 -0.0872
 6747TIP3    H141656   0.887   6.192  14.226 -0.1918 -1.3582 -0.0645
 6747TIP3    H241657   1.028   6.198  14.169 -0.7943 -0.6488 -1.5257
 6748TIP3   OH241658   1.147   3.107  12.110  0.1058  0.0140  0.1316
 6748TIP3    H141659   1.177   3.019  12.087 -3.7517 -0.7339 -3.2391
 6748TIP3    H241660   1.178   3.162  12.038 -0.1608  0.7332  0.5622
 6749TIP3   OH241661   6.205   6.418  14.733 -0.1663 -0.0617 -0.2308
 6749TIP3    H141662   6.253   6.474  14.795 -0.0577 -3.3733  3.0269
 6749TIP3    H241663   6.271   6.357  14.700 -1.0973 -1.2742  0.0874
 6750TIP3   OH241664   1.774   3.286   4.211 -0.1295 -0.7739 -0.3221
 6750TIP3    H141665   1.690   3.311   4.249  1.3995 -0.7274  3.4775
 6750TIP3    H241666   1.782   3.192   4.231  1.8276 -0.1960  2.0880
 6751TIP3   OH241667   2.254   4.120   5.361 -0.3913 -0.3649 -0.2080
 6751TIP3    H141668   2.267   4.215   5.364  0.4709 -0.4438 -1.2084
 6751TIP3    H241669   2.166   4.110   5.324  0.0496  0.0350 -1.4222
 6752TIP3   OH241670   6.051   0.919  13.898  0.5110  0.3763 -0.1282
 6752TIP3    H141671   6.037   0.940  13.990  1.1094 -0.8875  0.2676
 6752TIP3    H241672   6.137   0.877  13.895  0.3927  0.1823 -1.2258
 6753TIP3   OH241673   0.723   4.735  15.145  0.2328 -0.1256 -0.3541
 6753TIP3    H141674   0.714   4.777  15.059 -0.7990 -0.8790 -0.6272
 6753TIP3    H241675   0.697   4.644  15.130  0.4005 -0.3529  0.6842
 6754TIP3   OH241676   2.018   1.418   1.580  0.1763  0.3943  0.5163
 6754TIP3    H141677   2.064   1.491   1.620  0.0655  0.5692  0.3262
 6754TIP3    H241678   1.928   1.425   1.613 -0.3204  1.4419 -0.9189
 6755TIP3   OH241679   4.875   3.401   3.934  0.4684 -0.4356  0.0516
 6755TIP3    H141680   4.842   3.327   3.985  0.6822 -0.2403  0.4772
 6755TIP3    H241681   4.966   3.378   3.913  0.4631 -0.3968 -0.0156
 6756TIP3   OH241682   0.795   4.561   5.882 -0.0367  0.3290 -0.1769
 6756TIP3    H141683   0.758   4.634   5.932 -0.3056 -0.8791  1.4877
 6756TIP3    H241684   0.827   4.601   5.801 -1.3767  2.0581  0.0849
 6757TIP3   OH241685   3.317   0.534  10.205  0.1788  0.6779  0.0558
 6757TIP3    H141686   3.268   0.614  10.225 -0.3729  0.1289  0.9241
 6757TIP3    H241687   3.252   0.473  10.173  0.6245  0.6028 -0.7317
 6758TIP3   OH241688   0.052   3.146  14.257 -0.8610 -0.0457 -0.1011
 6758TIP3    H141689   0.131   3.092  14.261  0.1646  1.2950 -1.2857
 6758TIP3    H241690  -0.007   3.098  14.199 -0.2036 -0.2182 -0.6466
 6759TIP3   OH241691   5.091   1.363  13.517 -0.2478 -0.8814 -0.3003
 6759TIP3    H141692   5.167   1.412  13.487 -0.0254  0.1510  1.7572
 6759TIP3    H241693   5.016   1.412  13.484 -0.0338  1.0293  1.7729
 6760TIP3   OH241694   1.523   0.129   0.964 -0.0246  0.0220  0.0717
 6760TIP3    H141695   1.443   0.155   1.010 -0.0352 -0.0883  0.1155
 6760TIP3    H241696   1.535   0.037   0.986 -1.1382 -0.6157 -1.7569
 6761TIP3   OH241697   5.114   3.519   4.091 -0.7186  0.5035  0.0926
 6761TIP3    H141698   5.050   3.472   4.145  0.1606 -1.1084 -0.1989
 6761TIP3    H241699   5.199   3.488   4.123 -0.1537 -1.1960 -2.6967
 6762TIP3   OH241700   0.120   5.500  11.970 -0.5639  0.3510 -0.2748
 6762TIP3    H141701   0.060   5.466  11.905 -0.0489 -1.1091 -0.0241
 6762TIP3    H241702   0.174   5.425  11.996  0.9594  1.4600 -0.0391
 6763TIP3   OH241703   0.830   1.806   5.849  0.1563 -0.3106 -0.0750
 6763TIP3    H141704   0.902   1.743   5.852  1.3692  1.0552  0.6036
 6763TIP3    H241705   0.789   1.800   5.935 -0.5221 -1.0354 -0.4358
 6764TIP3   OH241706   2.469   3.429  10.397 -0.1025 -0.0957  0.1954
 6764TIP3    H141707   2.383   3.392  10.419  0.3133 -1.1378  0.1614
 6764TIP3    H241708   2.528   3.353  10.399  0.5888  0.3843 -1.0313
 6765TIP3   OH241709   1.495   3.669   4.228 -0.2411 -0.2177  0.3628
 6765TIP3    H141710   1.480   3.741   4.290  0.5496  0.2964 -0.0447
 6765TIP3    H241711   1.422   3.676   4.166  0.2847  0.7475 -0.1611
 6766TIP3   OH241712   0.538   1.012  16.426 -0.0602 -0.2538 -0.0966
 6766TIP3    H141713   0.619   1.011  16.478 -0.8706  0.8944  1.2580
 6766TIP3    H241714   0.527   1.103  16.400 -0.9504 -0.3787 -0.1836
 6767TIP3   OH241715   1.453   1.943   5.683 -0.3527  0.3077  0.9033
 6767TIP3    H141716   1.459   1.854   5.717 -0.4377 -0.1563 -0.2619
 6767TIP3    H241717   1.542   1.977   5.686 -0.4294  0.4316  1.9833
 6768TIP3   OH241718   1.529   2.797   1.400 -0.1566 -0.2327 -0.3238
 6768TIP3    H141719   1.439   2.789   1.432  0.6758 -1.1231  2.0048
 6768TIP3    H241720   1.564   2.708   1.405  1.5300  0.4500  1.1179
 6769TIP3   OH241721   6.249   0.876  10.887 -0.2203 -0.0895  0.1477
 6769TIP3    H141722   6.296   0.959  10.884 -1.2035  0.4743  0.1159
 6769TIP3    H241723   6.308   0.818  10.936  0.1813  0.8124  0.7761
 6770TIP3   OH241724   3.713   5.903   3.866 -0.7904  0.3209  0.2209
 6770TIP3    H141725   3.638   5.931   3.919 -1.2257  1.2923 -0.8713
 6770TIP3    H241726   3.777   5.872   3.930 -1.6194  0.6868  1.2631
 6771TIP3   OH241727   1.421   5.094  12.076  0.0588 -0.4133  0.4185
 6771TIP3    H141728   1.379   5.180  12.087  2.5114  0.9148  0.1244
 6771TIP3    H241729   1.442   5.089  11.983  0.5669 -1.0281  0.5601
 6772TIP3   OH241730   4.058   5.499   0.389  0.3720  0.5286  0.1879
 6772TIP3    H141731   4.004   5.432   0.347 -0.3100  2.9617 -3.2463
 6772TIP3    H241732   3.996   5.553   0.438 -0.0657  1.8593 -1.7194
 6773TIP3   OH241733   2.335   1.897   1.231 -0.2772  0.3759 -0.5724
 6773TIP3    H141734   2.335   1.802   1.218  0.9272  0.5460 -2.1508
 6773TIP3    H241735   2.286   1.932   1.156 -1.5420  0.9917  0.4898
 6774TIP3   OH241736   1.679   4.176   0.274 -0.2630  0.6145 -0.3324
 6774TIP3    H141737   1.690   4.259   0.228  3.7956  0.1827 -0.5381
 6774TIP3    H241738   1.732   4.114   0.224 -1.1240 -1.4828  1.2294
 6775TIP3   OH241739   6.755   1.634   4.894  0.0687 -0.3010  0.1303
 6775TIP3    H141740   6.835   1.587   4.917  1.4613  1.7236 -0.2812
 6775TIP3    H241741   6.768   1.661   4.803 -0.7590  0.6543  0.2779
 6776TIP3   OH241742   6.004   1.363  12.920 -0.3823  0.1381  0.3335
 6776TIP3    H141743   6.054   1.302  12.866 -1.8170 -1.3024  0.5492
 6776TIP3    H241744   6.033   1.449  12.893  1.3039 -0.6284 -0.3973
 6777TIP3   OH241745   0.327   5.909  12.210  0.1422 -0.7026  0.1137
 6777TIP3    H141746   0.375   5.976  12.161  1.4577  0.1580  2.4131
 6777TIP3    H241747   0.392   5.841  12.229 -0.4153 -1.1676  0.3899
 6778TIP3   OH241748   3.256   4.483  12.391 -0.1980 -0.0011 -0.4344
 6778TIP3    H141749   3.276   4.492  12.484  1.7632  0.2695 -0.8323
 6778TIP3    H241750   3.203   4.560  12.371 -0.1569  0.2429  0.3484
 6779TIP3   OH241751   6.489   6.502   0.300  0.9192  0.1450  0.1143
 6779TIP3    H141752   6.509   6.549   0.381  0.6318 -1.0184  0.8924
 6779TIP3    H241753   6.569   6.510   0.248  1.1091  0.9154  0.5029
 6780TIP3   OH241754   4.818   1.569   3.530 -0.0359  0.7506  0.4020
 6780TIP3    H141755   4.822   1.656   3.571  3.0920  0.6694  0.5085
 6780TIP3    H241756   4.828   1.508   3.603  2.6947  0.5222 -0.0747
 6781TIP3   OH241757   4.702   1.163   4.414 -0.1277  0.1903  0.2231
 6781TIP3    H141758   4.722   1.073   4.438 -1.8069  0.2089  1.9654
 6781TIP3    H241759   4.742   1.216   4.483  2.2240  0.9861 -1.6133
 6782TIP3   OH241760   2.723   0.748   5.249 -0.0476  0.2058  0.2463
 6782TIP3    H141761   2.714   0.720   5.158 -0.4781  0.7860  0.1054
 6782TIP3    H241762   2.654   0.813   5.261  1.9794  2.5213  0.0568
 6783TIP3   OH241763   4.471   5.173  15.267  0.2458  0.3237 -0.1089
 6783TIP3    H141764   4.535   5.123  15.318  0.8082  0.6118 -0.5213
 6783TIP3    H241765   4.402   5.193  15.330  1.9494  2.5630  1.2132
 6784TIP3   OH241766   3.918   6.632   0.405  0.4436  0.5204 -0.0893
 6784TIP3    H141767   3.884   6.697   0.467  1.4838  1.3662 -0.3777
 6784TIP3    H241768   3.871   6.650   0.324  2.0366  2.1897 -0.7037
 6785TIP3   OH241769   0.227   3.959   3.904 -0.1095  0.0083 -0.7438
 6785TIP3    H141770   0.207   4.042   3.860  0.4160  0.7648  0.3930
 6785TIP3    H241771   0.277   3.909   3.839  0.7260  1.1296 -1.0096
 6786TIP3   OH241772   2.682   3.768   5.218  0.0712  0.1599 -0.0637
 6786TIP3    H141773   2.588   3.752   5.226  0.2746 -0.2230  2.4769
 6786TIP3    H241774   2.699   3.838   5.281  1.6569 -0.6739  0.4882
 6787TIP3   OH241775   1.181   6.527   5.379  0.1968  0.0469  0.5009
 6787TIP3    H141776   1.178   6.622   5.388  1.0099  0.2297 -0.9582
 6787TIP3    H241777   1.144   6.509   5.293  2.1185 -0.7469 -0.2239
 6788TIP3   OH241778   4.859   1.714   1.046  0.3633  0.3081  0.4970
 6788TIP3    H141779   4.789   1.732   0.982 -0.3709 -1.1938  0.8244
 6788TIP3    H241780   4.824   1.745   1.129  0.7811  1.0504  0.4084
 6789TIP3   OH241781   1.971   1.819  14.423  0.2813 -0.2359  0.4321
 6789TIP3    H141782   2.043   1.874  14.453  0.3205 -1.1923  2.3020
 6789TIP3    H241783   1.893   1.873  14.434  0.4435 -0.1248  1.1303
 6790TIP3   OH241784   6.784   0.594   5.329  0.2615 -0.1176 -0.4426
 6790TIP3    H141785   6.718   0.525   5.332  1.6573 -1.4839  1.4259
 6790TIP3    H241786   6.744   0.668   5.374  0.0020 -0.9599  0.7565
 6791TIP3   OH241787   5.372   2.425  14.179  0.5914  0.1516 -0.2038
 6791TIP3    H141788   5.377   2.365  14.104 -0.8666  0.4127 -0.5464
 6791TIP3    H241789   5.387   2.512  14.142 -0.3411  0.3041 -0.2479
 6792TIP3   OH241790   6.354   5.305  14.085  0.2503 -0.3315 -0.4127
 6792TIP3    H141791   6.351   5.377  14.147  0.6439 -0.9717  0.3667
 6792TIP3    H241792   6.362   5.348  13.999  0.5472  0.5420  0.0380
 6793TIP3   OH241793   0.189   3.763  13.767 -0.1129 -0.0356 -0.3802
 6793TIP3    H141794   0.152   3.837  13.815  0.2891  0.1797 -0.4025
 6793TIP3    H241795   0.282   3.783  13.759 -0.3152  0.3456 -2.0013
 6794TIP3   OH241796   1.425   1.636   1.885 -0.0684  0.2743 -0.0850
 6794TIP3    H141797   1.368   1.683   1.946 -0.8183 -1.7857  0.9394
 6794TIP3    H241798   1.378   1.638   1.802 -0.7828  0.1350  0.3059
 6795TIP3   OH241799   2.838   2.299   3.213  0.6008 -0.0955  0.9392
 6795TIP3    H141800   2.857   2.237   3.143 -1.3638 -0.8454  1.0207
 6795TIP3    H241801   2.756   2.341   3.187  0.0687 -0.0660  2.5660
 6796TIP3   OH241802   6.630   4.078   6.094 -0.0334  0.4073  0.3348
 6796TIP3    H141803   6.644   4.160   6.047  1.0991 -0.1337 -0.3182
 6796TIP3    H241804   6.717   4.055   6.127 -0.4462 -0.2501  0.9839
 6797TIP3   OH241805   3.699   3.043   0.790 -0.1451  0.4466 -0.1578
 6797TIP3    H141806   3.721   3.128   0.752 -1.6294  0.5757 -0.7840
 6797TIP3    H241807   3.677   2.988   0.714 -2.7973  0.5949  0.3992
 6798TIP3   OH241808   2.026   2.004   3.205 -0.1763 -0.6736  0.0159
 6798TIP3    H141809   1.949   2.032   3.254  0.6367  0.9071  0.4921
 6798TIP3    H241810   1.996   1.931   3.151 -2.0936  0.1641 -0.1286
 6799TIP3   OH241811   6.576   0.705  10.896  0.0256  0.2749 -0.5805
 6799TIP3    H141812   6.576   0.773  10.829  0.9928  1.3759  0.4955
 6799TIP3    H241813   6.655   0.654  10.878 -0.4801 -0.3347 -1.1333
 6800TIP3   OH241814   5.804   2.354   5.023  0.3899  0.3148  0.0753
 6800TIP3    H141815   5.724   2.301   5.020 -0.3405  1.3986  0.0100
 6800TIP3    H241816   5.864   2.311   4.962 -0.4038 -0.0892 -0.4310
 6801TIP3   OH241817   6.454   2.675  16.160  0.3415 -0.3130 -0.4767
 6801TIP3    H141818   6.527   2.614  16.163  0.5261 -0.1353 -1.2139
 6801TIP3    H241819   6.460   2.716  16.074  1.8005  2.6697  0.9093
 6802TIP3   OH241820   5.151   5.412  14.682 -0.0778 -0.0261 -0.4378
 6802TIP3    H141821   5.072   5.358  14.672 -0.1605 -0.4282  1.8035
 6802TIP3    H241822   5.118   5.498  14.708  0.1840  0.1247 -0.5998
 6803TIP3   OH241823   2.655   5.884  16.992  0.2833 -0.5810 -0.3110
 6803TIP3    H141824   2.582   5.876  16.931 -0.8500  0.5950  0.8330
 6803TIP3    H241825   2.641   5.814  17.055 -0.6769  0.4522  0.6791
 6804TIP3   OH241826   6.501   3.504   3.679  0.4320 -0.3151 -0.4689
 6804TIP3    H141827   6.550   3.511   3.597  0.4124 -0.7711 -0.5241
 6804TIP3    H241828   6.564   3.529   3.747 -0.1138  2.0762 -0.7588
 6805TIP3   OH241829   3.433   1.751   5.939 -0.1328  0.1020  0.6614
 6805TIP3    H141830   3.377   1.827   5.955 -0.9433 -0.3679  0.1174
 6805TIP3    H241831   3.398   1.712   5.859  0.8549 -0.3176  0.4217
 6806TIP3   OH241832   4.598   1.920   1.374  0.2607  0.5196 -0.5229
 6806TIP3    H141833   4.504   1.906   1.360  0.4271 -1.5750  0.1491
 6806TIP3    H241834   4.640   1.842   1.338  1.5237  0.1495  1.5853
 6807TIP3   OH241835   0.065   3.931   4.115 -0.0911 -0.2942 -0.5097
 6807TIP3    H141836   0.006   3.875   4.064 -0.5304 -0.8505  0.5849
 6807TIP3    H241837   0.114   3.980   4.049  2.2848 -3.8717 -1.7023
 6808TIP3   OH241838   4.976   1.855  15.786  0.2206  0.1425 -0.6587
 6808TIP3    H141839   4.911   1.816  15.844 -0.1560  0.4190 -0.8960
 6808TIP3    H241840   5.058   1.850  15.835 -0.2708  1.3150  0.3154
 6809TIP3   OH241841   4.635   5.998  16.134 -0.1286 -0.0048  0.4557
 6809TIP3    H141842   4.648   6.001  16.228 -0.0911  0.1028  0.4479
 6809TIP3    H241843   4.568   6.064  16.116 -0.5499 -0.4196  0.4718
 6810TIP3   OH241844   6.570   0.709  13.534 -0.3703  0.3159 -0.0031
 6810TIP3    H141845   6.595   0.797  13.564 -0.5621  0.5789 -0.5998
 6810TIP3    H241846   6.480   0.719  13.504  0.6468  0.7827 -3.3606
 6811TIP3   OH241847   0.470   4.822  12.002  0.4041 -0.3273  0.0531
 6811TIP3    H141848   0.559   4.838  12.034  0.0318  0.8247  0.5806
 6811TIP3    H241849   0.416   4.822  12.080  0.0608 -2.2485 -0.1334
 6812TIP3   OH241850   2.540   6.715  12.072  0.0092  0.3744 -0.2957
 6812TIP3    H141851   2.529   6.733  11.979  2.3719  1.7636 -0.4142
 6812TIP3    H241852   2.523   6.799  12.115  0.8280  0.2516  0.3001
 6813TIP3   OH241853   4.973   4.620   2.517 -0.8740  0.0594 -0.6116
 6813TIP3    H141854   4.990   4.674   2.440  0.2098  1.0345  0.2853
 6813TIP3    H241855   4.878   4.628   2.531 -1.2156 -0.7018 -2.2237
 6814TIP3   OH241856   4.471   4.547  16.988  0.0952 -0.1672 -0.2967
 6814TIP3    H141857   4.524   4.478  16.948 -2.8592 -2.1868 -1.0680
 6814TIP3    H241858   4.503   4.551  17.079  0.6735 -2.2875 -0.3428
 6815TIP3   OH241859   0.786   5.465  13.408  0.1906  0.3846  0.4391
 6815TIP3    H141860   0.843   5.496  13.478 -0.0628  0.7713  0.4793
 6815TIP3    H241861   0.721   5.410  13.452 -0.3063  1.0734  0.6027
 6816TIP3   OH241862   0.276   0.160  12.412  0.3767  0.3608 -0.1000
 6816TIP3    H141863   0.325   0.078  12.425 -2.5233 -1.2285  1.9409
 6816TIP3    H241864   0.221   0.167  12.490 -1.0230  3.1783 -1.2316
 6817TIP3   OH241865   0.840   3.970   0.124  0.3485  0.2899  0.0398
 6817TIP3    H141866   0.773   3.979   0.192 -1.6377 -0.1260 -1.7469
 6817TIP3    H241867   0.791   3.977   0.042  3.0675  4.2594 -1.4931
 6818TIP3   OH241868   6.413   1.758   2.332 -0.1225 -0.6852 -0.9640
 6818TIP3    H141869   6.370   1.823   2.276  0.0819 -0.9313 -1.4028
 6818TIP3    H241870   6.345   1.693   2.349 -1.0360  0.7052  1.2678
 6819TIP3   OH241871   0.641   5.365   6.839 -0.0725 -0.6671 -0.0182
 6819TIP3    H141872   0.571   5.355   6.903  1.1614 -1.2456  1.2952
 6819TIP3    H241873   0.708   5.415   6.885  0.3686 -0.0615 -1.2700
 6820TIP3   OH241874   5.721   3.569  11.528  0.2123  0.0266  0.4442
 6820TIP3    H141875   5.763   3.592  11.611  0.8815  0.0859  0.0985
 6820TIP3    H241876   5.646   3.514  11.552  0.4871 -0.0694  1.0728
 6821TIP3   OH241877   1.059   5.392   0.527  0.1468 -0.0044  0.0461
 6821TIP3    H141878   1.107   5.474   0.520 -3.7105  2.5348  0.5108
 6821TIP3    H241879   1.064   5.368   0.620  1.0476 -0.1832 -0.0422
 6822TIP3   OH241880   1.216   3.769  15.621  0.5898 -0.4002  0.1808
 6822TIP3    H141881   1.301   3.758  15.579  1.0493 -0.9901  1.2224
 6822TIP3    H241882   1.195   3.862  15.610  0.8071 -0.4884 -1.1020
 6823TIP3   OH241883   5.963   2.132   2.407  0.3965 -0.4881  0.2119
 6823TIP3    H141884   5.946   2.040   2.428  0.1617 -0.4173  0.3410
 6823TIP3    H241885   6.044   2.131   2.357  1.2747 -0.6204  1.5785
 6824TIP3   OH241886   1.015   6.252  11.356  0.6927 -0.4030 -0.2239
 6824TIP3    H141887   1.069   6.324  11.389  0.9907  0.4785 -2.4337
 6824TIP3    H241888   0.967   6.220  11.432  2.7682  0.1641  1.3980
 6825TIP3   OH241889   3.133   1.374  15.344 -0.6171  0.4382  0.6875
 6825TIP3    H141890   3.199   1.439  15.367 -0.9757  0.4268  1.7857
 6825TIP3    H241891   3.051   1.424  15.337 -0.5512  0.4222 -0.4808
 6826TIP3   OH241892   6.473   6.226   2.693 -0.1183 -0.2288 -0.3685
 6826TIP3    H141893   6.391   6.190   2.726 -0.0440 -0.0554  0.0207
 6826TIP3    H241894   6.496   6.171   2.618  0.0407 -1.0449  0.2663
 6827TIP3   OH241895   1.369   2.037   1.361  0.4913 -0.1656 -0.0418
 6827TIP3    H141896   1.440   1.976   1.381  1.0021 -0.2184 -1.8656
 6827TIP3    H241897   1.317   2.041   1.442  2.6849  0.0785  1.4451
 6828TIP3   OH241898   6.170   4.248   1.382  0.2462 -0.0342  0.2203
 6828TIP3    H141899   6.090   4.292   1.352  0.1696 -0.6051 -0.4251
 6828TIP3    H241900   6.205   4.205   1.304  1.8117  1.1408  0.2403
 6829TIP3   OH241901   2.947   0.234   3.734 -0.2245 -0.0726  0.2357
 6829TIP3    H141902   2.911   0.215   3.647  0.7534  0.8785 -0.4008
 6829TIP3    H241903   2.993   0.154   3.758 -0.7221 -0.4385  0.0081
 6830TIP3   OH241904   5.064   5.517  12.743  0.3395 -0.3010  0.4505
 6830TIP3    H141905   5.095   5.525  12.653 -1.7443 -3.3254 -0.6980
 6830TIP3    H241906   4.977   5.556  12.741 -0.7045 -2.5012  0.4380
 6831TIP3   OH241907   1.325   2.700   4.246 -0.0185  0.3961 -0.2607
 6831TIP3    H141908   1.338   2.707   4.341 -1.4113  0.6923 -0.0740
 6831TIP3    H241909   1.294   2.610   4.233 -0.1385  0.4602 -0.4084
 6832TIP3   OH241910   4.492   2.850  14.311 -0.5547  0.3496  0.1646
 6832TIP3    H141911   4.544   2.922  14.348 -1.2215 -0.2382  2.3490
 6832TIP3    H241912   4.430   2.893  14.252  0.1027  1.4041  0.2195
 6833TIP3   OH241913   4.783   1.998  13.903 -0.7373  0.0718 -0.0146
 6833TIP3    H141914   4.754   2.031  13.988 -0.7975 -0.4826  0.1880
 6833TIP3    H241915   4.779   1.903  13.912  2.3663 -0.0968  0.4518
 6834TIP3   OH241916   5.363   3.018   5.334 -0.3549 -0.1287  0.4257
 6834TIP3    H141917   5.307   3.062   5.398 -0.3023  1.7902 -0.7863
 6834TIP3    H241918   5.452   3.039   5.362 -0.2561 -1.2570  1.0267
 6835TIP3   OH241919   5.018   1.340   6.567 -0.2483  0.2888 -0.2237
 6835TIP3    H141920   4.923   1.329   6.559  0.0850 -2.3874 -2.0083
 6835TIP3    H241921   5.039   1.309   6.655 -0.9538 -0.2089 -0.2212
 6836TIP3   OH241922   3.535   4.943  15.694  0.4218 -0.1989  0.0647
 6836TIP3    H141923   3.593   4.979  15.626 -1.1219  0.4513 -0.9677
 6836TIP3    H241924   3.520   5.017  15.753 -2.7367  1.0847 -2.0479
 6837TIP3   OH241925   3.694   4.354  15.077 -0.1052 -0.0495  0.0180
 6837TIP3    H141926   3.664   4.294  15.009  2.5078 -1.2888 -0.1520
 6837TIP3    H241927   3.738   4.298  15.141  1.3070  1.5161  0.4854
 6838TIP3   OH241928   4.542   2.430   3.744  0.3846  0.6901 -0.4303
 6838TIP3    H141929   4.611   2.382   3.698  0.6842 -0.0966  0.7973
 6838TIP3    H241930   4.471   2.367   3.753  0.7618  0.4520  1.1631
 6839TIP3   OH241931   4.584   2.346   2.023  0.5721  0.2194  0.1246
 6839TIP3    H141932   4.653   2.280   2.033 -1.6921 -2.4574 -0.7057
 6839TIP3    H241933   4.536   2.343   2.105 -0.6814 -0.5846 -0.6176
 6840TIP3   OH241934   2.579   0.650   5.882 -0.2707 -0.5135  0.0125
 6840TIP3    H141935   2.628   0.660   5.963  1.6159 -0.5432 -1.0634
 6840TIP3    H241936   2.487   0.656   5.908  0.2295 -1.6670  2.2926
 6841TIP3   OH241937   2.635   2.076   1.938  0.1459  0.1823  0.2383
 6841TIP3    H141938   2.692   2.125   1.997  0.4009  1.6753 -1.1878
 6841TIP3    H241939   2.673   2.090   1.851 -1.8649  0.4816 -0.6440
 6842TIP3   OH241940   4.139   3.910   3.855  0.0419 -0.1709 -0.0278
 6842TIP3    H141941   4.146   3.883   3.947  0.6801 -1.9867 -0.5613
 6842TIP3    H241942   4.110   3.831   3.809 -0.1722  0.6764 -1.4138
 6843TIP3   OH241943   4.652   4.015  13.609 -0.1439  0.3540 -0.5783
 6843TIP3    H141944   4.563   4.006  13.642  0.0716 -1.5359 -0.3907
 6843TIP3    H241945   4.643   4.066  13.528 -1.1523  1.7003  0.3433
 6844TIP3   OH241946   4.088   3.138  12.259 -0.3957  0.1576 -0.1275
 6844TIP3    H141947   4.169   3.125  12.209 -0.8440 -0.1952 -0.7680
 6844TIP3    H241948   4.069   3.232  12.249  0.4827  0.4768  0.8970
 6845TIP3   OH241949   1.481   6.726  14.328 -0.4047  0.0276  0.2814
 6845TIP3    H141950   1.415   6.789  14.357  0.8979  1.0165  1.2060
 6845TIP3    H241951   1.472   6.652  14.388 -1.5070 -0.4277 -0.4054
 6846TIP3   OH241952   4.882   5.116  15.418  0.0750 -0.8361  0.1593
 6846TIP3    H141953   4.935   5.074  15.350 -1.0833 -2.9355  0.4791
 6846TIP3    H241954   4.877   5.208  15.391  0.2914 -1.4487 -2.1762
 6847TIP3   OH241955   2.975   4.811  15.175  0.2507 -0.2983 -0.2963
 6847TIP3    H141956   3.005   4.899  15.151 -1.9344  0.4231 -0.6378
 6847TIP3    H241957   3.034   4.752  15.128  0.3896  1.0254 -1.8908
 6848TIP3   OH241958   4.333   2.417   1.506 -0.2215  0.8891  0.1768
 6848TIP3    H141959   4.271   2.346   1.488 -0.7994  1.0596  1.4149
 6848TIP3    H241960   4.306   2.488   1.448  0.4133  0.0963 -1.1371
 6849TIP3   OH241961   2.618   3.664  15.136  0.1280  0.0379  0.1029
 6849TIP3    H141962   2.652   3.712  15.212 -0.2467 -1.0522  0.9836
 6849TIP3    H241963   2.633   3.572  15.157  3.3849 -0.2825 -2.7326
 6850TIP3   OH241964   4.411   3.707   2.991 -0.3853 -0.7056  0.3920
 6850TIP3    H141965   4.356   3.673   3.062 -1.7349  1.2340  0.3390
 6850TIP3    H241966   4.365   3.784   2.960  0.2785 -1.3578 -2.4765
 6851TIP3   OH241967   6.007   0.847  14.916 -0.1566 -0.5009  0.3504
 6851TIP3    H141968   5.952   0.795  14.975 -0.9867  1.8400  1.8212
 6851TIP3    H241969   6.095   0.842  14.954  0.0692 -1.8253 -0.2860
 6852TIP3   OH241970   0.226   4.269  11.620 -0.4419 -0.1676  0.2212
 6852TIP3    H141971   0.305   4.218  11.601  0.5449  1.7891 -1.2185
 6852TIP3    H241972   0.158   4.230  11.565 -0.1895 -1.0746  0.5365
 6853TIP3   OH241973   4.980   6.796  15.442  0.7976  0.4187  0.3823
 6853TIP3    H141974   5.055   6.790  15.383  0.3117 -0.1943 -0.1908
 6853TIP3    H241975   4.978   6.888  15.469  1.5189  0.5240  0.0974
 6854TIP3   OH241976   1.660   3.395   3.711  0.5973  0.6993  0.0568
 6854TIP3    H141977   1.676   3.406   3.804  2.0040  1.5726 -0.2677
 6854TIP3    H241978   1.734   3.343   3.679  1.2139  2.1088 -0.9189
 6855TIP3   OH241979   3.605   6.209   0.540 -0.1282 -0.0448  0.2801
 6855TIP3    H141980   3.700   6.201   0.538 -0.1267 -0.9302  2.0795
 6855TIP3    H241981   3.574   6.148   0.473  0.5669  2.2468 -2.3422
 6856TIP3   OH241982   3.712   1.455  10.818  0.2690 -0.0833  0.3359
 6856TIP3    H141983   3.671   1.528  10.770  0.3124 -0.1925  0.1330
 6856TIP3    H241984   3.675   1.461  10.907 -0.7263 -0.6002 -0.0261
 6857TIP3   OH241985   0.235   2.661  16.466  0.4845  0.0601 -0.1663
 6857TIP3    H141986   0.254   2.732  16.527  0.2828 -0.7664  0.8847
 6857TIP3    H241987   0.159   2.618  16.502  0.1032 -0.2054 -1.2411
 6858TIP3   OH241988   0.863   3.849  14.946 -0.3933 -0.1552 -0.0523
 6858TIP3    H141989   0.810   3.773  14.967  0.8671 -0.2866  3.2508
 6858TIP3    H241990   0.822   3.922  14.992 -0.4553  0.7900 -1.5307
 6859TIP3   OH241991   2.976   6.662   2.692 -0.4174  0.4466  0.3898
 6859TIP3    H141992   2.977   6.682   2.598 -1.5365  0.6095  0.3927
 6859TIP3    H241993   2.988   6.567   2.696  2.7216  0.7425  0.2702
 6860TIP3   OH241994   1.937   3.714  14.975 -0.6956  0.1374 -0.3615
 6860TIP3    H141995   1.972   3.694  15.062  0.9129  0.1934 -0.9604
 6860TIP3    H241996   1.931   3.629  14.931  0.8779  0.3421 -1.0230
 6861TIP3   OH241997   5.729   3.023  13.146  0.1275  0.3297  0.1033
 6861TIP3    H141998   5.646   3.051  13.107  0.1071  1.8649  1.1812
 6861TIP3    H241999   5.792   3.089  13.119  0.5809  0.2339  0.8888
 6862TIP3   OH242000   6.791   0.634   0.813  0.1881  0.1583  0.0208
 6862TIP3    H142001   6.860   0.690   0.850 -0.6095 -0.8590  3.3659
 6862TIP3    H242002   6.829   0.546   0.814  0.2854  0.1039 -2.2214
 6863TIP3   OH242003   6.015   2.864   0.921  0.3199 -0.0164 -0.4785
 6863TIP3    H142004   6.031   2.795   0.856  1.9226 -1.1943  1.0653
 6863TIP3    H242005   6.096   2.914   0.924 -0.1809  0.7968 -0.2584
 6864TIP3   OH242006   1.988   3.282  12.893  0.0980 -0.6472 -0.0641
 6864TIP3    H142007   1.972   3.224  12.818 -0.2797 -0.5608 -0.0543
 6864TIP3    H242008   2.034   3.357  12.856  2.8091 -2.0127  0.3067
 6865TIP3   OH242009   0.766   3.521   0.690  0.0163  0.8364  0.1102
 6865TIP3    H142010   0.749   3.519   0.784  0.6799  2.1795  0.2875
 6865TIP3    H242011   0.691   3.568   0.654 -0.6063 -0.3122 -0.1528
 6866TIP3   OH242012   6.611   0.635  13.211  0.5967  0.0040 -0.4218
 6866TIP3    H142013   6.527   0.593  13.192  0.0510  0.3215  1.1486
 6866TIP3    H242014   6.593   0.729  13.208  0.6957  0.0716  0.6439
 6867TIP3   OH242015   2.338   5.407   4.826 -0.3681 -0.6224  0.3454
 6867TIP3    H142016   2.287   5.488   4.815 -1.1096 -0.9992  0.8858
 6867TIP3    H242017   2.390   5.422   4.906 -1.3462 -1.0840  1.0922
 6868TIP3   OH242018   5.326   4.817  13.249  0.7646 -0.2866 -0.0135
 6868TIP3    H142019   5.364   4.832  13.336  0.1698  1.5323 -0.0344
 6868TIP3    H242020   5.290   4.728  13.254  0.7466 -0.2233  1.5984
 6869TIP3   OH242021   0.611   3.599   1.562 -0.4281  0.0973 -0.3524
 6869TIP3    H142022   0.545   3.555   1.615 -0.0235 -0.3726 -0.2222
 6869TIP3    H242023   0.572   3.606   1.475 -0.8537  0.3080 -0.1431
 6870TIP3   OH242024   6.098   2.289   4.044  0.6059 -0.2558  0.0001
 6870TIP3    H142025   6.183   2.248   4.061  0.0161 -1.5828 -0.1430
 6870TIP3    H242026   6.058   2.234   3.976 -0.9445 -0.5041  1.0591
 6871TIP3   OH242027   6.605   5.116  11.013 -0.0788 -0.2450 -1.0136
 6871TIP3    H142028   6.645   5.203  11.013 -0.8548  0.1205 -1.4445
 6871TIP3    H242029   6.594   5.094  10.921 -1.1024 -0.2207 -0.9111
 6872TIP3   OH242030   2.947   0.713   0.337  0.2859  0.3220  0.2019
 6872TIP3    H142031   2.935   0.624   0.369  1.1106  0.0070 -0.3270
 6872TIP3    H242032   2.869   0.731   0.285 -0.1201  0.0983  0.7290
 6873TIP3   OH242033   1.979   5.430   0.735 -0.4256 -0.2347  0.2105
 6873TIP3    H142034   1.978   5.467   0.824  0.3329  1.5936 -0.4902
 6873TIP3    H242035   2.040   5.357   0.740  1.5072  1.3199  0.6973
 6874TIP3   OH242036   1.773   2.596   3.894  0.2742 -0.1012 -0.1823
 6874TIP3    H142037   1.772   2.637   3.981 -0.9048 -0.9248  0.2314
 6874TIP3    H242038   1.866   2.587   3.873  0.5834  0.3052  0.9115
 6875TIP3   OH242039   5.669   0.257  11.271 -0.0968  0.0984 -0.3857
 6875TIP3    H142040   5.619   0.187  11.314 -1.2096  0.4214 -1.0998
 6875TIP3    H242041   5.633   0.261  11.183  1.6789 -0.0954 -1.1549
 6876TIP3   OH242042   0.062   0.270  12.931  0.2250 -0.4862  0.5690
 6876TIP3    H142043   0.037   0.217  13.007 -0.7310 -2.5705 -1.0945
 6876TIP3    H242044   0.025   0.357  12.949 -0.8215 -1.1924  2.0635
 6877TIP3   OH242045   4.010   5.096  15.339  0.7765 -0.2806 -0.1831
 6877TIP3    H142046   3.952   5.166  15.310  0.0345 -1.1190 -0.7809
 6877TIP3    H242047   3.984   5.078  15.429 -0.8205 -1.5267 -0.8441
 6878TIP3   OH242048   4.589   2.639  14.445  0.0168  0.0556 -0.1592
 6878TIP3    H142049   4.564   2.721  14.402  0.2665  0.4248  0.3898
 6878TIP3    H242050   4.512   2.584  14.437 -0.6510  0.8391  0.6675
 6879TIP3   OH242051   1.104   3.441   5.739 -0.0027 -0.1698  0.1466
 6879TIP3    H142052   1.051   3.520   5.730 -2.4125 -1.7624 -0.3228
 6879TIP3    H242053   1.191   3.468   5.709 -0.3509  2.6550  1.3551
 6880TIP3   OH242054   1.647   6.271   1.695  0.3235 -0.4555 -0.7397
 6880TIP3    H142055   1.676   6.207   1.630  0.2632  0.4575 -1.6961
 6880TIP3    H242056   1.671   6.356   1.658 -3.0853  0.3779 -1.4632
 6881TIP3   OH242057   4.523   5.979   0.100  0.0276 -0.0385 -0.3711
 6881TIP3    H142058   4.560   5.934   0.176 -0.1450  0.1719 -0.1625
 6881TIP3    H242059   4.486   5.909   0.047 -0.6844 -0.1083  0.1936
 6882TIP3   OH242060   4.196   1.495   3.967 -0.1639 -0.8189 -0.4045
 6882TIP3    H142061   4.115   1.547   3.964  1.0752  1.2445 -0.4457
 6882TIP3    H242062   4.234   1.507   3.880  0.7432 -0.7759 -0.0048
 6883TIP3   OH242063   3.276   4.880  14.027  0.2580 -0.4666  1.2309
 6883TIP3    H142064   3.326   4.845  14.101  3.6266 -0.6012 -0.8689
 6883TIP3    H242065   3.326   4.957  13.999 -1.3286  0.0377 -0.4284
 6884TIP3   OH242066   2.853   5.030   3.956 -0.0902  0.7008  0.0410
 6884TIP3    H142067   2.924   5.084   3.989  0.2097  0.4272 -0.1530
 6884TIP3    H242068   2.881   4.940   3.971 -1.0922  0.5910  1.4323
 6885TIP3   OH242069   3.833   5.923   2.566  0.1755 -0.1611 -0.3178
 6885TIP3    H142070   3.799   5.836   2.544 -0.2231 -0.0355 -0.2070
 6885TIP3    H242071   3.893   5.943   2.495 -0.4089 -0.1498 -0.8221
 6886TIP3   OH242072   3.130   5.069  16.277 -0.3121  0.2079  0.8732
 6886TIP3    H142073   3.087   5.097  16.358 -1.7602 -2.2932  1.0437
 6886TIP3    H242074   3.061   5.071  16.211  0.6958  1.5461 -0.2162
 6887TIP3   OH242075   3.218   0.547  14.901  0.8608  0.0008 -0.1357
 6887TIP3    H142076   3.297   0.571  14.950  1.0417  0.4057 -0.6162
 6887TIP3    H242077   3.232   0.455  14.877  0.9686 -0.0691  0.1918
 6888TIP3   OH242078   5.236   3.283   4.423 -0.3768 -0.1614 -0.0648
 6888TIP3    H142079   5.261   3.350   4.486 -0.0527 -0.8218  0.5313
 6888TIP3    H242080   5.320   3.247   4.392 -0.4879 -2.3937  1.9384
 6889TIP3   OH242081   1.283   1.537  16.907 -0.3642 -0.3580  0.1533
 6889TIP3    H142082   1.336   1.527  16.987 -1.0037 -2.7068  0.3749
 6889TIP3    H242083   1.345   1.566  16.841  0.6125 -0.3132  1.0577
 6890TIP3   OH242084   0.564   3.860  15.629  0.0905  0.4551 -0.2996
 6890TIP3    H142085   0.548   3.936  15.572  2.7985  1.2694 -0.1396
 6890TIP3    H242086   0.639   3.886  15.682  0.5664 -2.0480  0.3688
 6891TIP3   OH242087   5.299   2.636   2.562  0.1550 -0.4158  0.4265
 6891TIP3    H142088   5.356   2.684   2.623  1.5818  0.9703 -1.8512
 6891TIP3    H242089   5.351   2.561   2.536  0.4612  0.1679 -0.6950
 6892TIP3   OH242090   5.343   0.461   0.993  0.4254 -0.1322  0.0213
 6892TIP3    H142091   5.294   0.429   0.917  2.4931  0.8843 -1.8365
 6892TIP3    H242092   5.307   0.548   1.009 -1.6638 -1.2259  1.8374
 6893TIP3   OH242093   5.842   4.005  12.111 -0.6668 -0.1220 -0.3103
 6893TIP3    H142094   5.926   3.993  12.157  0.0948  1.5123 -1.1780
 6893TIP3    H242095   5.781   4.033  12.179 -0.7849 -2.2342  0.5056
 6894TIP3   OH242096   3.805   0.633   6.113 -0.0500  0.3762  0.0967
 6894TIP3    H142097   3.770   0.545   6.128  1.1852 -0.3537 -0.9884
 6894TIP3    H242098   3.752   0.668   6.041  0.6722 -0.2800 -0.7852
 6895TIP3   OH242099   4.177   4.615   3.471  0.1956  0.2923  0.4315
 6895TIP3    H142100   4.141   4.675   3.536  1.0891 -0.6944  1.9014
 6895TIP3    H242101   4.264   4.649   3.452 -0.4714  1.1963 -1.1176
 6896TIP3   OH242102   5.170   3.309   1.997  0.0051 -0.0956  0.7891
 6896TIP3    H142103   5.144   3.281   2.085 -0.4874 -0.0836  0.6484
 6896TIP3    H242104   5.207   3.396   2.009 -1.8814  0.7471  0.7223
 6897TIP3   OH242105   6.051   0.297  12.678 -0.3533  0.2131 -0.7241
 6897TIP3    H142106   6.118   0.340  12.731 -0.1981 -0.3531 -0.4512
 6897TIP3    H242107   6.065   0.330  12.589  1.7237 -1.5043 -1.1305
 6898TIP3   OH242108   5.842   3.716   0.872  0.2276 -0.0762  0.1300
 6898TIP3    H142109   5.900   3.677   0.807 -1.4314 -1.8711 -0.3445
 6898TIP3    H242110   5.827   3.647   0.936  0.4182  1.1044  1.4845
 6899TIP3   OH242111   6.551   5.125   3.194 -0.0368  0.0060 -0.0775
 6899TIP3    H142112   6.547   5.205   3.141 -0.5706 -0.1001 -0.2050
 6899TIP3    H242113   6.473   5.076   3.169  1.0587 -1.2883 -1.1409
 6900TIP3   OH242114   3.858   4.842  10.631  0.1965  0.6165 -0.7479
 6900TIP3    H142115   3.901   4.776  10.686 -2.5350 -0.8520 -0.1688
 6900TIP3    H242116   3.820   4.792  10.559  0.3107  1.9666 -1.7716
 6901TIP3   OH242117   3.060   3.923   0.436  0.0839 -0.2121 -0.1683
 6901TIP3    H142118   3.034   3.860   0.504 -2.3002  1.4260  0.5876
 6901TIP3    H242119   3.053   3.873   0.355  1.2134 -1.7136  0.5925
 6902TIP3   OH242120   0.581   4.527  15.060  0.2378  0.3209 -0.0499
 6902TIP3    H142121   0.531   4.465  15.114  0.8571 -1.7030 -1.6653
 6902TIP3    H242122   0.520   4.555  14.992  0.7981 -1.0919 -1.2105
 6903TIP3   OH242123   6.530   2.934   5.595  0.4399  0.3844  0.6389
 6903TIP3    H142124   6.549   2.865   5.531  0.4846  0.6821  0.3249
 6903TIP3    H242125   6.435   2.935   5.602  0.3753  1.0567 -0.2229
 6904TIP3   OH242126   2.739   1.283  16.610  0.1911 -0.1588  0.0167
 6904TIP3    H142127   2.647   1.268  16.629 -0.1835 -0.2915 -1.7562
 6904TIP3    H242128   2.780   1.197  16.620  0.5725  0.2560  2.8326
 6905TIP3   OH242129   0.900   2.346   6.380 -0.0479  0.0621 -0.1838
 6905TIP3    H142130   0.911   2.437   6.351  0.0940 -0.2119 -1.0357
 6905TIP3    H242131   0.863   2.353   6.468  0.1124  0.9453 -0.1751
 6906TIP3   OH242132   5.074   6.773  13.339 -0.1385 -0.1858  0.6109
 6906TIP3    H142133   5.127   6.789  13.260  0.0991 -2.1519  0.2968
 6906TIP3    H242134   4.998   6.724  13.307  0.6078 -2.1929  1.6881
 6907TIP3   OH242135   2.892   0.144   5.169  0.6929  0.1093 -0.1239
 6907TIP3    H142136   2.807   0.114   5.134 -0.8683 -0.1324  3.4116
 6907TIP3    H242137   2.907   0.228   5.125 -2.0054  0.7353 -0.0513
 6908TIP3   OH242138   6.631   1.678  16.154  0.4205 -0.1865  0.4148
 6908TIP3    H142139   6.589   1.594  16.172  0.6498 -0.6522 -1.0740
 6908TIP3    H242140   6.559   1.737  16.131  0.3343 -0.2143  0.6135
 6909TIP3   OH242141   0.957   0.221   0.246 -0.5347 -0.4124 -0.6322
 6909TIP3    H142142   1.027   0.158   0.262 -1.0589 -1.3621 -1.9020
 6909TIP3    H242143   0.967   0.246   0.154 -0.5143  1.1572 -0.2312
 6910TIP3   OH242144   4.983   0.996   4.368 -0.2141  0.0671  0.3487
 6910TIP3    H142145   4.972   1.022   4.277 -0.4859  0.2344  0.4274
 6910TIP3    H242146   4.982   1.079   4.417  0.6336  0.0320  0.4375
 6911TIP3   OH242147   2.684   5.603  11.162  0.1707 -0.0864  0.6412
 6911TIP3    H142148   2.633   5.540  11.111 -0.0525  1.1875 -0.7784
 6911TIP3    H242149   2.774   5.569  11.158  0.1706  0.0100 -0.6826
 6912TIP3   OH242150   0.829   3.305  11.192  0.0661 -1.3519  0.2430
 6912TIP3    H142151   0.793   3.250  11.123 -0.0543 -2.3072  1.0279
 6912TIP3    H242152   0.917   3.326  11.162 -0.2094 -1.2171 -0.4886
 6913TIP3   OH242153   5.606   3.882  10.531 -0.1999  0.6078 -0.5162
 6913TIP3    H142154   5.521   3.925  10.544 -0.0867  1.0432 -1.1641
 6913TIP3    H242155   5.624   3.893  10.438  0.9791  1.3005 -0.2328
 6914TIP3   OH242156   5.849   3.420   1.696 -0.1250 -0.9834 -0.2213
 6914TIP3    H142157   5.777   3.482   1.692 -0.5646 -1.5283 -2.6588
 6914TIP3    H242158   5.809   3.337   1.722 -0.1083 -0.9613 -0.1245
 6915TIP3   OH242159   2.563   5.245   1.647  0.3514 -0.4190 -0.0537
 6915TIP3    H142160   2.579   5.191   1.569 -0.5715 -2.4879  1.1073
 6915TIP3    H242161   2.494   5.305   1.620  1.8878  0.7477 -1.6017
 6916TIP3   OH242162   3.143   6.791  17.160 -0.8014 -0.1839 -0.2082
 6916TIP3    H142163   3.141   6.715  17.101  0.8357 -0.9044  0.6146
 6916TIP3    H242164   3.168   6.864  17.105  1.0008 -0.9032 -0.4054
 6917TIP3   OH242165   0.979   6.023  11.640  0.7494  0.2112 -0.0751
 6917TIP3    H142166   1.022   5.987  11.718 -0.1780  0.3809  0.5386
 6917TIP3    H242167   0.967   6.116  11.660  1.8033  0.5737 -1.0372
 6918TIP3   OH242168   0.256   0.582   6.154  0.0630  0.5365  0.3939
 6918TIP3    H142169   0.255   0.584   6.058  1.3289 -0.3620  0.3458
 6918TIP3    H242170   0.222   0.496   6.177  0.6740  0.3820  0.7245
 6919TIP3   OH242171   4.286   0.411   3.748  0.0696  0.2227  0.2462
 6919TIP3    H142172   4.315   0.377   3.833  0.5746  0.6173  0.2389
 6919TIP3    H242173   4.365   0.405   3.693  0.6448  2.8114  0.6615
 6920TIP3   OH242174   6.361   5.586   4.614 -0.0995 -0.5514 -0.4387
 6920TIP3    H142175   6.313   5.509   4.646 -0.4579 -0.0458  0.2558
 6920TIP3    H242176   6.453   5.560   4.620 -0.2515 -1.4738 -1.6382
 6921TIP3   OH242177   4.075   5.004   1.547  0.0401 -0.0740  0.0712
 6921TIP3    H142178   4.097   5.064   1.618 -0.5030 -0.5832  0.6837
 6921TIP3    H242179   4.159   4.968   1.518  0.1432 -1.2262  1.6856
 6922TIP3   OH242180   6.466   0.919   4.809  0.0446 -0.0526  0.3193
 6922TIP3    H142181   6.396   0.873   4.855 -1.9274 -0.1096 -2.4843
 6922TIP3    H242182   6.525   0.850   4.778  0.2218 -0.1740  0.9136
 6923TIP3   OH242183   3.203   4.931   3.454 -0.0301 -0.2745 -0.3903
 6923TIP3    H142184   3.270   4.940   3.386 -2.5249  0.6029 -2.9584
 6923TIP3    H242185   3.133   4.992   3.426 -1.0839  0.3840  3.1940
 6924TIP3   OH242186   4.599   0.865   4.748  0.1564 -0.0088 -0.8850
 6924TIP3    H142187   4.627   0.790   4.801  4.0012  0.3382 -2.1080
 6924TIP3    H242188   4.586   0.936   4.811 -0.4445 -0.8697 -0.0080
 6925TIP3   OH242189   0.326   0.466   4.908 -0.1971 -0.6256 -0.7214
 6925TIP3    H142190   0.375   0.398   4.955 -1.1187 -1.0277 -0.3224
 6925TIP3    H242191   0.280   0.514   4.977  1.5338  1.3510 -0.8402
 6926TIP3   OH242192   0.546   5.657   3.682  0.6124  0.3621  0.3268
 6926TIP3    H142193   0.619   5.599   3.704  0.9594  0.3861 -0.6942
 6926TIP3    H242194   0.528   5.638   3.590  0.9658  2.1252 -0.1302
 6927TIP3   OH242195   5.292   2.428   0.350 -0.1163 -0.2784  0.1110
 6927TIP3    H142196   5.380   2.393   0.366  0.3426  0.3659 -0.8873
 6927TIP3    H242197   5.267   2.391   0.265 -1.0095 -0.8048  0.5796
 6928TIP3   OH242198   4.272   3.305   4.847  0.3130  0.7367  0.5894
 6928TIP3    H142199   4.351   3.258   4.872  0.0132  0.0123  0.2268
 6928TIP3    H242200   4.222   3.241   4.796 -0.5982  1.1116  0.9925
 6929TIP3   OH242201   1.983   2.069   2.089  0.4686  0.0436 -0.5261
 6929TIP3    H142202   2.031   1.994   2.053  1.4069 -0.4606  1.5904
 6929TIP3    H242203   2.024   2.146   2.048  0.1268 -0.5388 -2.0098
 6930TIP3   OH242204   1.557   3.259  10.978 -0.7177  0.1389 -0.1896
 6930TIP3    H142205   1.602   3.182  10.943 -0.5704 -0.3107  0.9245
 6930TIP3    H242206   1.488   3.278  10.915 -1.4082 -1.5370  0.0085
 6931TIP3   OH242207   4.039   3.377   5.882  0.1093  0.0021 -0.4597
 6931TIP3    H142208   3.949   3.354   5.905  0.3254  0.9692  1.4698
 6931TIP3    H242209   4.033   3.407   5.791 -1.8080  1.5876  0.1232
 6932TIP3   OH242210   4.139   0.102  13.457  0.1041  0.4184  1.0309
 6932TIP3    H142211   4.115   0.122  13.367 -1.0802  3.3380  1.9038
 6932TIP3    H242212   4.196   0.026  13.450 -1.9894 -1.0830 -1.9493
 6933TIP3   OH242213   1.515   5.825   4.162 -0.1279 -0.1143 -0.3030
 6933TIP3    H142214   1.546   5.895   4.220 -0.3057  0.2521 -0.6477
 6933TIP3    H242215   1.594   5.780   4.133  0.3303  2.0513 -2.7814
 6934TIP3   OH242216   3.066   6.054   2.207  0.1548 -0.0024  0.2468
 6934TIP3    H142217   3.030   5.988   2.267  0.6734 -0.9175 -0.4158
 6934TIP3    H242218   2.989   6.091   2.164 -0.1775  0.2060  1.0189
 6935TIP3   OH242219   2.956   6.369   2.249 -0.3989 -0.1450  0.0619
 6935TIP3    H142220   2.868   6.334   2.238 -0.2798  0.1432 -2.1193
 6935TIP3    H242221   2.993   6.318   2.322 -1.4111 -2.1650 -0.7637
 6936TIP3   OH242222   2.969   4.181   0.598 -0.5251  0.4245  0.2127
 6936TIP3    H142223   2.960   4.096   0.555  0.2083 -0.6968  2.2013
 6936TIP3    H242224   3.060   4.206   0.583 -0.7108  0.8325 -0.2759
 6937TIP3   OH242225   1.319   6.655   3.840  0.8250  0.3118 -0.3538
 6937TIP3    H142226   1.321   6.623   3.930  0.4593 -0.8754 -0.7407
 6937TIP3    H242227   1.369   6.590   3.790 -1.4838 -0.7246 -1.4651
 6938TIP3   OH242228   2.715   6.550   1.961  0.2187  0.4929  0.2682
 6938TIP3    H142229   2.769   6.612   1.913  1.1875 -0.5424 -0.0035
 6938TIP3    H242230   2.733   6.465   1.921 -1.9499  0.1662 -0.1296
 6939TIP3   OH242231   4.063   2.482  11.854  0.2191  0.3563 -0.0275
 6939TIP3    H142232   4.094   2.537  11.926  1.4372 -0.4110  0.0553
 6939TIP3    H242233   3.993   2.534  11.813  1.0453  1.7909  0.2970
 6940TIP3   OH242234   4.885   6.488   4.561  0.2068 -0.9684 -0.0967
 6940TIP3    H142235   4.815   6.549   4.538  1.3299  0.0714 -0.8497
 6940TIP3    H242236   4.917   6.519   4.646  0.1991 -1.0412 -0.0668
 6941TIP3   OH242237   0.321   6.754   0.967 -0.3600 -0.0881  0.1202
 6941TIP3    H142238   0.413   6.728   0.970 -0.5852 -0.8045  2.3358
 6941TIP3    H242239   0.322   6.847   0.991 -0.1034  0.3851 -1.5943
 6942TIP3   OH242240   3.352   5.095   1.935  0.4883 -0.4973 -0.2708
 6942TIP3    H142241   3.274   5.047   1.908  0.0711 -0.5574  0.9972
 6942TIP3    H242242   3.323   5.151   2.007  1.5837 -0.4167  0.1336
 6943TIP3   OH242243   6.388   4.881  15.359  0.1366  0.2657 -0.0285
 6943TIP3    H142244   6.366   4.841  15.444 -0.4371  0.2067 -0.2002
 6943TIP3    H242245   6.354   4.970  15.367 -1.4431 -0.2221 -0.7935
 6944TIP3   OH242246   4.092   4.511   0.110 -0.1102 -0.2890  0.0703
 6944TIP3    H142247   4.043   4.454   0.169  0.6839  0.9052  1.9887
 6944TIP3    H242248   4.148   4.564   0.168 -0.6109  2.2695 -1.5909
 6945TIP3   OH242249   1.185   5.320  15.933 -0.5489  0.3095  0.0055
 6945TIP3    H142250   1.244   5.327  15.858 -1.2684  1.0238 -0.5214
 6945TIP3    H242251   1.134   5.241  15.917  0.5936 -0.5970  0.7248
 6946TIP3   OH242252   6.289   6.050   3.038 -0.4452 -0.3177  0.3453
 6946TIP3    H142253   6.368   6.059   3.091 -0.4321  0.2209  0.2380
 6946TIP3    H242254   6.245   5.973   3.074  1.0503 -1.7810 -0.7780
 6947TIP3   OH242255   6.758   3.700   4.583 -0.1439  0.0366  0.0064
 6947TIP3    H142256   6.663   3.711   4.578 -0.2852 -1.0559  0.1250
 6947TIP3    H242257   6.771   3.630   4.647  0.7123 -0.3116 -0.5264
 6948TIP3   OH242258   2.667   1.942  12.862 -0.0385  0.1202  0.5046
 6948TIP3    H142259   2.705   1.863  12.900  0.6596 -0.5219 -1.4421
 6948TIP3    H242260   2.740   2.003  12.853  0.5397 -0.8746 -2.6132
 6949TIP3   OH242261   6.015   4.594   0.750  0.1549 -0.4296 -0.0656
 6949TIP3    H142262   6.021   4.683   0.785  1.9046 -0.9030  0.9671
 6949TIP3    H242263   5.921   4.577   0.745 -0.2120  0.8380  1.4528
 6950TIP3   OH242264   2.401   3.583   5.666 -0.1286  0.2140 -0.2639
 6950TIP3    H142265   2.489   3.606   5.636 -0.1666 -0.5638 -0.9952
 6950TIP3    H242266   2.371   3.660   5.714 -0.3116  1.7806 -2.7545
 6951TIP3   OH242267   5.609   5.554  15.059 -0.2566 -0.6136  0.5294
 6951TIP3    H142268   5.594   5.484  14.995 -2.0326 -0.7794  1.0805
 6951TIP3    H242269   5.555   5.531  15.134 -0.3541  1.0095  1.0019
 6952TIP3   OH242270   3.299   6.047  15.922  0.1132  0.5623  0.1064
 6952TIP3    H142271   3.385   6.051  15.964  0.1956  1.4463 -0.1357
 6952TIP3    H242272   3.317   6.062  15.829 -0.0705 -1.3797 -0.2869
 6953TIP3   OH242273   4.954   6.761  11.543  0.4721  0.1584  0.1174
 6953TIP3    H142274   4.941   6.810  11.625 -1.7853 -0.2262  0.0593
 6953TIP3    H242275   4.871   6.771  11.496  0.3568 -2.6955 -0.4632
 6954TIP3   OH242276   4.640   2.355   3.494 -0.0436 -0.3785  0.0546
 6954TIP3    H142277   4.578   2.427   3.501  0.3344  0.4544 -3.2585
 6954TIP3    H242278   4.725   2.397   3.479  0.6369 -1.5255  0.5136
 6955TIP3   OH242279   1.130   4.836   2.976  0.2545 -0.0114  0.1815
 6955TIP3    H142280   1.121   4.744   2.999 -2.0840 -0.2036 -1.1433
 6955TIP3    H242281   1.222   4.847   2.952  0.4769 -2.1080 -0.0655
 6956TIP3   OH242282   2.989   3.753   0.238 -0.4575 -0.3894 -0.5519
 6956TIP3    H142283   2.977   3.804   0.157  0.3155  0.2233 -0.2882
 6956TIP3    H242284   3.004   3.664   0.208  0.6987 -0.0139 -1.1398
 6957TIP3   OH242285   2.201   2.123  10.886 -0.1718 -0.1543  0.6562
 6957TIP3    H142286   2.277   2.134  10.942  0.6376 -1.6298 -0.1104
 6957TIP3    H242287   2.167   2.036  10.906  0.1752 -0.7567 -1.1369
 6958TIP3   OH242288   6.225   2.990  15.158 -0.0422 -0.2150 -0.1843
 6958TIP3    H142289   6.132   2.982  15.140 -0.4340  1.4177  0.9183
 6958TIP3    H242290   6.246   3.082  15.136  1.0009 -0.1869  0.8442
 6959TIP3   OH242291   2.474   6.432  12.779 -0.1498  0.3593  0.3181
 6959TIP3    H142292   2.509   6.421  12.690 -0.1670  2.6869 -0.0362
 6959TIP3    H242293   2.474   6.344  12.815 -1.9318 -1.0162 -2.6157
 6960TIP3   OH242294   0.092   5.245  15.209  0.4764  0.3604  0.0976
 6960TIP3    H142295   0.145   5.188  15.153 -0.3050  0.7025 -1.0274
 6960TIP3    H242296   0.009   5.252  15.164  0.0512  1.2106  0.9747
 6961TIP3   OH242297   4.395   0.248   6.097 -0.1612  0.3717  1.2472
 6961TIP3    H142298   4.476   0.297   6.109  0.2684 -0.4062  1.5374
 6961TIP3    H242299   4.358   0.239   6.185 -0.2590  0.2064  1.1904
 6962TIP3   OH242300   1.055   4.427   0.179 -0.6075 -0.1319 -0.2328
 6962TIP3    H142301   1.048   4.454   0.087  0.5901  0.0024 -0.2924
 6962TIP3    H242302   0.995   4.487   0.225  0.3846  1.2429 -0.6530
 6963TIP3   OH242303   4.189   2.410  14.149 -0.0596  0.2187  0.0516
 6963TIP3    H142304   4.282   2.430  14.153  0.0751 -0.4028  0.1177
 6963TIP3    H242305   4.153   2.446  14.231 -0.0265  1.1624 -0.3347
 6964TIP3   OH242306   4.022   0.607  10.263  0.5262  0.0752 -0.0894
 6964TIP3    H142307   4.020   0.703  10.261  1.4554  0.1233 -2.6550
 6964TIP3    H242308   4.103   0.586  10.309  0.5837  0.5431  0.0310
 6965TIP3   OH242309   3.733   2.172   2.576  0.3376  0.4245  0.0211
 6965TIP3    H142310   3.713   2.079   2.563 -0.8249  0.6060  0.4391
 6965TIP3    H242311   3.650   2.212   2.600  0.3986  1.9350 -1.9859
 6966TIP3   OH242312   0.127   6.507  12.733 -0.0143  0.0117  0.0906
 6966TIP3    H142313   0.124   6.496  12.638 -0.8705 -0.7905  0.1951
 6966TIP3    H242314   0.107   6.420  12.768  0.8435  0.1603  1.0157
 6967TIP3   OH242315   4.414   1.984   5.291  0.0471  1.1062  0.2749
 6967TIP3    H142316   4.331   2.023   5.263 -1.5369 -2.8389 -1.1861
 6967TIP3    H242317   4.399   1.956   5.381 -1.4052 -2.0845 -0.8269
 6968TIP3   OH242318   4.891   4.465   3.026  0.2368 -0.2994 -0.8447
 6968TIP3    H142319   4.968   4.477   2.970 -0.2282  0.1405 -1.3993
 6968TIP3    H242320   4.849   4.386   2.993 -0.2077  0.1312 -1.3309
 6969TIP3   OH242321   5.962   2.455   5.494 -0.0855  0.0072  0.0584
 6969TIP3    H142322   5.974   2.474   5.586  1.2302  2.4122 -0.5321
 6969TIP3    H242323   5.873   2.419   5.488  0.0793 -0.9242  2.3023
 6970TIP3   OH242324   4.270   5.105  13.297  0.0993  0.0253 -0.1298
 6970TIP3    H142325   4.177   5.125  13.314  0.6447  0.5804  2.7489
 6970TIP3    H242326   4.268   5.017  13.260 -1.6221  0.4930 -1.3063
 6971TIP3   OH242327   0.010   0.831  14.598 -0.2071  0.0830 -0.3359
 6971TIP3    H142328  -0.062   0.795  14.650  0.6708 -2.9482 -1.0172
 6971TIP3    H242329  -0.032   0.857  14.515 -0.4946 -2.5959 -1.1287
 6972TIP3   OH242330   0.925   3.151   1.917 -0.1714 -0.0333  0.2539
 6972TIP3    H142331   0.876   3.163   1.998 -1.0259  2.0996 -0.5159
 6972TIP3    H242332   0.867   3.098   1.862  0.1200 -0.9041  0.7742
 6973TIP3   OH242333   1.058   4.982  16.273 -0.1577  0.2978  0.3828
 6973TIP3    H142334   1.152   4.969  16.261 -0.3593  1.0987 -3.1864
 6973TIP3    H242335   1.042   5.071  16.243 -2.1311  0.0034  0.4370
 6974TIP3   OH242336   5.624   4.246  13.721 -0.0085  0.6369 -0.2150
 6974TIP3    H142337   5.654   4.173  13.667 -1.8945  0.8165 -1.6338
 6974TIP3    H242338   5.615   4.209  13.809  0.8806 -0.3053 -0.4983
 6975TIP3   OH242339   0.995   3.420  12.401 -0.6985 -0.0097  0.3695
 6975TIP3    H142340   0.926   3.419  12.335 -0.6961  0.5323  0.3579
 6975TIP3    H242341   0.988   3.505  12.443  0.4089  0.3503 -0.1130
 6976TIP3   OH242342   2.129   1.519   2.929  0.4506 -0.1865 -0.3511
 6976TIP3    H142343   2.073   1.594   2.948  0.8851  0.3709 -1.2308
 6976TIP3    H242344   2.165   1.537   2.842  2.2351 -0.4001  0.3092
 6977TIP3   OH242345   4.987   1.569   5.846  0.3022 -0.3680 -0.2233
 6977TIP3    H142346   5.040   1.626   5.791 -0.5690  1.0452  0.3709
 6977TIP3    H242347   4.918   1.625   5.881  0.9743 -1.1059  2.5365
 6978TIP3   OH242348   6.587   0.284  15.596  0.0875  0.1087  0.0952
 6978TIP3    H142349   6.584   0.188  15.603 -0.3663 -0.0698 -1.9700
 6978TIP3    H242350   6.580   0.301  15.502 -0.3826  2.1972  0.4719
 6979TIP3   OH242351   2.922   0.351   4.798 -0.2947 -0.6488 -0.4190
 6979TIP3    H142352   2.937   0.256   4.792  1.2632 -0.4470 -0.1230
 6979TIP3    H242353   2.944   0.373   4.888  1.3907  0.3040 -1.0327
 6980TIP3   OH242354   1.590   1.622  12.742  1.0039  0.0082  0.2052
 6980TIP3    H142355   1.584   1.533  12.707  0.8034  0.4902 -1.0386
 6980TIP3    H242356   1.673   1.656  12.707 -0.0224  1.0921 -1.3008
 6981TIP3   OH242357   1.720   4.635   2.982 -0.4497  0.3069  0.4119
 6981TIP3    H142358   1.793   4.602   2.929 -0.1267 -0.9566  1.5793
 6981TIP3    H242359   1.643   4.593   2.945 -0.3439  0.1479  0.3705
 6982TIP3   OH242360   3.345   4.051   2.436  0.2131  0.4130  0.0977
 6982TIP3    H142361   3.371   4.116   2.502 -1.3300  1.1954 -0.0151
 6982TIP3    H242362   3.423   3.997   2.424  0.3645 -0.2613  3.1268
 6983TIP3   OH242363   2.241   0.776   5.657  0.1558  0.3613  0.1520
 6983TIP3    H142364   2.229   0.714   5.729 -0.4450 -1.3246 -1.3187
 6983TIP3    H242365   2.325   0.750   5.618  0.0146  0.6397 -0.3373
 6984TIP3   OH242366   2.296   5.811   0.529 -0.0938  0.3752 -0.0844
 6984TIP3    H142367   2.367   5.748   0.533 -0.8749 -0.4797  1.1574
 6984TIP3    H242368   2.339   5.896   0.519  0.9938 -0.2753 -1.2359
 6985TIP3   OH242369   3.014   1.947   0.263 -0.0345 -0.0103  0.0230
 6985TIP3    H142370   3.008   2.020   0.202 -1.1628 -0.1832 -0.1024
 6985TIP3    H242371   2.923   1.922   0.278  0.3401 -1.6831 -0.2990
 6986TIP3   OH242372   4.698   2.953   0.403  0.3135  0.3969  0.1514
 6986TIP3    H142373   4.677   2.871   0.357  0.4942  0.2479  0.3323
 6986TIP3    H242374   4.792   2.964   0.390  0.2923  0.5666  0.1451
 6987TIP3   OH242375   6.115   1.420   2.914 -0.4775  0.3176  0.0687
 6987TIP3    H142376   6.105   1.492   2.977 -0.9440 -0.7898  1.3076
 6987TIP3    H242377   6.148   1.462   2.835 -1.3842  1.9911  0.5337
 6988TIP3   OH242378   6.792   5.423  12.690  0.1225  0.2157  0.2393
 6988TIP3    H142379   6.720   5.462  12.740 -0.8055 -0.8860 -0.1913
 6988TIP3    H242380   6.828   5.356  12.748  0.1838  0.1177  0.0884
 6989TIP3   OH242381   2.513   6.400  12.497 -0.3676 -0.0152  0.2948
 6989TIP3    H142382   2.515   6.446  12.413 -2.1475 -0.3313  0.0383
 6989TIP3    H242383   2.535   6.309  12.474 -2.2152 -0.3961 -0.0858
 6990TIP3   OH242384   3.849   2.087  15.805 -0.0906  0.1751 -0.3887
 6990TIP3    H142385   3.777   2.084  15.869  0.7620  0.6116  0.6209
 6990TIP3    H242386   3.882   2.176  15.811  2.1805 -0.6886  1.0630
 6991TIP3   OH242387   1.175   2.634   5.372 -0.5994 -0.3596 -0.4794
 6991TIP3    H142388   1.238   2.696   5.335 -0.7310 -0.2722 -0.5578
 6991TIP3    H242389   1.158   2.667   5.461  0.2676 -0.9701 -0.0649
 6992TIP3   OH242390   6.147   3.075   2.540  0.5219  0.4554  0.1407
 6992TIP3    H142391   6.191   3.039   2.464 -1.0319  0.8695 -1.0157
 6992TIP3    H242392   6.207   3.059   2.613  1.3103 -1.4448 -0.8701
 6993TIP3   OH242393   2.924   6.671   0.969 -0.4130  0.2026 -0.1713
 6993TIP3    H142394   2.884   6.689   1.055 -0.9931  1.8399 -0.7606
 6993TIP3    H242395   3.016   6.692   0.981 -0.7452  1.8457 -0.3178
 6994TIP3   OH242396   3.571   5.776  16.798 -0.6868 -0.1126 -0.1300
 6994TIP3    H142397   3.532   5.751  16.713  0.1293  2.2089 -1.2681
 6994TIP3    H242398   3.532   5.716  16.861 -1.2858 -1.9685 -2.1543
 6995TIP3   OH242399   4.314   3.626   0.788  0.0595  0.4405 -0.2994
 6995TIP3    H142400   4.395   3.581   0.765  0.8786  2.4339 -1.5403
 6995TIP3    H242401   4.255   3.556   0.815  0.8643 -1.5154 -3.1937
 6996TIP3   OH242402   4.973   2.761  14.241  0.6120  0.6738  0.7233
 6996TIP3    H142403   5.040   2.826  14.261 -0.1723  1.7779 -0.1666
 6996TIP3    H242404   5.008   2.713  14.166  1.1719  0.0841  1.3537
 6997TIP3   OH242405   1.932   0.940  11.913  0.1926 -0.6334  0.2480
 6997TIP3    H142406   1.846   0.975  11.888  1.6046  1.2921 -2.4407
 6997TIP3    H242407   1.939   0.958  12.006 -1.2335  1.8509 -0.0197
 6998TIP3   OH242408   4.708   5.286   0.687 -0.1037 -0.2403  0.1193
 6998TIP3    H142409   4.729   5.247   0.771 -1.1107 -2.8084 -0.7340
 6998TIP3    H242410   4.792   5.291   0.641  0.1271 -0.9390  0.4525
 6999TIP3   OH242411   2.820   6.728   5.368  0.4089  0.1781  0.4445
 6999TIP3    H142412   2.793   6.816   5.394  0.1793 -0.2661  1.7965
 6999TIP3    H242413   2.888   6.742   5.302  0.4993  1.3687  0.7727
 7000TIP3   OH242414   1.372   2.249   2.242 -0.1787 -0.6895 -0.1023
 7000TIP3    H142415   1.302   2.302   2.280  1.0843  1.0628 -0.0994
 7000TIP3    H242416   1.341   2.228   2.154 -0.8468 -0.2186  0.0157
 7001TIP3   OH242417   4.586   0.511   5.785 -0.5896 -0.0991 -0.4478
 7001TIP3    H142418   4.654   0.541   5.844  0.8709 -1.7027 -1.2460
 7001TIP3    H242419   4.590   0.573   5.712  1.4678 -1.2812 -1.4387
 7002TIP3   OH242420   1.899   4.600  16.620 -0.0158 -1.0359 -0.1604
 7002TIP3    H142421   1.864   4.520  16.659 -2.9231  0.9592  1.7551
 7002TIP3    H242422   1.907   4.661  16.694  0.5080  0.9671 -1.7756
 7003TIP3   OH242423   5.378   0.898   1.837  0.3087  0.1870 -0.1745
 7003TIP3    H142424   5.286   0.913   1.815 -0.3268 -1.0536  1.4542
 7003TIP3    H242425   5.410   0.984   1.863  0.3023  1.1126 -2.9142
 7004TIP3   OH242426   2.499   5.797   3.234 -0.0598  0.3061  0.0246
 7004TIP3    H142427   2.477   5.814   3.325 -0.4931  0.5552 -0.1226
 7004TIP3    H242428   2.585   5.755   3.237 -0.4563 -0.4794  0.5955
 7005TIP3   OH242429   1.867   3.469   5.539 -0.1070 -0.1438  0.6144
 7005TIP3    H142430   1.855   3.517   5.457  0.8016  1.2804  1.2853
 7005TIP3    H242431   1.962   3.460   5.548 -0.2491 -2.1949  0.4663
 7006TIP3   OH242432   5.852   4.954   0.628  0.0855  0.1815 -0.5622
 7006TIP3    H142433   5.793   4.979   0.556 -0.4940  1.6083  0.3605
 7006TIP3    H242434   5.817   4.871   0.660 -1.0699  0.7071 -0.4277
 7007TIP3   OH242435   0.183   6.706  14.321 -0.6951  0.3851 -0.7738
 7007TIP3    H142436   0.212   6.776  14.263  0.1740  0.4257 -0.3051
 7007TIP3    H242437   0.166   6.749  14.404 -0.1775  0.0570 -0.4912
 7008TIP3   OH242438   3.294   5.513  16.535  0.2104  0.3532  0.3992
 7008TIP3    H142439   3.202   5.526  16.511 -0.6404 -0.1401  3.1050
 7008TIP3    H242440   3.291   5.452  16.609  2.5637  1.8516  1.8388
 7009TIP3   OH242441   0.619   2.115  10.309  0.0279 -0.1260  0.0168
 7009TIP3    H142442   0.629   2.174  10.234  0.1981  0.9439  0.8451
 7009TIP3    H242443   0.622   2.173  10.385 -1.3696 -1.0359  0.8169
 7010TIP3   OH242444   2.735   4.058   2.109 -0.1353  0.2383  0.1704
 7010TIP3    H142445   2.642   4.060   2.132 -0.2798  0.0616 -0.3786
 7010TIP3    H242446   2.770   3.985   2.159  0.2384  1.7814  2.2699
 7011TIP3   OH242447   6.328   0.241  13.069 -0.2276  0.0416  0.6815
 7011TIP3    H142448   6.359   0.210  12.984  1.1214  2.9157  0.0127
 7011TIP3    H242449   6.407   0.248  13.122 -0.8888 -0.4612  1.7545
 7012TIP3   OH242450   1.948   0.443   4.983 -0.0889 -0.3703 -0.0107
 7012TIP3    H142451   1.978   0.483   5.065 -1.0519 -0.8965  0.6326
 7012TIP3    H242452   2.025   0.441   4.927  1.3529 -2.4112  1.8410
 7013TIP3   OH242453   3.630   6.070   5.717  0.0564  0.3765 -0.6013
 7013TIP3    H142454   3.603   6.154   5.681 -1.2696  0.0704 -0.4005
 7013TIP3    H242455   3.563   6.051   5.783 -0.4998 -1.4825 -1.6236
 7014TIP3   OH242456   3.627   0.104  13.664 -0.2632 -0.9901 -0.2941
 7014TIP3    H142457   3.573   0.182  13.677  0.2250 -0.9765  2.3293
 7014TIP3    H242458   3.664   0.114  13.577  0.2797  2.0716  0.1783
 7015TIP3   OH242459   4.946   2.670   3.631 -0.0824  0.0303 -0.4658
 7015TIP3    H142460   4.947   2.766   3.636 -0.6192  0.0868 -1.2974
 7015TIP3    H242461   4.995   2.642   3.708  0.3395  0.9817 -0.3705
 7016TIP3   OH242462   0.855   6.420   4.007  0.3338  0.2281 -0.2385
 7016TIP3    H142463   0.762   6.440   3.996  0.9035  1.8991 -2.8898
 7016TIP3    H242464   0.867   6.415   4.102 -2.6929 -1.5493  0.2126
 7017TIP3   OH242465   4.288   4.743  16.920  1.0977  0.3228  0.2729
 7017TIP3    H142466   4.353   4.682  16.955  0.9565  0.7873  1.4136
 7017TIP3    H242467   4.267   4.710  16.833  1.8432 -0.6145  0.4376
 7018TIP3   OH242468   0.848   3.125  12.118  0.2403  0.3122  0.7867
 7018TIP3    H142469   0.938   3.157  12.131  0.2478  0.7787 -0.2630
 7018TIP3    H242470   0.811   3.121  12.205  1.0010  0.9734  1.1580
 7019TIP3   OH242471   4.517   1.107  16.358  0.0658 -0.2233  0.4692
 7019TIP3    H142472   4.445   1.065  16.405 -0.6982 -1.1115 -1.3966
 7019TIP3    H242473   4.593   1.052  16.376 -0.1105 -0.3123  0.9638
 7020TIP3   OH242474   0.497   0.551  13.330  0.5634 -0.2148 -0.3175
 7020TIP3    H142475   0.576   0.519  13.375  0.2949  1.1198  1.2148
 7020TIP3    H242476   0.520   0.639  13.301 -0.0896 -0.1306 -0.5898
 7021TIP3   OH242477   5.157   0.374  13.517  0.2236 -0.2095  0.0184
 7021TIP3    H142478   5.225   0.428  13.478 -0.6884  1.1912  0.2945
 7021TIP3    H242479   5.204   0.300  13.556  1.4439  0.0859 -0.8367
 7022TIP3   OH242480   6.284   3.661   3.652  0.1426 -0.1682 -0.4484
 7022TIP3    H142481   6.369   3.624   3.674  0.5437  1.1597  0.3528
 7022TIP3    H242482   6.227   3.632   3.723  0.1489 -0.2556 -0.4779
 7023TIP3   OH242483   1.566   2.059   5.086 -0.0146  0.0206  0.5746
 7023TIP3    H142484   1.488   2.040   5.137 -2.7702  1.1471 -2.7996
 7023TIP3    H242485   1.596   2.144   5.118 -1.9974  0.9715  0.0781
 7024TIP3   OH242486   0.006   1.832  17.174 -0.2908 -0.1659 -0.0150
 7024TIP3    H142487   0.099   1.822  17.151 -0.2249  1.9961 -0.9524
 7024TIP3    H242488   0.005   1.905  17.236 -1.2103 -1.4460  1.5519
 7025TIP3   OH242489   2.705   1.430   2.112 -0.0655 -0.1399 -0.1463
 7025TIP3    H142490   2.799   1.437   2.130 -0.4154 -1.7145  2.8562
 7025TIP3    H242491   2.665   1.411   2.197 -3.1161  0.2365 -1.3539
 7026TIP3   OH242492   3.849   0.621   1.891 -0.0526  0.1444  0.6178
 7026TIP3    H142493   3.765   0.649   1.930  1.1498  1.5192  2.3927
 7026TIP3    H242494   3.870   0.540   1.937  0.0405  0.3020  0.8552
 7027TIP3   OH242495   0.276   6.357   0.099  0.3733  0.6027 -0.2722
 7027TIP3    H142496   0.224   6.412   0.040  0.4088 -0.0919 -0.9610
 7027TIP3    H242497   0.222   6.350   0.178 -1.8595 -2.1789 -1.8618
 7028TIP3   OH242498   3.909   4.785  15.406 -0.2793  0.1300  0.4994
 7028TIP3    H142499   3.939   4.695  15.402 -0.8117 -0.0118 -1.9463
 7028TIP3    H242500   3.924   4.820  15.318 -1.8962  1.8062  0.8051
 7029TIP3   OH242501   1.819   0.098   5.411  0.2954 -0.0578 -0.4727
 7029TIP3    H142502   1.906   0.071   5.381 -0.0002 -1.2746 -0.2595
 7029TIP3    H242503   1.784   0.148   5.337  0.3298 -1.4089 -1.4494
 7030TIP3   OH242504   3.384   3.160   0.588  0.4526 -0.2633 -0.2655
 7030TIP3    H142505   3.300   3.172   0.544  0.1850  0.4224  0.4144
 7030TIP3    H242506   3.370   3.087   0.648  0.3178 -0.1234 -0.1233
 7031TIP3   OH242507   3.123   3.731  12.765 -0.0775  0.5455  0.0331
 7031TIP3    H142508   3.119   3.826  12.761  2.0081  0.6325 -1.2366
 7031TIP3    H242509   3.034   3.703  12.742 -0.6595  2.1418  0.1720
 7032TIP3   OH242510   3.437   0.929  11.718 -0.0849 -0.0171 -0.1329
 7032TIP3    H142511   3.380   0.857  11.692 -0.0177 -0.2605  0.4012
 7032TIP3    H242512   3.394   0.967  11.795  0.1039  0.2437 -0.1573
 7033TIP3   OH242513   3.944   3.299   4.060  0.0402  0.0471 -0.1449
 7033TIP3    H142514   3.871   3.249   4.025  0.2943 -0.2419 -0.2605
 7033TIP3    H242515   3.997   3.322   3.984  0.0840  0.2369 -0.0591
 7034TIP3   OH242516   2.574   1.295   3.631  0.1229 -0.3941  0.2360
 7034TIP3    H142517   2.645   1.341   3.587  0.2745 -2.4276 -1.7895
 7034TIP3    H242518   2.616   1.220   3.672 -0.6057 -0.6253  0.5725
 7035TIP3   OH242519   6.541   0.863  12.750  0.6583  0.2020  0.2722
 7035TIP3    H142520   6.611   0.923  12.774  0.2879  0.6738  0.1890
 7035TIP3    H242521   6.581   0.804  12.686  0.7856  0.9108 -0.3112
 7036TIP3   OH242522   1.289   2.061   2.803  0.3470 -0.0175  0.0928
 7036TIP3    H142523   1.295   2.096   2.714  0.7628  1.1482  0.5664
 7036TIP3    H242524   1.195   2.061   2.822  0.2200 -0.6778 -0.4953
 7037TIP3   OH242525   1.611   2.484  12.583 -0.9857  0.1224  0.2869
 7037TIP3    H142526   1.683   2.514  12.528 -0.3502 -1.2444  0.3332
 7037TIP3    H242527   1.632   2.518  12.670 -2.2606  2.7346 -0.3264
 7038TIP3   OH242528   0.701   5.854  16.654  0.4356 -0.3891 -0.2691
 7038TIP3    H142529   0.694   5.855  16.749  0.2080 -1.4944 -0.2571
 7038TIP3    H242530   0.621   5.809  16.625  0.8939 -0.8062 -0.9210
 7039TIP3   OH242531   3.685   0.918   1.830 -0.0220 -0.1654 -0.0223
 7039TIP3    H142532   3.637   0.973   1.768 -0.3219 -1.1505 -0.6881
 7039TIP3    H242533   3.761   0.887   1.781  1.3301  1.3555  1.0156
 7040TIP3   OH242534   6.420   4.639   3.864  0.3927 -0.4335 -0.1871
 7040TIP3    H142535   6.483   4.568   3.860  1.2207  0.1266  1.6355
 7040TIP3    H242536   6.378   4.629   3.950  0.5399  1.2374  0.1279
 7041TIP3   OH242537   4.459   3.845  14.163  0.0552 -0.2284  0.1944
 7041TIP3    H142538   4.391   3.785  14.132 -1.1239  1.1947 -0.1201
 7041TIP3    H242539   4.466   3.828  14.257 -1.6607  0.4417  0.4765
 7042TIP3   OH242540   2.820   5.372   2.010 -0.5432  0.3681  0.8723
 7042TIP3    H142541   2.829   5.415   2.095 -0.9069 -0.6523  1.4425
 7042TIP3    H242542   2.871   5.291   2.018  1.2226  1.2449 -0.6157
 7043TIP3   OH242543   2.655   6.442   2.191  0.0239 -0.4677 -0.1712
 7043TIP3    H142544   2.684   6.508   2.253 -1.8007  1.4135 -1.2145
 7043TIP3    H242545   2.672   6.479   2.105 -0.7941 -1.4541 -0.7948
 7044TIP3   OH242546   2.918   3.265   4.151 -0.1021  0.2307  0.3826
 7044TIP3    H142547   2.924   3.276   4.056 -0.7414  1.0151  0.4234
 7044TIP3    H242548   2.992   3.208   4.173 -0.2562 -0.3988 -0.6475
 7045TIP3   OH242549   4.795   2.874   4.687 -0.1999 -0.4399 -0.7238
 7045TIP3    H142550   4.853   2.804   4.718 -1.3769 -1.2766 -0.3853
 7045TIP3    H242551   4.720   2.829   4.650 -1.4791  0.6491  0.4603
 7046TIP3   OH242552   5.468   3.209   4.299 -0.3874 -0.0232  0.2236
 7046TIP3    H142553   5.429   3.204   4.211 -0.6999 -3.4200  0.4047
 7046TIP3    H242554   5.557   3.174   4.287  0.4214  1.7238  0.9015
 7047TIP3   OH242555   4.840   1.530  17.101 -0.1467 -0.0217  0.2086
 7047TIP3    H142556   4.899   1.544  17.175 -0.3846  1.0964  0.1996
 7047TIP3    H242557   4.812   1.438  17.110 -0.3499  0.1509  1.6327
 7048TIP3   OH242558   4.672   4.396  16.886 -0.4770  0.9046 -0.0449
 7048TIP3    H142559   4.727   4.358  16.817  0.0746  1.8797 -0.1657
 7048TIP3    H242560   4.733   4.413  16.958 -0.3926  2.8640 -0.5215
 7049TIP3   OH242561   0.659   3.800   5.635  0.2472  0.2510 -0.4123
 7049TIP3    H142562   0.699   3.869   5.689  2.3373 -0.5395 -0.8652
 7049TIP3    H242563   0.673   3.829   5.545 -1.0431  0.3719 -0.5950
 7050TIP3   OH242564   0.589   3.219   5.886 -0.2930  0.1778 -0.0374
 7050TIP3    H142565   0.549   3.143   5.927 -0.0763  1.2013  2.2006
 7050TIP3    H242566   0.599   3.283   5.957  2.0882  1.2623 -1.2371
 7051TIP3   OH242567   3.749   4.412  14.689  0.2441 -0.6774  0.4524
 7051TIP3    H142568   3.662   4.382  14.714 -0.1209  0.9573  1.2871
 7051TIP3    H242569   3.753   4.502  14.720  1.5095 -0.0631 -1.3604
 7052TIP3   OH242570   5.822   6.309   0.759  0.1391  0.0863  0.0863
 7052TIP3    H142571   5.892   6.246   0.774  0.2499 -0.3382 -2.0121
 7052TIP3    H242572   5.828   6.332   0.667 -1.2143  1.6079  0.3200
 7053TIP3   OH242573   3.644   4.550  17.071  0.2926  0.0478 -0.1726
 7053TIP3    H142574   3.737   4.539  17.091  0.7408  3.0968 -0.1114
 7053TIP3    H242575   3.634   4.513  16.983  0.6461 -3.7012  1.1934
 7054TIP3   OH242576   4.661   5.517  16.297  0.2060 -0.2065  0.2536
 7054TIP3    H142577   4.673   5.423  16.310 -1.7119 -0.6862 -1.1197
 7054TIP3    H242578   4.679   5.555  16.383  0.6024 -1.8578  0.9462
 7055TIP3   OH242579   4.971   5.593   4.814 -0.2706  0.0538  0.6202
 7055TIP3    H142580   5.017   5.644   4.880 -1.2552 -1.1148  2.2914
 7055TIP3    H242581   5.026   5.515   4.801 -0.8439 -0.4841  1.2947
 7056TIP3   OH242582   1.632   0.337   5.319  0.1335 -0.2548 -0.3849
 7056TIP3    H142583   1.575   0.369   5.249 -0.7502 -0.2497  0.3141
 7056TIP3    H242584   1.719   0.336   5.281 -0.2787  0.1123 -1.3629
 7057TIP3   OH242585   4.234   5.913   5.094  0.2073 -0.0102 -0.1414
 7057TIP3    H142586   4.256   5.948   5.180 -0.0425  0.3728 -0.2333
 7057TIP3    H242587   4.231   5.818   5.107 -1.2282  0.1120  0.6249
 7058TIP3   OH242588   5.344   4.341  12.858  0.7244 -0.0325 -0.1213
 7058TIP3    H142589   5.390   4.424  12.870  0.1836  0.6991 -2.4987
 7058TIP3    H242590   5.337   4.304  12.946  1.2366  2.2943  0.9681
 7059TIP3   OH242591   4.246   3.037   3.581  0.0382  0.0671  0.0139
 7059TIP3    H142592   4.217   2.964   3.635  1.8102 -0.4976  0.2663
 7059TIP3    H242593   4.294   2.996   3.508  1.1593  0.9449  0.2157
 7060TIP3   OH242594   2.250   2.115   4.829  0.9200  0.1862  0.3919
 7060TIP3    H142595   2.278   2.202   4.802 -0.4309  0.7128  0.6286
 7060TIP3    H242596   2.155   2.117   4.822  0.8706 -1.3129  0.2897
 7061TIP3   OH242597   2.440   5.297   6.568 -0.0077  0.7142  0.0785
 7061TIP3    H142598   2.364   5.239   6.559  0.1524  0.4933  0.1360
 7061TIP3    H242599   2.503   5.246   6.618 -0.4885  1.5481  1.5866
 7062TIP3   OH242600   4.515   0.467   1.048  0.0179 -0.5255  0.2797
 7062TIP3    H142601   4.595   0.414   1.050  0.8911  0.7618  0.9366
 7062TIP3    H242602   4.458   0.426   1.114  0.8098 -0.4518  1.0218
 7063TIP3   OH242603   2.905   0.553   5.335 -0.4776 -0.0932 -0.6336
 7063TIP3    H142604   2.876   0.485   5.397  1.3663 -0.9894 -0.6728
 7063TIP3    H242605   2.824   0.585   5.295 -1.4178 -2.3564 -0.6965
 7064TIP3   OH242606   5.704   3.335  12.165  0.0488 -0.1471  0.9136
 7064TIP3    H142607   5.624   3.384  12.146 -0.4773 -1.0879  0.6374
 7064TIP3    H242608   5.728   3.363  12.254 -0.2204  0.6201  0.7529
 7065TIP3   OH242609   2.126   6.595   1.040  0.3244  0.1189 -0.1521
 7065TIP3    H142610   2.111   6.506   1.009  1.4741  0.5521 -2.1563
 7065TIP3    H242611   2.056   6.647   1.000  0.2103  0.2511  0.2225
 7066TIP3   OH242612   1.750   0.364   4.405 -0.0914 -0.1086  0.6063
 7066TIP3    H142613   1.761   0.269   4.406 -1.3663 -0.2768  1.7261
 7066TIP3    H242614   1.768   0.390   4.496 -0.7622  0.5833  0.5444
 7067TIP3   OH242615   5.198   0.884  13.268 -0.7476  0.6845 -0.4629
 7067TIP3    H142616   5.193   0.972  13.304  0.6665  1.2286 -1.5421
 7067TIP3    H242617   5.188   0.895  13.174  0.5471 -0.1829 -0.7265
 7068TIP3   OH242618   0.226   4.994   3.364  0.2194 -0.2199  0.3373
 7068TIP3    H142619   0.139   5.030   3.349  0.5257  0.6748  0.6511
 7068TIP3    H242620   0.253   5.029   3.449  0.4206 -1.4303  0.7905
 7069TIP3   OH242621   5.933   0.000  17.194 -1.1136  0.5043 -0.6605
 7069TIP3    H142622   6.000   0.066  17.172 -0.4077 -0.6565 -2.1891
 7069TIP3    H242623   5.872   0.003  17.121  0.1122 -1.9941 -1.8826
 7070TIP3   OH242624   4.728   4.346  11.373 -0.1406  0.4490  0.2862
 7070TIP3    H142625   4.772   4.307  11.297  1.4722  1.3305  0.7236
 7070TIP3    H242626   4.685   4.424  11.338 -0.0789  0.4144  0.1317
 7071TIP3   OH242627   6.546   1.548  11.872 -0.2819  0.3764  0.1723
 7071TIP3    H142628   6.614   1.572  11.809 -0.8445  0.0923 -0.5592
 7071TIP3    H242629   6.545   1.621  11.935  0.2455  0.6936 -0.1815
 7072TIP3   OH242630   2.120   6.250   6.252  0.0891 -0.1342  0.4808
 7072TIP3    H142631   2.095   6.337   6.222 -0.3551 -1.0810 -2.1436
 7072TIP3    H242632   2.209   6.237   6.218  0.3945 -0.5181  1.3683
 7073TIP3   OH242633   4.244   3.900  17.127 -0.5629  0.3816 -0.1856
 7073TIP3    H142634   4.189   3.978  17.134 -1.3114 -0.2767  2.1539
 7073TIP3    H242635   4.236   3.873  17.035 -2.1687  1.7115 -0.4797
 7074TIP3   OH242636   6.362   0.967  13.015  0.0480  0.0883 -0.2489
 7074TIP3    H142637   6.336   0.881  12.984  3.1341 -0.5298 -1.5298
 7074TIP3    H242638   6.402   1.010  12.939  2.1205  1.0447  1.2588
 7075TIP3   OH242639   6.263   5.442  14.639  0.2840  0.1637 -0.2425
 7075TIP3    H142640   6.348   5.421  14.678 -0.0428 -0.8955 -0.0690
 7075TIP3    H242641   6.272   5.532  14.609  2.2319 -0.5944 -2.2200
 7076TIP3   OH242642   0.057   0.647   3.288 -0.2562  0.4198 -0.3046
 7076TIP3    H142643   0.134   0.704   3.282 -0.4117  0.7398  0.6743
 7076TIP3    H242644  -0.013   0.696   3.245  0.8277 -1.3350 -4.5847
 7077TIP3   OH242645   2.600   3.618   4.840  0.2456 -0.3081 -0.3824
 7077TIP3    H142646   2.521   3.604   4.892  0.7097  1.2500  0.8339
 7077TIP3    H242647   2.576   3.684   4.776  1.3722  3.1385  2.3922
 7078TIP3   OH242648   4.060   6.149   4.265 -0.4455  0.3327  1.1990
 7078TIP3    H142649   4.145   6.109   4.247 -0.2916  0.0422  2.4298
 7078TIP3    H242650   4.004   6.122   4.192  0.7201  1.2279 -0.0627
 7079TIP3   OH242651   2.129   1.531   5.695 -0.2044  0.3793 -0.2366
 7079TIP3    H142652   2.124   1.626   5.683  0.5026  0.7245  1.7920
 7079TIP3    H242653   2.058   1.511   5.756 -0.4234 -0.4202 -0.7430
 7080TIP3   OH242654   1.305   0.505  11.873  0.3357  0.3391 -0.5869
 7080TIP3    H142655   1.246   0.503  11.949  0.1023  0.7453 -0.7500
 7080TIP3    H242656   1.247   0.496  11.798  0.6754 -1.2559 -0.6910
 7081TIP3   OH242657   3.075   1.839   2.118  0.3921 -0.2481  0.3484
 7081TIP3    H142658   3.017   1.915   2.122  0.2671 -0.3158 -0.1005
 7081TIP3    H242659   3.037   1.784   2.049  0.9642 -0.3176  0.0873
 7082TIP3   OH242660   0.799   1.180  12.477  0.2809 -0.3364 -0.2678
 7082TIP3    H142661   0.817   1.267  12.511  0.8144  0.2887 -2.0392
 7082TIP3    H242662   0.756   1.134  12.549  0.6465  1.1452  0.9357
 7083TIP3   OH242663   2.743   3.013  14.853 -0.5139  0.0529  0.0992
 7083TIP3    H142664   2.726   2.922  14.830  1.9303  0.3338 -3.8071
 7083TIP3    H242665   2.835   3.013  14.882 -0.7396  1.1684  0.8550
 7084TIP3   OH242666   6.345   5.197  12.050  0.7256 -0.1768 -0.6652
 7084TIP3    H142667   6.273   5.134  12.058  1.2465 -0.8451 -1.1006
 7084TIP3    H242668   6.342   5.224  11.958  1.7574 -1.1178 -0.9946
 7085TIP3   OH242669   1.727   4.153   1.161  0.2121 -0.2148  0.1822
 7085TIP3    H142670   1.641   4.193   1.169  1.0897  1.6743  0.8452
 7085TIP3    H242671   1.748   4.159   1.067 -0.7062 -1.5269 -0.1411
 7086TIP3   OH242672   3.536   5.134  16.552 -0.3460  0.1270 -0.6154
 7086TIP3    H142673   3.535   5.060  16.491  1.1860  0.6391 -1.2893
 7086TIP3    H242674   3.624   5.133  16.590 -0.5913  1.1098  0.0066
 7087TIP3   OH242675   0.723   6.466   2.968 -0.1781  0.3175  0.0762
 7087TIP3    H142676   0.798   6.442   2.913 -0.1951  0.3793  0.0258
 7087TIP3    H242677   0.673   6.527   2.915 -0.6128 -0.2260 -0.1493
 7088TIP3   OH242678   1.806   2.654  13.835 -0.5492  0.0978  0.2590
 7088TIP3    H142679   1.891   2.681  13.801 -0.0091 -0.1547  1.3785
 7088TIP3    H242680   1.748   2.656  13.758  0.2710  1.0386 -0.3546
 7089TIP3   OH242681   4.717   3.534   0.581 -0.0519 -0.0306 -0.4624
 7089TIP3    H142682   4.651   3.601   0.562  0.3599  0.3246 -0.6600
 7089TIP3    H242683   4.668   3.462   0.622 -0.7445 -0.2122 -1.5555
 7090TIP3   OH242684   2.230   4.882   1.406 -0.2830 -0.0174  0.1168
 7090TIP3    H142685   2.156   4.886   1.347 -0.9662 -0.1415  0.9429
 7090TIP3    H242686   2.304   4.856   1.351 -0.8046  0.2952 -0.7492
 7091TIP3   OH242687   1.644   5.153  12.646 -0.6489  0.4571 -0.3717
 7091TIP3    H142688   1.555   5.189  12.641 -1.5265 -1.7070 -2.2070
 7091TIP3    H242689   1.676   5.156  12.556  0.1083 -1.0762 -0.1951
 7092TIP3   OH242690   0.377   2.230   1.833 -0.3845 -0.5490  0.0668
 7092TIP3    H142691   0.398   2.162   1.770 -1.4341 -0.4407 -0.4130
 7092TIP3    H242692   0.393   2.312   1.787 -0.7450 -0.4706  0.0761
 7093TIP3   OH242693   1.351   3.033   1.570 -0.1973 -0.3491 -0.0343
 7093TIP3    H142694   1.309   3.117   1.554 -1.7585 -0.9017  0.9870
 7093TIP3    H242695   1.443   3.055   1.587 -0.6824  1.2113  0.7817
 7094TIP3   OH242696   2.197   4.350  16.380  0.4156  0.1011  0.1333
 7094TIP3    H142697   2.107   4.318  16.371  0.7740 -0.8215 -0.2979
 7094TIP3    H242698   2.207   4.415  16.310  0.9382 -1.8308 -1.6758
 7095TIP3   OH242699   2.508   3.597  13.272  0.0883 -0.5872 -0.2243
 7095TIP3    H142700   2.495   3.534  13.201  2.8642  0.8024 -2.1773
 7095TIP3    H242701   2.468   3.678  13.239  1.4334  0.0765 -0.3094
 7096TIP3   OH242702   4.916   6.720  17.147 -0.5385 -0.1307  0.0112
 7096TIP3    H142703   4.909   6.643  17.092  1.3305 -0.5733  0.3148
 7096TIP3    H242704   4.847   6.709  17.213 -2.7599  0.3764 -2.0854
 7097TIP3   OH242705   4.790   2.991   2.601  0.6665 -0.5977 -0.3730
 7097TIP3    H142706   4.860   3.044   2.640  1.6515 -1.7863 -0.4628
 7097TIP3    H242707   4.712   3.016   2.650  0.7735  1.9719 -1.3367
 7098TIP3   OH242708   5.497   2.763  16.271 -0.0032  0.5346  0.5983
 7098TIP3    H142709   5.412   2.730  16.298  1.0138 -0.6924  2.5774
 7098TIP3    H242710   5.482   2.855  16.252 -1.6819  0.4546  1.3544
 7099TIP3   OH242711   2.137   4.085  14.764  0.2743 -0.1900 -0.1224
 7099TIP3    H142712   2.105   3.995  14.769  1.0089 -0.4073  1.2597
 7099TIP3    H242713   2.177   4.101  14.850 -0.8065  1.8258  0.0620
 7100TIP3   OH242714   5.122   1.832  17.147  0.5951  0.1619 -0.2591
 7100TIP3    H142715   5.159   1.811  17.061  1.4134  0.5716 -0.0122
 7100TIP3    H242716   5.105   1.747  17.188  0.4805 -0.0322 -0.7019
 7101TIP3   OH242717   1.498   0.383   3.829 -0.3949 -0.4598 -0.0892
 7101TIP3    H142718   1.429   0.426   3.778 -1.8910 -2.5824  0.0042
 7101TIP3    H242719   1.472   0.394   3.920  1.1550  1.4896  0.1773
 7102TIP3   OH242720   0.413   4.697   5.416  0.2119 -0.8123 -0.8059
 7102TIP3    H142721   0.499   4.717   5.454 -0.4944 -2.3011  1.8123
 7102TIP3    H242722   0.386   4.780   5.376  0.9889  1.1027  2.2424
 7103TIP3   OH242723   0.631   4.707   1.428  0.2064  0.2715  0.0770
 7103TIP3    H142724   0.723   4.707   1.451  0.8148  0.6533 -2.1301
 7103TIP3    H242725   0.618   4.625   1.380 -0.6176  0.2241  0.3560
 7104TIP3   OH242726   1.499   3.947   4.854  0.2992 -0.0955 -0.0605
 7104TIP3    H142727   1.507   3.945   4.950 -0.3265 -0.5066 -0.0064
 7104TIP3    H242728   1.588   3.961   4.822  0.2742  2.1314  0.6343
 7105TIP3   OH242729   1.519   3.671  16.349 -0.3408 -0.1811 -0.0401
 7105TIP3    H142730   1.513   3.739  16.416  0.2475  0.1731 -0.3386
 7105TIP3    H242731   1.536   3.718  16.267  2.4694 -0.7671  0.0933
 7106TIP3   OH242732   1.767   2.537   0.673 -0.1421  0.1475 -0.0795
 7106TIP3    H142733   1.754   2.627   0.645 -1.2447  0.3831  1.0710
 7106TIP3    H242734   1.775   2.487   0.592 -1.5987  1.0014 -0.7960
 7107TIP3   OH242735   2.139   5.393  10.684  0.0888  0.1117  0.2303
 7107TIP3    H142736   2.229   5.425  10.678 -0.2083  1.0042  0.4213
 7107TIP3    H242737   2.102   5.408  10.597  0.0671 -0.1003  0.2015
 7108TIP3   OH242738   0.766   0.939   0.731  0.0608  0.7777  0.9600
 7108TIP3    H142739   0.819   0.992   0.671  1.8463 -0.5953  1.2459
 7108TIP3    H242740   0.689   0.916   0.680  0.6879  1.1276 -0.1976
 7109TIP3   OH242741   0.402   5.236   1.948 -0.2526  0.0621 -0.1450
 7109TIP3    H142742   0.398   5.179   1.872 -0.3028 -1.1920  0.7692
 7109TIP3    H242743   0.359   5.317   1.920  0.3703 -0.0941 -1.6622
 7110TIP3   OH242744   3.136   6.278   3.335  0.0623 -0.6982 -0.1778
 7110TIP3    H142745   3.087   6.214   3.284 -1.3250 -0.0487  0.2845
 7110TIP3    H242746   3.099   6.272   3.423 -1.1124  1.6557 -0.4161
 7111TIP3   OH242747   6.184   4.570  12.379  0.4048 -0.3408 -0.2961
 7111TIP3    H142748   6.141   4.513  12.316 -2.3668  0.9856  0.2529
 7111TIP3    H242749   6.250   4.617  12.327 -0.3532 -0.7986 -1.7271
 7112TIP3   OH242750   6.687   1.455   5.740 -0.3114 -0.5738 -0.1280
 7112TIP3    H142751   6.716   1.382   5.793 -0.5638 -1.0296 -0.6076
 7112TIP3    H242752   6.756   1.466   5.674 -0.7803 -1.0759 -0.7129
 7113TIP3   OH242753   1.499   5.282   5.648 -0.4624 -0.1452 -0.6481
 7113TIP3    H142754   1.481   5.229   5.571  5.0970 -0.5710 -2.0278
 7113TIP3    H242755   1.538   5.363   5.614  0.4416  0.4798  1.6342
 7114TIP3   OH242756   4.362   0.834   5.535  0.1664  0.0811 -0.4670
 7114TIP3    H142757   4.377   0.908   5.477 -0.3508  1.3412  0.9594
 7114TIP3    H242758   4.274   0.846   5.569 -0.7978 -2.3880 -1.8294
 7115TIP3   OH242759   1.991   0.956   1.424 -0.0163 -0.2031  0.0081
 7115TIP3    H142760   2.065   0.922   1.374  0.1494  0.1298  0.0201
 7115TIP3    H242761   1.958   0.881   1.473  1.9935  0.1736  2.1281
 7116TIP3   OH242762   0.402   1.962   3.771  0.5045  0.6171 -0.0709
 7116TIP3    H142763   0.407   1.867   3.763  1.1553  0.6859 -0.4619
 7116TIP3    H242764   0.309   1.982   3.759  0.3116  0.0035  0.3649
 7117TIP3   OH242765   1.589   0.645  14.301  0.3877 -0.1570  0.2127
 7117TIP3    H142766   1.508   0.611  14.341  0.9785 -1.2229  0.5258
 7117TIP3    H242767   1.568   0.736  14.281 -1.3917 -0.7844 -1.0355
 7118TIP3   OH242768   2.064   5.785   5.811  0.0104  0.9128  0.1476
 7118TIP3    H142769   2.044   5.708   5.759  1.2139  0.5130  0.2554
 7118TIP3    H242770   2.159   5.782   5.825  0.1497  2.5978 -0.1594
 7119TIP3   OH242771   0.087   2.165  11.987 -0.4479  0.4435  0.1378
 7119TIP3    H142772   0.134   2.150  12.069 -1.8327  0.8641  1.0378
 7119TIP3    H242773   0.005   2.208  12.014 -1.3134 -0.2061 -1.3811
 7120TIP3   OH242774   1.534   4.093  12.505 -0.0093 -0.3955 -0.7169
 7120TIP3    H142775   1.439   4.106  12.512  0.3075  2.9099 -0.6031
 7120TIP3    H242776   1.568   4.120  12.590  1.0907 -0.8301 -1.0055
 7121TIP3   OH242777   6.500   4.517   0.343  0.0172 -0.0916  0.0917
 7121TIP3    H142778   6.422   4.565   0.316  0.1336 -0.0060 -0.0899
 7121TIP3    H242779   6.490   4.507   0.438  0.3104  0.8540  0.2303
 7122TIP3   OH242780   6.538   6.064   3.164 -0.0835  0.4559  0.2195
 7122TIP3    H142781   6.613   6.119   3.140 -0.5257  1.0000  0.0494
 7122TIP3    H242782   6.540   5.991   3.103 -1.3320  1.9327 -1.6868
 7123TIP3   OH242783   5.361   3.600  14.687 -0.6518 -0.4198  0.5531
 7123TIP3    H142784   5.294   3.563  14.630  0.6641 -0.9654 -0.7033
 7123TIP3    H242785   5.391   3.679  14.642 -0.2082 -0.3713  0.9197
 7124TIP3   OH242786   4.033   4.738   4.949 -0.0682  0.6831  0.2056
 7124TIP3    H142787   3.944   4.718   4.920  0.3865 -0.9104 -0.1620
 7124TIP3    H242788   4.084   4.745   4.868  0.4128  0.1672  0.4524
 7125TIP3   OH242789   4.514   0.453  12.412 -0.2491 -0.4545 -0.0900
 7125TIP3    H142790   4.578   0.480  12.346 -1.0226  0.7423 -0.3915
 7125TIP3    H242791   4.560   0.390  12.467  0.5337 -1.1944 -1.5419
 7126TIP3   OH242792   2.832   6.739  16.031  0.3472  0.1809 -0.2317
 7126TIP3    H142793   2.884   6.670  16.073  0.9711  0.1688 -1.0114
 7126TIP3    H242794   2.888   6.773  15.962  0.6738  2.5447  1.0942
 7127TIP3   OH242795   1.492   0.541   0.525 -0.0832  0.5455 -0.1049
 7127TIP3    H142796   1.435   0.464   0.531 -0.5910  0.8772 -0.5214
 7127TIP3    H242797   1.578   0.510   0.555 -0.6977  0.2874  1.4978
 7128TIP3   OH242798   5.494   0.764  12.875 -0.1537 -0.5529  0.6862
 7128TIP3    H142799   5.462   0.842  12.920  0.3656  0.2305 -0.2789
 7128TIP3    H242800   5.442   0.692  12.912 -1.4536  0.3910  0.7533
 7129TIP3   OH242801   4.819   6.149   1.351  0.6192  0.9135 -0.1101
 7129TIP3    H142802   4.729   6.119   1.353  0.6638  0.2546  4.8824
 7129TIP3    H242803   4.815   6.236   1.313 -1.4797 -0.3193 -3.0598
 7130TIP3   OH242804   3.309   0.373  12.208 -0.2588  0.8342 -0.2801
 7130TIP3    H142805   3.372   0.436  12.175  0.6758  0.9822  1.6490
 7130TIP3    H242806   3.229   0.390  12.157  0.3040  2.7909 -0.5988
 7131TIP3   OH242807   1.066   6.493   3.864 -0.0057  0.7857  0.0336
 7131TIP3    H142808   1.006   6.472   3.936  1.1441 -1.6754  0.3937
 7131TIP3    H242809   1.141   6.534   3.908 -0.0538  0.9102  0.0003
 7132TIP3   OH242810   2.100   3.928  11.868  0.3742 -0.2348  0.0048
 7132TIP3    H142811   2.008   3.907  11.881  0.3229 -0.7278 -1.0675
 7132TIP3    H242812   2.128   3.966  11.951 -0.7334 -0.2900  0.4167
 7133TIP3   OH242813   5.351   4.033   2.467 -0.1352  0.5276 -0.2045
 7133TIP3    H142814   5.278   4.067   2.520  0.2406 -0.2254  0.8404
 7133TIP3    H242815   5.331   3.941   2.455  0.6562  0.3014  0.1393
 7134TIP3   OH242816   2.391   6.166   6.175  0.4630 -0.2995  0.4601
 7134TIP3    H142817   2.358   6.089   6.128 -3.2052  0.7245  1.0362
 7134TIP3    H242818   2.412   6.229   6.106 -0.3451 -0.4478  0.0713
 7135TIP3   OH242819   4.798   0.605   1.942  0.1491 -0.1086  0.9037
 7135TIP3    H142820   4.874   0.657   1.965  0.9631 -0.9053  0.0839
 7135TIP3    H242821   4.738   0.617   2.016  2.6914 -2.7238  3.6761
 7136TIP3   OH242822   2.284   5.369   2.228  0.6884 -0.3146 -0.4283
 7136TIP3    H142823   2.221   5.300   2.205 -0.1658  0.8760 -1.8406
 7136TIP3    H242824   2.257   5.444   2.175  1.2542  1.2940  1.4434
 7137TIP3   OH242825   3.493   4.128   2.977 -0.1506 -0.2129 -0.1797
 7137TIP3    H142826   3.480   4.165   2.890  2.0287 -0.9602 -0.8728
 7137TIP3    H242827   3.578   4.161   3.005  0.6545 -2.5409  0.2908
 7138TIP3   OH242828   5.530   4.334   0.092  0.5762  0.2848  0.1868
 7138TIP3    H142829   5.473   4.355   0.166  0.7856 -0.3078  0.5197
 7138TIP3    H242830   5.546   4.240   0.100 -0.4652 -0.0661 -1.3734
 7139TIP3   OH242831   6.700   4.817  11.728 -0.1973  0.1651 -0.1500
 7139TIP3    H142832   6.714   4.803  11.635 -1.3101 -1.3161 -0.1428
 7139TIP3    H242833   6.632   4.753  11.752  0.3874  0.1909  1.7640
 7140TIP3   OH242834   5.338   3.762   0.625  0.0363  0.6272  0.2571
 7140TIP3    H142835   5.314   3.670   0.617 -1.1237  0.8591  0.8094
 7140TIP3    H242836   5.263   3.810   0.590  0.5406  1.3694  0.1619
 7141TIP3   OH242837   1.366   2.396  14.767 -0.1630  0.2504  0.1743
 7141TIP3    H142838   1.353   2.364  14.678 -1.0442 -0.1807  0.4484
 7141TIP3    H242839   1.430   2.336  14.805  1.1221  1.1399 -0.5314
 7142TIP3   OH242840   3.139   5.388  14.464  0.0635 -0.7708 -0.1142
 7142TIP3    H142841   3.131   5.412  14.372  1.9460  3.1313  0.5339
 7142TIP3    H242842   3.231   5.363  14.475  0.2531  0.3117  0.9476
 7143TIP3   OH242843   6.544   1.223  14.528 -0.5276 -0.2082 -0.2827
 7143TIP3    H142844   6.464   1.266  14.559 -0.4462 -0.4578  0.2937
 7143TIP3    H242845   6.551   1.144  14.583 -0.4319 -0.7195 -1.0138
 7144TIP3   OH242846   0.957   6.410  12.448 -0.4755  0.0052 -0.0733
 7144TIP3    H142847   0.872   6.384  12.412  0.0938 -1.3150 -0.5369
 7144TIP3    H242848   0.994   6.328  12.481 -1.1949  1.1611  4.1606
 7145TIP3   OH242849   3.018   1.753   3.546 -0.0208 -0.1311 -0.3165
 7145TIP3    H142850   2.979   1.733   3.631  0.4934  0.9477  0.1900
 7145TIP3    H242851   2.954   1.722   3.482 -0.8612 -0.0567  0.4745
 7146TIP3   OH242852   6.004   3.770  15.134 -0.1620 -0.5020 -0.6527
 7146TIP3    H142853   6.060   3.716  15.079  1.4387 -0.3081  0.6929
 7146TIP3    H242854   6.064   3.815  15.193 -1.6581  0.6775  0.0647
 7147TIP3   OH242855   0.547   3.771  11.907  0.3551 -0.2084 -0.6453
 7147TIP3    H142856   0.463   3.758  11.865  0.6472 -1.6139 -0.8412
 7147TIP3    H242857   0.545   3.713  11.984  1.7105 -1.4959 -1.5255
 7148TIP3   OH242858   2.176   2.389  16.125 -0.1553 -0.2306  0.0854
 7148TIP3    H142859   2.166   2.350  16.211  1.0086  1.7272  1.1718
 7148TIP3    H242860   2.208   2.318  16.070  1.5855 -0.9182  1.8905
 7149TIP3   OH242861   3.171   0.449   2.457  0.5450 -0.5802 -0.3664
 7149TIP3    H142862   3.138   0.369   2.498 -0.2774 -0.6142 -1.0682
 7149TIP3    H242863   3.207   0.500   2.529  0.7873 -1.4435  0.1344
 7150TIP3   OH242864   0.940   2.276  15.619 -0.6842 -0.5268 -0.1907
 7150TIP3    H142865   0.944   2.192  15.665  0.6708  0.0012  0.7042
 7150TIP3    H242866   0.974   2.257  15.532  0.4233 -0.7563  0.2714
 7151TIP3   OH242867   4.683   5.786   2.535 -0.4108  0.3412 -0.4322
 7151TIP3    H142868   4.620   5.753   2.472 -1.0949  0.5566  0.1265
 7151TIP3    H242869   4.630   5.814   2.610  0.2783  1.2421 -0.2606
 7152TIP3   OH242870   2.663   4.942   3.688 -0.5141  0.1095  0.5980
 7152TIP3    H142871   2.753   4.931   3.719 -1.0418 -0.1317  2.0925
 7152TIP3    H242872   2.649   5.037   3.687  0.1856  0.2382 -1.0128
 7153TIP3   OH242873   3.794   5.729   2.926  0.7099  0.2512  0.6360
 7153TIP3    H142874   3.816   5.822   2.933 -0.1530  0.5705 -0.5051
 7153TIP3    H242875   3.877   5.686   2.905  1.0085  0.8581  0.5628
 7154TIP3   OH242876   4.322   0.004  11.109  1.1701  0.3104  0.0514
 7154TIP3    H142877   4.296  -0.061  11.174 -3.0268  0.4345 -1.1941
 7154TIP3    H242878   4.357  -0.047  11.036  0.8152 -0.3273  0.3178
 7155TIP3   OH242879   5.433   6.512  17.043  0.0950 -0.4677 -0.1669
 7155TIP3    H142880   5.342   6.540  17.050  0.3183 -0.2620  3.0243
 7155TIP3    H242881   5.429   6.416  17.048  0.0865 -0.4483  0.1577
 7156TIP3   OH242882   0.433   0.645  11.513 -0.1379  0.1547 -0.1909
 7156TIP3    H142883   0.363   0.580  11.507  1.3738 -1.4881 -0.9166
 7156TIP3    H242884   0.437   0.684  11.425  1.3349 -1.4469 -0.8996
 7157TIP3   OH242885   3.810   2.876   2.196 -0.0667 -0.4333 -0.4669
 7157TIP3    H142886   3.746   2.805   2.197 -0.7227  0.1228  1.3657
 7157TIP3    H242887   3.892   2.835   2.224 -0.4756 -0.4670  0.7279
 7158TIP3   OH242888   5.560   1.172   1.815 -0.1774 -0.1151 -0.9875
 7158TIP3    H142889   5.605   1.251   1.846 -0.4398 -0.2398 -0.2875
 7158TIP3    H242890   5.479   1.169   1.865 -0.4048 -0.5621 -1.3723
 7159TIP3   OH242891   4.153   2.398  16.440  0.2456  0.2986 -0.3947
 7159TIP3    H142892   4.159   2.309  16.406 -3.1885 -0.1181 -0.2687
 7159TIP3    H242893   4.223   2.446  16.395 -0.1880 -1.6193 -3.3982
 7160TIP3   OH242894   3.659   1.046  15.465  0.1466 -0.4045 -0.2717
 7160TIP3    H142895   3.635   1.022  15.376 -1.3994  1.9282 -0.5624
 7160TIP3    H242896   3.634   0.971  15.518 -0.0120 -1.3474 -1.6453
 7161TIP3   OH242897   6.650   3.635  16.795  0.4332  0.4087 -0.0399
 7161TIP3    H142898   6.742   3.659  16.807  0.2317  1.3093 -0.1703
 7161TIP3    H242899   6.623   3.683  16.716  0.5645 -1.9545 -1.6233
 7162TIP3   OH242900   4.113   6.496   3.860 -0.3184  0.0236  0.1530
 7162TIP3    H142901   4.192   6.468   3.814 -0.7978  1.7751 -1.8552
 7162TIP3    H242902   4.051   6.424   3.846  0.3140 -0.5420  0.1775
 7163TIP3   OH242903   4.827   4.414  14.307  0.2876 -0.1730 -0.2189
 7163TIP3    H142904   4.809   4.493  14.256  0.1077 -1.2234 -1.8224
 7163TIP3    H242905   4.920   4.397  14.294  0.6994  0.6198  1.4110
 7164TIP3   OH242906   5.762   6.419  16.995  0.9225 -0.3592  0.2896
 7164TIP3    H142907   5.807   6.436  16.912  1.2712  0.3721  0.6197
 7164TIP3    H242908   5.729   6.504  17.022 -0.0088 -0.7591  0.4418
 7165TIP3   OH242909   1.818   1.889   4.494  0.5285 -0.1018  0.1665
 7165TIP3    H142910   1.889   1.927   4.546 -0.8088  0.5766  1.5644
 7165TIP3    H242911   1.848   1.896   4.403  1.5338  1.6673  0.5987
 7166TIP3   OH242912   1.182   4.439  11.989  0.1065  0.3180  0.0128
 7166TIP3    H142913   1.192   4.360  12.043 -0.2656  0.0211 -0.3453
 7166TIP3    H242914   1.266   4.448  11.944 -0.1881 -0.4461 -0.7023
 7167TIP3   OH242915   6.137   3.084  13.102  0.3431 -0.1405  0.0584
 7167TIP3    H142916   6.114   2.996  13.071 -1.4658  0.4285 -0.3243
 7167TIP3    H242917   6.232   3.081  13.113  0.3850 -1.9898 -0.4203
 7168TIP3   OH242918   5.275   6.514  16.211  0.3461  0.3828  0.1839
 7168TIP3    H142919   5.206   6.552  16.265 -0.1441 -1.5588  1.0232
 7168TIP3    H242920   5.342   6.486  16.274  0.7348 -0.0341 -0.4042
 7169TIP3   OH242921   6.394   2.113  12.549  0.3826  0.4722  0.2671
 7169TIP3    H142922   6.489   2.121  12.537  0.2752 -1.0061 -2.1883
 7169TIP3    H242923   6.376   2.020  12.539 -1.2405  0.5201  2.0264
 7170TIP3   OH242924   3.122   2.862   4.215 -0.7446  0.3433  0.2768
 7170TIP3    H142925   3.165   2.902   4.291  0.2156 -0.0025 -0.0733
 7170TIP3    H242926   3.187   2.869   4.145 -1.5367  0.4559 -0.4618
 7171TIP3   OH242927   0.375   6.172  16.101 -0.2282 -0.6902  0.2480
 7171TIP3    H142928   0.379   6.147  16.009  0.7633 -0.3066  0.1638
 7171TIP3    H242929   0.395   6.266  16.101  1.5698 -1.0139  0.9655
 7172TIP3   OH242930   4.745   1.054   0.957 -0.6734 -0.3730  0.5659
 7172TIP3    H142931   4.678   1.007   0.906 -0.3273  1.7361 -2.0470
 7172TIP3    H242932   4.695   1.106   1.020 -1.1882 -2.0642  1.6310
 7173TIP3   OH242933   3.727   6.131  15.712 -0.0570  0.4496  0.2513
 7173TIP3    H142934   3.781   6.210  15.711 -0.5526  0.8546 -2.3535
 7173TIP3    H242935   3.637   6.164  15.710 -0.2730 -0.1592 -0.6627
 7174TIP3   OH242936   4.146   2.531   3.301 -0.0815  0.1409  0.3737
 7174TIP3    H142937   4.206   2.603   3.321 -0.5292 -0.0270  2.5225
 7174TIP3    H242938   4.195   2.452   3.323 -0.8115 -0.0304  1.4202
 7175TIP3   OH242939   5.152   0.937   0.927  0.0804 -0.5859  0.0471
 7175TIP3    H142940   5.213   0.994   0.880  0.8854 -1.9487 -0.6249
 7175TIP3    H242941   5.208   0.890   0.990 -0.6330 -0.3496  0.8719
 7176TIP3   OH242942   0.423   0.372  14.464 -0.3544  0.1284  0.2053
 7176TIP3    H142943   0.401   0.279  14.467  0.9898 -0.2501 -0.5750
 7176TIP3    H242944   0.389   0.402  14.380  2.6112 -0.6764 -1.4399
 7177TIP3   OH242945   6.135   2.403  11.191 -0.0253 -0.0431  0.4769
 7177TIP3    H142946   6.161   2.466  11.124  0.3096 -0.3171  0.3439
 7177TIP3    H242947   6.180   2.322  11.166 -1.3418 -0.6641  0.0051
 7178TIP3   OH242948   5.831   3.195   0.360  0.4161 -0.2715  0.3410
 7178TIP3    H142949   5.855   3.181   0.451  0.3619 -0.2978  0.3514
 7178TIP3    H242950   5.755   3.139   0.347  1.0000 -1.0246  0.0205
 7179TIP3   OH242951   4.107   2.632  12.107  0.0134  0.3726  0.2824
 7179TIP3    H142952   4.039   2.696  12.126  0.9120  0.9881  1.5757
 7179TIP3    H242953   4.187   2.684  12.096  0.4915 -0.4174 -0.0958
 7180TIP3   OH242954   2.540   0.047  13.875 -0.1825  0.1786  0.0179
 7180TIP3    H142955   2.586   0.105  13.936  1.8116  0.5590 -1.7350
 7180TIP3    H242956   2.448   0.054  13.900  0.3256  1.8832  1.6579
 7181TIP3   OH242957   5.889   1.329   4.684  0.1638 -0.2026 -0.1067
 7181TIP3    H142958   5.842   1.412   4.693 -0.0399 -0.2480 -0.6633
 7181TIP3    H242959   5.893   1.314   4.589 -1.5027 -1.7773  0.0103
 7182TIP3   OH242960   6.161   1.197  12.027 -0.4490 -0.6767 -0.2233
 7182TIP3    H142961   6.233   1.259  12.032 -0.6624 -0.3465 -1.0452
 7182TIP3    H242962   6.092   1.244  11.980 -1.1491 -1.0365  0.4205
 7183TIP3   OH242963   5.315   5.189  11.309 -0.1594 -0.4296 -0.0430
 7183TIP3    H142964   5.236   5.203  11.257  0.5844  0.0161 -1.0886
 7183TIP3    H242965   5.318   5.264  11.369 -1.0108 -0.9391  0.6702
 7184TIP3   OH242966   1.092   3.652   0.617 -0.3587  0.0719  0.0679
 7184TIP3    H142967   1.151   3.656   0.693  1.6593 -0.9036 -1.3334
 7184TIP3    H242968   1.142   3.694   0.547 -2.0618  0.6920 -0.8328
 7185TIP3   OH242969   5.472   4.171   2.041  0.3385  0.3205  0.0579
 7185TIP3    H142970   5.378   4.162   2.027  0.3921 -0.9342  0.3707
 7185TIP3    H242971   5.511   4.113   1.976  0.8643  0.1835  0.4942
 7186TIP3   OH242972   4.972   1.477   4.323 -0.5899  0.7517  0.0634
 7186TIP3    H142973   4.942   1.509   4.238  1.2944  1.9820 -0.1984
 7186TIP3    H242974   4.972   1.382   4.314 -1.0260  0.8434 -1.0864
 7187TIP3   OH242975   4.338   5.410  17.187 -0.0331 -0.3616 -0.1220
 7187TIP3    H142976   4.251   5.448  17.193  0.0987 -0.1956  0.8823
 7187TIP3    H242977   4.354   5.403  17.093 -0.9981 -0.1083 -0.3197
 7188TIP3   OH242978   2.089   5.119  15.759 -0.7978  0.4615  0.1504
 7188TIP3    H142979   2.093   5.175  15.682  0.1446 -0.3152 -0.3829
 7188TIP3    H242980   2.007   5.070  15.750 -0.8949  0.6762 -0.1300
 7189TIP3   OH242981   6.435   5.177   0.858 -0.9489  0.3004  0.2563
 7189TIP3    H142982   6.450   5.271   0.845 -0.0049  0.1035 -0.1935
 7189TIP3    H242983   6.406   5.145   0.772 -0.2827  0.0091  0.1316
 7190TIP3   OH242984   5.147   6.179  13.188  0.5628 -0.4648  0.6430
 7190TIP3    H142985   5.181   6.171  13.098  0.1503  0.3303  0.4060
 7190TIP3    H242986   5.224   6.170  13.244  1.1151  0.9034  0.1312
 7191TIP3   OH242987   1.077   4.531  17.118 -0.0402 -0.7759  0.0536
 7191TIP3    H142988   1.107   4.497  17.034 -1.6628 -0.5150 -0.6641
 7191TIP3    H242989   1.092   4.625  17.113  1.7069 -0.9710  0.8785
 7192TIP3   OH242990   3.162   5.977   2.979 -0.3860  0.3952 -0.1714
 7192TIP3    H142991   3.239   5.921   2.984 -0.5025  0.2475 -0.0185
 7192TIP3    H242992   3.100   5.938   3.040 -0.2268  1.0708  0.4399
 7193TIP3   OH242993   3.923   0.315   2.436  0.2016  0.2890 -0.3622
 7193TIP3    H142994   3.958   0.279   2.517  0.9487  1.0872 -0.3218
 7193TIP3    H242995   3.966   0.265   2.367 -0.1110 -0.0946 -0.2882
 7194TIP3   OH242996   6.154   2.854   5.335  0.2672 -0.4303  0.5908
 7194TIP3    H142997   6.142   2.889   5.247  1.5336 -0.8115  0.2503
 7194TIP3    H242998   6.167   2.760   5.322  2.2477 -0.2588  0.9818
 7195TIP3   OH242999   5.912   4.874   4.444 -0.4725 -0.3294  0.0740
 7195TIP3    H143000   5.950   4.914   4.366 -0.0715  2.3774  1.5598
 7195TIP3    H243001   5.918   4.780   4.427  1.3259  0.1137 -2.3344
 7196TIP3   OH243002   6.097   4.797   0.931 -0.7451 -0.0207  0.0397
 7196TIP3    H143003   6.142   4.864   0.983 -0.8383  0.7557 -0.8651
 7196TIP3    H243004   6.092   4.721   0.989 -1.4916  1.0510  1.4499
 7197TIP3   OH243005   4.148   1.286   0.221 -0.0252  0.1908 -0.4597
 7197TIP3    H143006   4.153   1.307   0.315  0.0620  0.9483 -0.6291
 7197TIP3    H243007   4.093   1.355   0.184  1.5905  1.0819 -1.3041
 7198TIP3   OH243008   5.939   1.702   2.728  0.1323  0.9122 -0.0596
 7198TIP3    H143009   6.004   1.659   2.672  0.6270  2.0777 -0.3949
 7198TIP3    H243010   5.976   1.696   2.816 -1.9820 -3.6164  0.8065
 7199TIP3   OH243011   5.854   3.114  10.489 -0.2137 -0.2514  0.4342
 7199TIP3    H143012   5.863   3.190  10.431 -0.5902 -0.1555  0.4961
 7199TIP3    H243013   5.850   3.151  10.577  2.2472 -0.4985  0.7308
 7200TIP3   OH243014   0.877   1.457  10.824  0.1406 -0.3257  0.7097
 7200TIP3    H143015   0.957   1.458  10.876  0.2450 -0.0799  0.5472
 7200TIP3    H243016   0.907   1.463  10.733 -0.1103  1.7205  0.6988
 7201TIP3   OH243017   1.380   6.215   5.661  0.2085 -0.3226 -0.0274
 7201TIP3    H143018   1.359   6.123   5.673  0.1566 -0.3692 -0.4656
 7201TIP3    H243019   1.472   6.222   5.685  0.1733 -0.4574  0.1524
 7202TIP3   OH243020   1.492   2.188  11.574  0.3779  0.1971  0.3477
 7202TIP3    H143021   1.469   2.279  11.557  0.0017  0.2434  1.0651
 7202TIP3    H243022   1.512   2.185  11.668  0.9272 -0.3445  0.2243
 7203TIP3   OH243023   6.164   6.213  13.959 -0.5408 -0.5481 -0.1533
 7203TIP3    H143024   6.094   6.229  13.896 -1.0094 -0.0332  0.4914
 7203TIP3    H243025   6.133   6.251  14.041  1.6430  2.2761 -0.4795
 7204TIP3   OH243026   5.502   3.564  14.401  0.5089  0.1625  0.4238
 7204TIP3    H143027   5.524   3.655  14.383  1.1027 -0.2521 -1.0834
 7204TIP3    H243028   5.562   3.538  14.471  0.2602  0.9368  0.9401
 7205TIP3   OH243029   5.591   5.299   3.467  0.5987  0.1180  0.5577
 7205TIP3    H143030   5.630   5.268   3.386 -2.5034  1.4593 -1.6093
 7205TIP3    H243031   5.625   5.388   3.478 -0.4321  0.6262 -0.3281
 7206TIP3   OH243032   3.259   6.155   4.346  0.0883  0.1696 -0.5992
 7206TIP3    H143033   3.164   6.153   4.357  0.3153  0.7277  2.3701
 7206TIP3    H243034   3.291   6.197   4.425  2.7747  1.1612 -2.0812
 7207TIP3   OH243035   3.180   0.424   0.932  0.2401  0.2241 -0.4045
 7207TIP3    H143036   3.192   0.380   1.017 -0.0824  0.8912 -0.0022
 7207TIP3    H243037   3.248   0.491   0.930  1.1212 -0.6784 -1.2876
 7208TIP3   OH243038   0.668   2.856   0.094  0.2024 -0.0862 -0.2054
 7208TIP3    H143039   0.595   2.813   0.138 -0.9781 -0.7105 -2.6124
 7208TIP3    H243040   0.739   2.854   0.158 -1.4827 -0.6007  1.7535
 7209TIP3   OH243041   6.018   5.801   4.971 -0.1371  1.0162  0.1381
 7209TIP3    H143042   6.066   5.724   4.942 -2.0667  1.1728 -4.0885
 7209TIP3    H243043   5.934   5.767   5.000 -0.1896  1.3882  0.4375
 7210TIP3   OH243044   3.676   5.187  16.139 -0.2000 -0.1025 -0.2153
 7210TIP3    H143045   3.593   5.200  16.183 -0.3764  1.4212 -0.9480
 7210TIP3    H243046   3.742   5.198  16.207 -0.5624 -0.8601  0.2695
 7211TIP3   OH243047   1.748   3.567  14.753 -0.4596 -0.4298  0.0829
 7211TIP3    H143048   1.838   3.535  14.758 -0.7379 -1.2999 -0.2371
 7211TIP3    H243049   1.701   3.498  14.706 -1.0994  0.4459 -0.5903
 7212TIP3   OH243050   5.676   3.471   5.195 -0.0613  0.8913 -0.6374
 7212TIP3    H143051   5.764   3.469   5.232 -0.5624  0.0840  0.5716
 7212TIP3    H243052   5.618   3.464   5.270 -1.1574  0.8185 -1.4635
 7213TIP3   OH243053   0.741   4.435   3.330  0.2873 -0.4194 -0.1917
 7213TIP3    H143054   0.694   4.498   3.386  0.7524  1.9821 -2.3226
 7213TIP3    H243055   0.683   4.421   3.255  0.4773 -2.1045 -0.0594
 7214TIP3   OH243056   4.764   4.206  11.138 -0.0404  0.0433  0.1055
 7214TIP3    H143057   4.823   4.130  11.138 -1.7696 -1.3942  1.2538
 7214TIP3    H243058   4.700   4.186  11.070  0.3557  1.2696 -0.6621
 7215TIP3   OH243059   2.025   4.007   5.237 -0.5679 -0.1737 -0.6179
 7215TIP3    H143060   1.934   4.020   5.261 -0.9718 -0.0155 -2.1410
 7215TIP3    H243061   2.053   3.930   5.287 -0.9623  0.8383  1.2687
 7216TIP3   OH243062   0.021   4.064   5.745  0.2190 -0.5175 -0.2738
 7216TIP3    H143063   0.066   4.026   5.670  0.5785 -0.4838 -0.0793
 7216TIP3    H243064   0.091   4.090   5.805  0.0717  1.8147 -1.0192
 7217TIP3   OH243065   6.384   2.543   6.051  0.0462 -0.2787  0.1098
 7217TIP3    H143066   6.402   2.471   6.111  1.3801 -0.8212 -0.8813
 7217TIP3    H243067   6.415   2.621   6.097  0.4546 -0.6004  0.3863
 7218TIP3   OH243068   1.193   3.226   4.194  0.4498  0.3649  0.5036
 7218TIP3    H143069   1.189   3.292   4.262 -0.0911 -0.1777  1.0034
 7218TIP3    H243070   1.226   3.148   4.238  0.3296  0.0790  0.0933
 7219TIP3   OH243071   3.941   2.114   5.418  0.0486  0.6221  0.1074
 7219TIP3    H143072   3.851   2.104   5.386 -0.2000  0.4516  0.8146
 7219TIP3    H243073   3.946   2.205   5.446  0.5991  1.0565 -1.3680
 7220TIP3   OH243074   0.713   4.533   0.148 -0.1678  0.0769  0.2689
 7220TIP3    H143075   0.746   4.519   0.059  0.4990  0.4859  0.4422
 7220TIP3    H243076   0.791   4.554   0.199 -0.7369  1.3899  0.6250
 7221TIP3   OH243077   5.917   3.991   3.214  0.0569  0.2309 -0.0475
 7221TIP3    H143078   6.011   3.991   3.232  0.2144  1.5844 -0.7488
 7221TIP3    H243079   5.876   3.972   3.299  0.9648 -1.4858  0.0523
 7222TIP3   OH243080   2.169   4.444   4.166  0.1370 -0.4251  0.2009
 7222TIP3    H143081   2.172   4.368   4.108 -1.5913 -0.7238  0.4513
 7222TIP3    H243082   2.148   4.408   4.252  0.4466  0.2322  0.5586
 7223TIP3   OH243083   0.263   5.419  15.428 -1.0620 -0.3719 -0.2633
 7223TIP3    H143084   0.229   5.402  15.516 -1.7678 -0.6142 -0.5749
 7223TIP3    H243085   0.268   5.333  15.387  2.0713 -0.6666  0.4849
 7224TIP3   OH243086   6.785   6.616   1.740 -0.4543  0.0353  0.1426
 7224TIP3    H143087   6.731   6.544   1.707  0.9319  0.0855 -2.5232
 7224TIP3    H243088   6.867   6.609   1.691  0.2553  2.6383  0.7924
 7225TIP3   OH243089   5.282   5.150  16.146  0.6033 -0.0010 -0.6897
 7225TIP3    H143090   5.326   5.210  16.085  1.2250 -0.4288 -0.6660
 7225TIP3    H243091   5.327   5.067  16.134 -1.2910 -0.9236 -1.9190
 7226TIP3   OH243092   0.931   2.945   0.203  0.3773 -0.7763  0.6449
 7226TIP3    H143093   1.011   2.975   0.160 -0.3360  0.3656  0.0568
 7226TIP3    H243094   0.934   2.984   0.290  0.6300 -1.0286  0.7490
 7227TIP3   OH243095   4.968   3.580  15.224 -0.0698  0.0781 -0.6665
 7227TIP3    H143096   5.057   3.554  15.250 -0.5850  0.0989  1.3280
 7227TIP3    H243097   4.958   3.668  15.261 -1.0144 -0.0502 -0.5897
 7228TIP3   OH243098   3.921   1.884   2.030 -0.0815 -0.6287  0.1047
 7228TIP3    H143099   3.957   1.931   2.106  1.5764 -1.3304 -0.1931
 7228TIP3    H243100   3.827   1.880   2.046 -0.0877  1.3728  0.9191
 7229TIP3   OH243101   1.289   0.341   3.142 -0.3596  0.0465 -0.1700
 7229TIP3    H143102   1.342   0.412   3.178 -1.3703  0.8556 -0.2493
 7229TIP3    H243103   1.212   0.338   3.198 -0.2507 -1.1177 -0.0615
 7230TIP3   OH243104   0.442   2.856  13.195  0.1808 -0.6306 -0.6164
 7230TIP3    H143105   0.352   2.887  13.187  0.5485  1.5655  2.1767
 7230TIP3    H243106   0.435   2.770  13.236 -0.6664 -0.0259  0.5520
 7231TIP3   OH243107   4.816   2.407  13.334  0.2370 -0.1348  0.0653
 7231TIP3    H143108   4.768   2.328  13.310 -1.6894  0.7123  0.8562
 7231TIP3    H243109   4.845   2.445  13.251  0.8250 -1.4432 -0.3403
 7232TIP3   OH243110   0.870   6.139   4.478  0.3523 -0.6852 -0.6046
 7232TIP3    H143111   0.789   6.183   4.504  0.4002 -0.7675 -0.3059
 7232TIP3    H243112   0.914   6.120   4.561  0.5299 -0.9197 -0.7515
 7233TIP3   OH243113   6.720   3.501  12.902  0.7406 -0.2074 -0.2021
 7233TIP3    H143114   6.815   3.492  12.897  1.0094  2.0198  0.0759
 7233TIP3    H243115   6.687   3.430  12.846  2.5983 -0.0989 -1.5538
 7234TIP3   OH243116   6.015   5.906  16.560 -0.4219 -0.2827  0.1241
 7234TIP3    H143117   6.043   5.830  16.510 -0.8063 -0.2329 -0.1739
 7234TIP3    H243118   5.920   5.900  16.562 -0.4337 -0.0451  0.4740
 7235TIP3   OH243119   4.627   1.883  12.224  0.5926  0.5037  0.0757
 7235TIP3    H143120   4.662   1.883  12.135 -0.7173 -0.3603 -0.4713
 7235TIP3    H243121   4.572   1.804  12.229  0.9063  0.3436  1.7604
 7236TIP3   OH243122   6.596   4.833  14.099 -0.1767 -0.4669  0.1240
 7236TIP3    H143123   6.553   4.760  14.144  0.7047 -0.7781  0.4637
 7236TIP3    H243124   6.647   4.791  14.029 -1.2043 -0.0228 -0.9257
 7237TIP3   OH243125   0.579   1.107   3.594 -0.0115 -0.6738 -0.2649
 7237TIP3    H143126   0.658   1.153   3.566 -1.3754 -0.0315 -3.5186
 7237TIP3    H243127   0.578   1.027   3.541 -1.4898 -0.6965 -0.2435
 7238TIP3   OH243128   3.731   3.147   4.756  0.5526 -0.1112 -0.1336
 7238TIP3    H143129   3.768   3.064   4.789  1.4380  0.6948  0.9765
 7238TIP3    H243130   3.684   3.183   4.831 -1.8493 -0.7060 -1.2885
 7239TIP3   OH243131   2.764   3.779  12.018  0.6006 -0.4160  0.2095
 7239TIP3    H143132   2.752   3.686  11.999 -1.9458 -0.5095  1.8299
 7239TIP3    H243133   2.801   3.781  12.107 -0.3295  0.1103  0.5978
 7240TIP3   OH243134   0.350   2.999  16.017  0.1352 -0.5394 -0.2845
 7240TIP3    H143135   0.375   2.922  16.069  2.8197  0.7898  0.5777
 7240TIP3    H243136   0.392   2.985  15.932 -0.0185 -0.3989 -0.3832
 7241TIP3   OH243137   0.403   1.944  15.436  0.2767  0.3040 -0.0643
 7241TIP3    H143138   0.423   1.975  15.525  1.1263  1.7165 -0.7165
 7241TIP3    H243139   0.420   1.849  15.440  0.9941  0.4497  1.0987
 7242TIP3   OH243140   3.559   5.269   1.980  0.2338 -0.0379  0.8396
 7242TIP3    H143141   3.524   5.191   1.936 -0.7664 -1.0879  3.2824
 7242TIP3    H243142   3.653   5.266   1.964 -0.1392  0.0797 -1.7537
 7243TIP3   OH243143   5.884   0.507  14.448 -0.2337 -0.3477  0.4203
 7243TIP3    H143144   5.935   0.587  14.439 -0.2294 -0.4276 -0.3087
 7243TIP3    H243145   5.918   0.465  14.528 -0.9528  0.8834  1.4065
 7244TIP3   OH243146   2.584   0.406   3.774 -0.0449 -0.1563 -0.5170
 7244TIP3    H143147   2.513   0.359   3.817 -0.8565  1.9354  0.5598
 7244TIP3    H243148   2.583   0.374   3.684 -1.1776 -1.4298 -0.0961
 7245TIP3   OH243149   1.938   2.614  12.271  0.1766 -0.5168 -0.5652
 7245TIP3    H143150   2.030   2.622  12.246  0.9668 -3.1243  1.0549
 7245TIP3    H243151   1.895   2.575  12.195  0.3478  0.7845 -1.3551
 7246TIP3   OH243152   0.683   0.543   0.472  0.0476  0.0168 -0.5432
 7246TIP3    H143153   0.595   0.529   0.508 -0.0419  0.5492 -0.5430
 7246TIP3    H243154   0.676   0.625   0.423  1.2267  1.6022  1.7727
 7247TIP3   OH243155   5.351   0.660   2.302 -0.5239 -0.0416  0.1036
 7247TIP3    H143156   5.433   0.703   2.276  0.8087  0.2253  4.0387
 7247TIP3    H243157   5.368   0.567   2.286  0.6873 -0.0033  0.9583
 7248TIP3   OH243158   5.001   4.383  13.154  0.2559  0.1500  0.2119
 7248TIP3    H143159   5.049   4.426  13.084 -0.3062  0.5215  0.0467
 7248TIP3    H243160   5.012   4.289  13.137 -0.6698  0.2326 -0.9339
 7249TIP3   OH243161   1.261   2.278   1.804 -0.1816  0.1099  0.4834
 7249TIP3    H143162   1.181   2.270   1.751  2.5108  1.2384 -4.4500
 7249TIP3    H243163   1.275   2.372   1.813 -0.1445 -0.0650  2.7664
 7250TIP3   OH243164   0.617   5.067  10.747 -0.3360  0.2642  0.2047
 7250TIP3    H143165   0.681   5.109  10.804 -0.7561 -1.5579  2.1695
 7250TIP3    H243166   0.644   5.090  10.659  0.7491  2.6837  1.0848
 7251TIP3   OH243167   4.374   1.986   3.218  0.1468  0.4161  0.1261
 7251TIP3    H143168   4.311   2.050   3.253 -0.2224  0.7700 -1.1353
 7251TIP3    H243169   4.321   1.907   3.204 -0.0458  0.7269 -0.9756
 7252TIP3   OH243170   0.392   4.580  14.205  0.5254 -0.2473 -0.6030
 7252TIP3    H143171   0.460   4.514  14.192  1.6353  0.8001 -0.3124
 7252TIP3    H243172   0.374   4.613  14.116 -0.5538 -1.4297 -0.8332
 7253TIP3   OH243173   6.391   6.341   0.726 -0.2728 -0.2882  0.1173
 7253TIP3    H143174   6.472   6.380   0.695 -0.8594 -1.1147 -2.8042
 7253TIP3    H243175   6.404   6.247   0.716 -1.3620 -0.4642  0.1975
 7254TIP3   OH243176   1.637   0.097   2.532 -0.1153 -0.0407 -0.5091
 7254TIP3    H143177   1.668   0.008   2.547 -0.3802 -0.2388 -1.0958
 7254TIP3    H243178   1.629   0.104   2.436  1.4741  1.1556 -0.5855
 7255TIP3   OH243179   1.592   6.611   5.436 -0.1372  0.3111 -0.4182
 7255TIP3    H143180   1.646   6.532   5.440 -0.4786  0.0122 -1.4160
 7255TIP3    H243181   1.627   6.661   5.362 -1.6981 -0.2732 -1.5993
 7256TIP3   OH243182   3.783   1.411   0.126 -0.0173 -0.4561 -0.1242
 7256TIP3    H143183   3.869   1.439   0.156 -0.4900 -0.4560  1.2806
 7256TIP3    H243184   3.733   1.396   0.206 -1.2480 -0.7029 -0.9147
 7257TIP3   OH243185   1.074   5.399   4.164  0.1120 -0.7966  0.0935
 7257TIP3    H143186   1.100   5.313   4.131 -2.2037 -1.0858 -1.2517
 7257TIP3    H243187   1.110   5.461   4.100  0.6389 -0.8716  0.3153
 7258TIP3   OH243188   1.786   4.556  11.777 -0.3416  0.8835 -0.4866
 7258TIP3    H143189   1.876   4.585  11.762 -0.4849  0.9608 -1.2436
 7258TIP3    H243190   1.772   4.487  11.712 -0.0545 -0.7961  1.1802
 7259TIP3   OH243191   1.836   3.920  13.295 -0.2980  0.1800 -0.0468
 7259TIP3    H143192   1.814   3.861  13.223 -0.2329 -0.3688  0.3698
 7259TIP3    H243193   1.918   3.886  13.329  0.5677  1.4481 -0.7758
 7260TIP3   OH243194   4.694   1.377  15.721  0.5523 -0.5895  0.0935
 7260TIP3    H143195   4.602   1.402  15.732  0.0211 -2.4458  0.2019
 7260TIP3    H243196   4.707   1.306  15.785  1.6653 -1.2791 -0.8665
 7261TIP3   OH243197   4.847   1.143  14.389 -0.7907  0.2541 -0.4888
 7261TIP3    H143198   4.890   1.058  14.389  0.2075  0.7394 -0.2616
 7261TIP3    H243199   4.838   1.165  14.482 -1.6426  0.1105 -0.5315
 7262TIP3   OH243200   1.790   4.310   3.173  0.0506  0.4671  0.0400
 7262TIP3    H143201   1.786   4.385   3.233 -2.7957  0.5135 -0.0641
 7262TIP3    H243202   1.816   4.236   3.229 -0.0416  0.9832  0.7873
 7263TIP3   OH243203   3.304   0.300   5.688 -0.2598  0.8623  0.5281
 7263TIP3    H143204   3.286   0.345   5.771  0.0300  1.8158  0.0940
 7263TIP3    H243205   3.261   0.215   5.696 -0.8424  1.2284  1.3699
 7264TIP3   OH243206   3.159   2.221   4.838 -0.4472 -0.8511 -0.5361
 7264TIP3    H143207   3.122   2.271   4.765  2.5504 -0.3177 -1.8741
 7264TIP3    H243208   3.240   2.268   4.860 -0.0918 -2.3134  1.6157
 7265TIP3   OH243209   2.017   5.720   0.927 -0.2987 -0.3522 -0.2467
 7265TIP3    H143210   2.035   5.633   0.962 -1.3365 -0.6245 -0.3564
 7265TIP3    H243211   2.103   5.757   0.910  0.1617 -1.2936 -0.0432
 7266TIP3   OH243212   3.801   0.957   4.390 -0.3304 -0.1909 -1.0309
 7266TIP3    H143213   3.848   0.900   4.329 -1.5062 -0.0778 -2.0822
 7266TIP3    H243214   3.733   0.999   4.336 -2.4518 -1.2929  0.6304
 7267TIP3   OH243215   3.350   1.199   0.546  0.0424 -0.2020  0.8685
 7267TIP3    H143216   3.299   1.119   0.562 -1.0775  0.6753  1.8810
 7267TIP3    H243217   3.311   1.236   0.466  0.3397 -0.4727  0.5916
 7268TIP3   OH243218   1.268   2.427  11.239 -0.0586 -0.3968  0.1303
 7268TIP3    H143219   1.291   2.366  11.170 -0.3758 -1.6966  1.1467
 7268TIP3    H243220   1.325   2.503  11.224  0.4141 -0.9793 -1.0749
 7269TIP3   OH243221   4.938   1.570  14.098  0.3117  0.3503 -0.2230
 7269TIP3    H143222   4.887   1.489  14.093  1.2307 -0.3174  0.8242
 7269TIP3    H243223   5.023   1.544  14.133  0.1005  1.9576  1.7369
 7270TIP3   OH243224   1.423   6.017  10.823  0.4883  0.1632 -0.0942
 7270TIP3    H143225   1.372   6.016  10.904 -0.5934  2.9099 -0.6179
 7270TIP3    H243226   1.471   5.934  10.824  0.3514 -0.0328  3.2127
 7271TIP3   OH243227   0.836   4.270  13.172 -0.2470  0.1537 -0.0801
 7271TIP3    H143228   0.916   4.280  13.223 -0.0202 -1.4671 -0.0690
 7271TIP3    H243229   0.823   4.175  13.164 -2.8080  0.3194  0.9162
 7272TIP3   OH243230   6.304   0.773   3.140  0.1982 -0.7612  0.2500
 7272TIP3    H143231   6.398   0.757   3.131  0.1229 -0.6093 -0.9847
 7272TIP3    H243232   6.264   0.725   3.068 -0.6710 -0.7357  0.6953
 7273TIP3   OH243233   4.280   2.976   0.550  0.2911  0.7807 -0.0004
 7273TIP3    H143234   4.329   2.899   0.578 -1.5784 -0.3254  0.4297
 7273TIP3    H243235   4.347   3.039   0.523  1.9109 -0.6088  0.5950
 7274TIP3   OH243236   1.006   1.912  11.062  0.3951 -0.7963 -0.6109
 7274TIP3    H143237   0.978   1.821  11.068 -0.3041 -0.5456  0.0747
 7274TIP3    H243238   1.101   1.907  11.054  0.4494 -1.5679  0.3404
 7275TIP3   OH243239   3.792   3.988   4.603 -0.0526 -0.4878 -1.1564
 7275TIP3    H143240   3.779   4.083   4.610 -2.3134 -0.8241  0.9542
 7275TIP3    H243241   3.750   3.964   4.521  0.6476  0.3219 -1.7725
 7276TIP3   OH243242   4.196   4.562  11.681 -0.4505  0.0111 -0.2126
 7276TIP3    H143243   4.188   4.502  11.755 -0.3969 -0.7265 -0.7965
 7276TIP3    H243244   4.182   4.649  11.720  3.2082  0.0721  1.3536
 7277TIP3   OH243245   4.380   0.381  10.839  0.0523 -0.1901 -0.2904
 7277TIP3    H143246   4.375   0.303  10.783 -0.2849  0.7712 -1.6746
 7277TIP3    H243247   4.461   0.424  10.812  0.6636 -0.4559  1.0465
 7278TIP3   OH243248   1.206   5.731  14.572  0.5286 -0.5949 -0.3574
 7278TIP3    H143249   1.245   5.803  14.620  1.5939 -1.1925 -0.2970
 7278TIP3    H243250   1.135   5.771  14.522  1.4680  0.6017 -0.7867
 7279TIP3   OH243251   5.975   4.531  16.163 -0.1249 -0.1419 -0.1309
 7279TIP3    H143252   5.996   4.476  16.238 -0.3286  0.3564  0.2906
 7279TIP3    H243253   5.879   4.536  16.163 -0.1105  0.1358 -0.2282
 7280TIP3   OH243254   2.577   1.534   1.217 -0.7511  0.1252 -0.4678
 7280TIP3    H143255   2.576   1.493   1.130 -1.1943  0.4718 -0.6265
 7280TIP3    H243256   2.670   1.551   1.234 -0.4620 -1.6663 -0.0587
 7281TIP3   OH243257   0.225   4.009   0.062 -0.1611 -0.5372  0.6031
 7281TIP3    H143258   0.200   3.975  -0.024  0.4224  0.5409 -0.0040
 7281TIP3    H243259   0.294   4.073   0.044  0.6447 -0.9842  1.9632
 7282TIP3   OH243260   4.479   1.275  14.938  0.3542 -0.6263 -0.3110
 7282TIP3    H143261   4.540   1.312  15.002  0.1105 -1.8216  0.6605
 7282TIP3    H243262   4.532   1.256  14.861  0.7687  0.2892 -0.2638
 7283TIP3   OH243263   5.609   5.531  16.215  0.2810 -0.2606  0.1153
 7283TIP3    H143264   5.627   5.482  16.135 -1.8244  0.1088 -0.6292
 7283TIP3    H243265   5.626   5.622  16.192  0.1075 -0.2005  0.2193
 7284TIP3   OH243266   6.174   4.588   4.724 -0.1119 -0.3791 -0.0475
 7284TIP3    H143267   6.115   4.513   4.724  0.4778 -0.9026 -1.7867
 7284TIP3    H243268   6.171   4.621   4.633  0.6255  0.9060  0.3581
 7285TIP3   OH243269   0.164   0.394  15.279 -0.3152  0.2489  0.3384
 7285TIP3    H143270   0.119   0.328  15.330 -0.1530  0.5614  0.8909
 7285TIP3    H243271   0.193   0.348  15.200 -3.3930  0.4739 -1.0755
 7286TIP3   OH243272   5.930   6.053   2.087 -0.4858  0.3699  0.2028
 7286TIP3    H143273   5.862   6.119   2.072  0.8507  1.6917 -0.2785
 7286TIP3    H243274   5.977   6.085   2.164  1.8823  1.5477 -1.5968
 7287TIP3   OH243275   0.088   1.262   3.286  0.1040 -0.2315 -0.1930
 7287TIP3    H143276   0.158   1.218   3.238  0.4052 -1.3342  1.2178
 7287TIP3    H243277   0.031   1.297   3.217  2.3330  1.3075 -1.3968
 7288TIP3   OH243278   6.783   5.931  10.787 -0.4547  0.2064 -0.2516
 7288TIP3    H143279   6.741   6.009  10.751 -0.7259  0.4065  0.4744
 7288TIP3    H243280   6.714   5.887  10.837 -0.5773 -1.0429 -1.4667
 7289TIP3   OH243281   4.291   5.992  15.477 -0.5026  0.5357 -1.0696
 7289TIP3    H143282   4.272   5.945  15.396  0.1752 -0.2132 -0.8039
 7289TIP3    H243283   4.219   5.968  15.536 -1.1474  1.3015 -1.5218
 7290TIP3   OH243284   3.292   4.817  15.096 -0.5393  0.1351  0.2772
 7290TIP3    H143285   3.240   4.744  15.128  0.1095 -0.2443  0.4826
 7290TIP3    H243286   3.372   4.815  15.148 -0.8469  1.5075  0.8684
 7291TIP3   OH243287   2.196   1.062  14.281  0.3048 -0.2425 -0.3329
 7291TIP3    H143288   2.272   1.003  14.277 -0.4088 -1.2836  0.8288
 7291TIP3    H243289   2.232   1.148  14.261  1.8230 -0.6886  0.3095
 7292TIP3   OH243290   4.899   2.529  14.382 -0.0676 -0.0036  0.6548
 7292TIP3    H143291   4.903   2.612  14.335  0.8105 -0.5304 -0.2269
 7292TIP3    H243292   4.836   2.545  14.453 -1.8726  0.6458 -0.9984
 7293TIP3   OH243293   2.941   4.223   1.994 -0.3245  0.1479  0.7291
 7293TIP3    H143294   2.863   4.188   2.038  0.4679 -0.9023  1.3691
 7293TIP3    H243295   2.973   4.291   2.052  1.1501 -1.7426  2.2842
 7294TIP3   OH243296   6.303   5.683  13.200  0.4285  0.0756  0.7854
 7294TIP3    H143297   6.322   5.602  13.247  2.2377 -0.2716 -0.4260
 7294TIP3    H243298   6.289   5.655  13.109 -1.1750  0.9118  0.7421
 7295TIP3   OH243299   6.083   4.896   5.826 -0.3894 -0.6379 -0.4599
 7295TIP3    H143300   6.178   4.889   5.839 -0.2544 -0.6313 -1.3305
 7295TIP3    H243301   6.075   4.949   5.747 -1.1193 -0.7974 -0.4927
 7296TIP3   OH243302   1.830   1.505   4.419  0.1064 -0.0545 -0.4889
 7296TIP3    H143303   1.786   1.504   4.334 -0.4662  0.8574 -0.2182
 7296TIP3    H243304   1.860   1.415   4.432 -2.7567 -1.0624 -0.1586
 7297TIP3   OH243305   0.769   5.146  13.715  0.5121 -0.0790 -0.1589
 7297TIP3    H143306   0.725   5.090  13.780  1.4823 -1.4867 -0.6629
 7297TIP3    H243307   0.699   5.171  13.655  0.1259 -1.1932 -0.2055
 7298TIP3   OH243308   0.160   4.800   5.737 -0.6728 -0.1380  0.0610
 7298TIP3    H143309   0.158   4.878   5.793 -0.5205 -1.2534  1.6875
 7298TIP3    H243310   0.253   4.778   5.730 -0.7755 -0.6217  0.2386
 7299TIP3   OH243311   6.421   2.987   2.668  0.1220  0.0764 -0.0932
 7299TIP3    H143312   6.510   2.974   2.634  0.4943  0.2979  0.7839
 7299TIP3    H243313   6.383   2.899   2.668  0.5978 -0.1320  0.2328
 7300TIP3   OH243314   0.879   3.154   2.651 -0.3623 -0.1927 -0.3153
 7300TIP3    H143315   0.962   3.181   2.690  0.2349 -3.3753  0.9181
 7300TIP3    H243316   0.900   3.138   2.559  0.9161 -2.4820  0.2930
 7301TIP3   OH243317   6.193   0.793  16.689  0.3288  0.6743 -0.4029
 7301TIP3    H143318   6.284   0.789  16.661 -0.1201  0.9682 -2.0515
 7301TIP3    H243319   6.190   0.744  16.771  1.7894 -0.1736 -0.8224
 7302TIP3   OH243320   5.731   5.571   4.536  0.6818 -0.2607  0.4355
 7302TIP3    H143321   5.707   5.493   4.484  0.9231  0.2409 -0.4501
 7302TIP3    H243322   5.819   5.552   4.569 -0.5875 -1.9014  3.2877
 7303TIP3   OH243323   0.179   0.462  11.606 -0.0329 -0.4066  0.0705
 7303TIP3    H143324   0.156   0.539  11.657  1.2744 -0.7128  1.2113
 7303TIP3    H243325   0.165   0.389  11.666  0.1706 -0.9110 -0.4828
 7304TIP3   OH243326   6.389   0.662   5.952 -0.1859  0.1216 -0.1016
 7304TIP3    H143327   6.463   0.712   5.986 -0.1310  0.6400 -0.9516
 7304TIP3    H243328   6.313   0.719   5.962 -0.0186  0.6838 -1.6701
 7305TIP3   OH243329   2.059   2.642   0.519  0.3189 -0.3514  0.0248
 7305TIP3    H143330   2.086   2.657   0.428  1.1242 -0.9421  0.1487
 7305TIP3    H243331   2.006   2.562   0.516  0.1644 -0.2487  0.0402
 7306TIP3   OH243332   1.683   2.379  15.898 -0.1687 -0.1818  0.1931
 7306TIP3    H143333   1.651   2.361  15.809 -0.7323 -1.3191  0.5979
 7306TIP3    H243334   1.618   2.337  15.955  0.1583  0.5739  1.1536
 7307TIP3   OH243335   4.379   2.784  12.062  0.2071 -0.2353  0.4804
 7307TIP3    H143336   4.454   2.818  12.012 -1.4694  0.5486 -1.6435
 7307TIP3    H243337   4.311   2.850  12.050 -1.0637 -1.2579  1.8044
 7308TIP3   OH243338   0.379   6.029  15.822 -0.1442  0.6660  0.1827
 7308TIP3    H143339   0.305   6.089  15.815 -0.4664  0.1700 -0.7747
 7308TIP3    H243340   0.340   5.946  15.850 -0.2294 -0.0511 -1.8628
 7309TIP3   OH243341   4.940   3.749  13.119  0.3405 -0.7054 -0.6860
 7309TIP3    H143342   4.860   3.750  13.065 -0.8605 -0.5918  1.0331
 7309TIP3    H243343   4.914   3.790  13.201  2.5355  0.4660 -0.5176
 7310TIP3   OH243344   5.348   0.860  11.691  0.0377 -0.0398  0.0267
 7310TIP3    H143345   5.426   0.806  11.694 -0.0697 -0.3060 -1.3967
 7310TIP3    H243346   5.275   0.798  11.691 -0.2268  0.2130  1.8017
 7311TIP3   OH243347   0.150   3.299  12.617  0.6257  0.2230  0.0074
 7311TIP3    H143348   0.235   3.257  12.607 -0.8531 -2.9023 -0.7342
 7311TIP3    H243349   0.102   3.242  12.678 -0.3938  2.8979  1.9143
 7312TIP3   OH243350   4.100   3.655   3.780 -0.4544  0.0616  0.4134
 7312TIP3    H143351   4.153   3.576   3.794 -1.6693 -0.8755 -0.0615
 7312TIP3    H243352   4.015   3.634   3.818 -1.3288  0.4858 -1.1990
 7313TIP3   OH243353   1.829   5.720  10.909  0.1922  0.5287 -0.9170
 7313TIP3    H143354   1.924   5.727  10.900  0.3933 -0.1559  0.4279
 7313TIP3    H243355   1.803   5.658  10.842  1.1586 -1.8166  0.7648
 7314TIP3   OH243356   4.204   0.267  17.066  0.2963 -0.6257  0.4373
 7314TIP3    H143357   4.168   0.180  17.085  0.7231 -1.2053 -1.2160
 7314TIP3    H243358   4.143   0.328  17.107  1.0146 -1.7025  3.3206
 7315TIP3   OH243359   5.582   6.588   5.543  0.7940  0.1629  0.3632
 7315TIP3    H143360   5.676   6.602   5.534  0.6996  0.2873 -0.5083
 7315TIP3    H243361   5.545   6.618   5.460  0.0157 -0.1513  0.5874
 7316TIP3   OH243362   0.768   0.085   3.196 -0.2797 -0.2057  0.2034
 7316TIP3    H143363   0.808  -0.002   3.200  0.7625  0.2057 -0.6465
 7316TIP3    H243364   0.793   0.126   3.278 -1.0680 -0.8173  0.7621
 7317TIP3   OH243365   2.785   5.875   0.401  0.0396 -0.5573  0.4056
 7317TIP3    H143366   2.853   5.827   0.449 -0.2287 -2.3694 -0.9208
 7317TIP3    H243367   2.755   5.814   0.334 -1.6480  0.8513 -0.2074
 7318TIP3   OH243368   2.966   4.445   2.143 -0.3138  0.8508 -0.0309
 7318TIP3    H143369   2.987   4.534   2.116 -0.9402  1.0574  0.1404
 7318TIP3    H243370   3.021   4.429   2.220  0.6359  0.6706 -0.7260
 7319TIP3   OH243371   6.689   4.929  16.939  0.8060  0.0644 -0.0704
 7319TIP3    H143372   6.660   4.914  17.029  2.2976 -0.5562  0.3521
 7319TIP3    H243373   6.774   4.972  16.949  2.0895 -2.0567 -1.0812
 7320TIP3   OH243374   3.196   6.780   4.326  0.4815  0.4593  0.1484
 7320TIP3    H143375   3.106   6.809   4.335  0.8252  1.0801  2.2740
 7320TIP3    H243376   3.190   6.686   4.309 -0.5983  0.0018  2.5956
 7321TIP3   OH243377   0.004   0.579  11.944 -0.4659  0.3349 -0.2041
 7321TIP3    H143378  -0.058   0.507  11.927 -0.1452 -0.2877  1.1768
 7321TIP3    H243379   0.012   0.623  11.859 -2.2232 -0.0201 -0.5930
 7322TIP3   OH243380   3.054   6.614   5.612  0.3860  0.0599  0.3327
 7322TIP3    H143381   2.993   6.610   5.538 -0.5881  1.1614  1.0368
 7322TIP3    H243382   2.999   6.603   5.689  1.2803 -0.3061  0.9321
 7323TIP3   OH243383   3.691   1.899  10.676 -0.0436 -0.3147  0.8527
 7323TIP3    H143384   3.654   1.920  10.762  1.2548  1.2187  1.0863
 7323TIP3    H243385   3.619   1.913  10.615 -0.4171  0.7159  1.4903
 7324TIP3   OH243386   0.514   2.140   2.164  0.1284 -0.2503 -0.2223
 7324TIP3    H143387   0.418   2.139   2.171  0.1758  1.3031  1.1855
 7324TIP3    H243388   0.532   2.179   2.079 -0.4894 -0.3007 -0.3797
 7325TIP3   OH243389   1.050   1.743   6.175 -0.2203 -0.2568  0.6356
 7325TIP3    H143390   1.111   1.806   6.212  0.2914 -1.0193  1.1164
 7325TIP3    H243391   0.977   1.741   6.236 -0.7106  0.6146  0.0893
 7326TIP3   OH243392   4.517   3.112  15.834  0.2073  0.5300  0.4134
 7326TIP3    H143393   4.479   3.091  15.749 -1.4043  0.1707  1.1938
 7326TIP3    H243394   4.605   3.143  15.813 -0.2788  0.8048 -1.4056
 7327TIP3   OH243395   3.364   5.756   6.360 -0.5127  0.0124  0.3094
 7327TIP3    H143396   3.271   5.767   6.380 -0.7335 -0.1660 -0.5897
 7327TIP3    H243397   3.366   5.721   6.271  0.3835 -0.9519  0.6818
 7328TIP3   OH243398   6.555   4.167  15.755 -0.8529 -0.4889 -0.1397
 7328TIP3    H143399   6.507   4.101  15.806  1.0450 -2.0335 -0.2148
 7328TIP3    H243400   6.538   4.143  15.664  3.6744 -4.2403 -0.3604
 7329TIP3   OH243401   4.716   0.916   2.330 -0.6587 -0.1554  0.6187
 7329TIP3    H143402   4.685   0.863   2.404 -0.2857 -0.2869  0.6819
 7329TIP3    H243403   4.757   0.992   2.370 -1.2214  0.2014  0.5264
 7330TIP3   OH243404   4.200   6.141  11.387  0.0607  0.3054  0.0090
 7330TIP3    H143405   4.181   6.183  11.304  1.9295  0.3639 -0.4409
 7330TIP3    H243406   4.115   6.133  11.430 -1.3196 -1.5940 -2.7371
 7331TIP3   OH243407   6.711   4.421  12.552  0.2783 -0.1541  0.4801
 7331TIP3    H143408   6.624   4.420  12.512  0.9792 -2.7437 -1.2086
 7331TIP3    H243409   6.755   4.495  12.510 -0.6411  0.3483  0.3559
 7332TIP3   OH243410   1.344   1.972  16.310  0.2651 -0.1777  0.2745
 7332TIP3    H143411   1.271   2.032  16.296 -0.1921 -0.7319  0.2263
 7332TIP3    H243412   1.422   2.028  16.309 -0.0604  0.2856 -0.8407
 7333TIP3   OH243413   0.675   3.307  14.095 -0.1759 -0.3989 -0.5965
 7333TIP3    H143414   0.645   3.216  14.096  1.9387 -1.1612 -0.4201
 7333TIP3    H243415   0.625   3.350  14.163 -1.6736 -1.2510 -1.1039
 7334TIP3   OH243416   0.260   3.793   0.995  0.2158  0.0660  0.1458
 7334TIP3    H143417   0.339   3.830   0.958  1.2409 -1.1834  0.9834
 7334TIP3    H243418   0.189   3.847   0.961  1.2604  0.1757 -1.9817
 7335TIP3   OH243419   5.912   3.365  13.815  0.3982  0.3412  0.3448
 7335TIP3    H143420   5.836   3.420  13.834 -0.0368  0.4479 -1.5630
 7335TIP3    H243421   5.986   3.416  13.847 -0.1192  1.4380 -0.1464
 7336TIP3   OH243422   5.819   1.618   5.291  0.2192 -0.4749 -0.0455
 7336TIP3    H143423   5.816   1.703   5.333  3.1098 -0.0253 -0.5894
 7336TIP3    H243424   5.807   1.555   5.362 -0.9956  0.3075  0.4880
 7337TIP3   OH243425   0.396   0.215   2.255  0.0117 -0.1445  0.2401
 7337TIP3    H143426   0.324   0.255   2.304 -0.3056 -0.7639  0.2828
 7337TIP3    H243427   0.399   0.125   2.285  0.6641 -0.1871  0.0679
 7338TIP3   OH243428   2.949   1.786  15.417 -0.3251  0.3680  0.1764
 7338TIP3    H143429   3.043   1.772  15.426 -0.3667 -0.9597 -0.9930
 7338TIP3    H243430   2.940   1.853  15.350 -0.2217  2.1056  1.8073
 7339TIP3   OH243431   1.888   4.242   2.156  0.3969  0.0177  0.7871
 7339TIP3    H143432   1.856   4.320   2.110  1.3586 -0.1233 -0.1754
 7339TIP3    H243433   1.897   4.176   2.087  2.7163  0.0606  0.9443
 7340TIP3   OH243434   3.511   3.793  14.164  0.0756  0.4358 -0.1030
 7340TIP3    H143435   3.522   3.699  14.178 -0.2468  0.3483 -0.4374
 7340TIP3    H243436   3.491   3.828  14.251  2.4151  0.5265  0.4552
 7341TIP3   OH243437   6.428   1.331   5.458  0.0251 -0.3646  0.4171
 7341TIP3    H143438   6.351   1.312   5.405  0.2069 -1.0989  0.4075
 7341TIP3    H243439   6.463   1.412   5.421 -0.4388 -0.3145  0.0832
 7342TIP3   OH243440   3.399   3.097  14.111  0.0414 -0.2820 -0.1750
 7342TIP3    H143441   3.326   3.067  14.057  0.9672 -0.5971 -1.2759
 7342TIP3    H243442   3.448   3.157  14.055  1.2079 -0.8752  0.1736
 7343TIP3   OH243443   2.133   5.663  15.020 -0.0126  0.0338  0.3756
 7343TIP3    H143444   2.052   5.671  14.969  0.3397  3.1852  0.1436
 7343TIP3    H243445   2.103   5.646  15.109 -0.9285  0.7778  0.2253
 7344TIP3   OH243446   5.235   5.712  12.027 -0.0491  0.1810 -0.1026
 7344TIP3    H143447   5.143   5.707  12.002 -0.1252  0.7111  0.0636
 7344TIP3    H243448   5.261   5.801  12.006  0.5060 -0.0430 -0.3989
 7345TIP3   OH243449   2.370   0.602   5.340 -0.2243  0.3562  0.8212
 7345TIP3    H143450   2.346   0.641   5.255 -0.7123 -0.5730  0.5253
 7345TIP3    H243451   2.430   0.666   5.379  0.2344  0.6641 -0.3483
 7346TIP3   OH243452   2.863   1.785  13.201 -0.3659  0.5715 -0.3087
 7346TIP3    H143453   2.808   1.734  13.260  3.1647 -1.1431  1.7952
 7346TIP3    H243454   2.833   1.761  13.113 -2.8124 -0.2713  0.6612
 7347TIP3   OH243455   6.635   2.819   2.524  0.1568  0.3231  0.1135
 7347TIP3    H143456   6.639   2.760   2.449  1.3596 -1.3521  1.3844
 7347TIP3    H243457   6.593   2.767   2.593 -0.9037  1.8051  0.6372
 7348TIP3   OH243458   4.233   1.768   5.243 -0.6163 -0.0102  0.3961
 7348TIP3    H143459   4.172   1.837   5.218  0.8172  0.6721 -1.4705
 7348TIP3    H243460   4.319   1.810   5.241  0.2532 -1.7237 -0.3624
 7349TIP3   OH243461   2.877   6.447  13.558  0.4789 -0.2086  0.9240
 7349TIP3    H143462   2.879   6.438  13.462 -1.0695 -0.8739  0.9170
 7349TIP3    H243463   2.808   6.512  13.574  0.2234 -0.6446  1.6109
 7350TIP3   OH243464   3.738   1.966   1.569  0.1411 -0.2166  0.3350
 7350TIP3    H143465   3.709   2.021   1.642  0.3469 -0.3571  0.5247
 7350TIP3    H243466   3.726   1.876   1.600 -2.8608 -0.3781 -0.9922
 7351TIP3   OH243467   3.890   1.642  10.931  0.8301 -0.0158 -0.2142
 7351TIP3    H143468   3.843   1.560  10.911  0.3788  0.1639  0.0919
 7351TIP3    H243469   3.827   1.694  10.980 -0.8945  2.7305 -4.6703
 7352TIP3   OH243470   4.264   3.355   2.726 -1.0536 -0.1724  0.0701
 7352TIP3    H143471   4.279   3.260   2.732  1.8427 -0.0765 -2.7542
 7352TIP3    H243472   4.311   3.392   2.800 -0.1783 -0.8584 -0.1264
 7353TIP3   OH243473   2.455   1.855  15.475 -0.2961  0.2811  0.4951
 7353TIP3    H143474   2.395   1.810  15.535 -1.3263 -0.6287 -1.1585
 7353TIP3    H243475   2.502   1.784  15.431 -0.4512  0.8849 -0.6710
 7354TIP3   OH243476   5.316   2.842   3.266 -0.0030  0.0544  0.2490
 7354TIP3    H143477   5.270   2.811   3.344 -1.0664  1.9258  0.3993
 7354TIP3    H243478   5.327   2.763   3.212 -2.4707 -0.6622  0.6758
 7355TIP3   OH243479   4.350   6.440   4.727  0.3921 -0.0024 -0.5568
 7355TIP3    H143480   4.365   6.477   4.641 -0.3715  0.7017 -0.4042
 7355TIP3    H243481   4.272   6.485   4.759  0.1475 -0.8824  0.1379
 7356TIP3   OH243482   0.048   4.530   5.386 -0.0167 -0.3837  0.2394
 7356TIP3    H143483   0.070   4.616   5.421 -0.4648 -0.9320  1.9760
 7356TIP3    H243484   0.030   4.545   5.293  2.5328  0.9310 -0.1157
 7357TIP3   OH243485   6.453   3.250   1.150  0.4876  0.2704 -0.3395
 7357TIP3    H143486   6.400   3.188   1.101 -1.7415  0.3934  1.7155
 7357TIP3    H243487   6.515   3.195   1.199 -0.7999 -0.3158  0.6919
 7358TIP3   OH243488   3.905   0.654   2.950  0.3604 -0.5469 -0.1212
 7358TIP3    H143489   3.851   0.606   2.887 -0.2584 -0.2345  0.1684
 7358TIP3    H243490   3.991   0.613   2.943  0.4274 -0.2186 -1.4941
 7359TIP3   OH243491   0.863   5.098  17.126  0.0260  0.4141 -0.9224
 7359TIP3    H143492   0.799   5.162  17.156  0.0454  0.5098 -1.0872
 7359TIP3    H243493   0.888   5.051  17.206  1.7166  2.0972 -0.4024
 7360TIP3   OH243494   4.505   5.300   0.211 -0.3024 -0.5259 -0.4642
 7360TIP3    H143495   4.589   5.343   0.228 -0.2538 -0.4659 -0.8376
 7360TIP3    H243496   4.470   5.346   0.135  0.0042 -1.4906 -1.2212
 7361TIP3   OH243497   2.839   1.320  16.354 -0.3890 -1.0138  0.0685
 7361TIP3    H143498   2.907   1.383  16.378 -0.2481 -0.1894 -2.2708
 7361TIP3    H243499   2.788   1.309  16.434  0.1618  1.3339  0.8231
 7362TIP3   OH243500   1.728   5.436  10.459  0.1763 -0.6492 -0.0946
 7362TIP3    H143501   1.725   5.457  10.553 -1.0872  2.6098 -0.7386
 7362TIP3    H243502   1.639   5.410  10.437 -0.5819  2.3201 -0.9995
 7363TIP3   OH243503   6.704   4.349  13.581  0.1334 -0.2746  0.1024
 7363TIP3    H143504   6.743   4.333  13.495 -0.3620 -0.7726 -0.0317
 7363TIP3    H243505   6.767   4.312  13.643  1.9350  2.5756  0.1820
 7364TIP3   OH243506   0.003   1.529  12.499 -1.0711 -0.1282 -0.8056
 7364TIP3    H143507   0.043   1.608  12.535 -1.6559 -1.1966  2.4860
 7364TIP3    H243508  -0.058   1.561  12.433 -0.8716  2.1206  0.0186
 7365TIP3   OH243509   3.200   4.286  16.432 -0.0343  0.2269 -0.4829
 7365TIP3    H143510   3.186   4.302  16.525  0.7163 -0.0484 -0.3137
 7365TIP3    H243511   3.247   4.364  16.401 -0.6429  0.5022 -0.7229
 7366TIP3   OH243512   1.908   3.671  15.240  0.5439 -0.0984  0.1912
 7366TIP3    H143513   1.916   3.594  15.296  0.1531 -0.3204 -0.0470
 7366TIP3    H243514   1.859   3.734  15.293 -0.5735 -0.6144 -0.1823
 7367TIP3   OH243515   1.658   4.224   5.688 -0.0580 -0.1108  0.3480
 7367TIP3    H143516   1.581   4.177   5.719 -0.3109  0.7792  1.1058
 7367TIP3    H243517   1.715   4.232   5.764  1.1529 -1.4007 -0.3645
 7368TIP3   OH243518   3.521   4.746   0.543 -0.3824  0.3553  0.0298
 7368TIP3    H143519   3.540   4.735   0.636 -1.7947  1.6741  0.5216
 7368TIP3    H243520   3.464   4.672   0.522 -0.0708  0.0584  0.2167
 7369TIP3   OH243521   6.464   3.154   4.168  0.2050  0.3003 -0.5071
 7369TIP3    H143522   6.435   3.075   4.124  0.9300 -0.3830  0.1934
 7369TIP3    H243523   6.527   3.194   4.108 -0.9644  0.9482 -1.3380
 7370TIP3   OH243524   5.180   5.367  10.582  0.7226  0.4325 -0.4036
 7370TIP3    H143525   5.256   5.309  10.578  0.7431  0.4136  0.1170
 7370TIP3    H243526   5.109   5.316  10.541  0.9038  0.3114 -0.5699
 7371TIP3   OH243527   4.398   5.250  15.940 -0.1912 -0.3614  0.1673
 7371TIP3    H143528   4.333   5.287  15.880 -1.0687 -1.0642  0.6588
 7371TIP3    H243529   4.395   5.307  16.016 -1.0803 -1.0371  0.6600
 7372TIP3   OH243530   3.686   2.562   2.601 -0.5426 -0.1049  0.3852
 7372TIP3    H143531   3.690   2.478   2.646 -2.5203  0.7636  2.4050
 7372TIP3    H243532   3.643   2.621   2.664  1.0188  2.5089 -0.8193
 7373TIP3   OH243533   2.185   0.133  14.323 -0.2610  0.2468 -0.5096
 7373TIP3    H143534   2.248   0.192  14.363  0.7112 -0.6123 -0.7212
 7373TIP3    H243535   2.172   0.064  14.388  0.0689 -0.2892 -1.0011
 7374TIP3   OH243536   5.262   4.826  11.402 -0.3301  0.2353 -0.4928
 7374TIP3    H143537   5.193   4.867  11.453  0.6380 -1.0919  2.0294
 7374TIP3    H243538   5.279   4.743  11.445  1.2128 -0.5784 -2.4696
 7375TIP3   OH243539   0.531   0.388   3.074  0.2777 -0.5477  0.0567
 7375TIP3    H143540   0.578   0.372   2.992  0.0757  2.1776 -0.6816
 7375TIP3    H243541   0.439   0.374   3.051  0.2795 -0.4905  0.0138
 7376TIP3   OH243542   0.301   4.438   0.250  0.3043 -0.1071 -0.1507
 7376TIP3    H143543   0.304   4.457   0.344  0.6522 -0.8033 -0.0077
 7376TIP3    H243544   0.338   4.515   0.208 -1.9073  1.1650  0.1212
 7377TIP3   OH243545   1.381   3.393  12.311 -0.4036  0.0362 -0.6726
 7377TIP3    H143546   1.357   3.309  12.351  0.4529  0.7975  1.5723
 7377TIP3    H243547   1.297   3.433  12.288 -1.1669  0.5106  2.4938
 7378TIP3   OH243548   4.073   1.139  12.657 -0.1167 -0.3582 -0.7627
 7378TIP3    H143549   4.065   1.162  12.750 -2.4886 -1.4141 -0.6358
 7378TIP3    H243550   4.091   1.045  12.657 -0.9747 -0.5319 -1.3687
 7379TIP3   OH243551   4.569   3.849   3.954  0.1032  0.0809 -0.2262
 7379TIP3    H143552   4.515   3.928   3.947  0.9256  0.6372 -0.4893
 7379TIP3    H243553   4.528   3.797   4.023 -1.5488 -0.1487 -1.3474
 7380TIP3   OH243554   0.647   4.894   6.257  0.2966 -0.3648  0.8518
 7380TIP3    H143555   0.621   4.980   6.291 -1.0450 -0.2892 -0.2876
 7380TIP3    H243556   0.741   4.903   6.238  0.5020  0.3723  2.0758
 7381TIP3   OH243557   0.463   6.234  11.758  0.2292  0.5258  0.4536
 7381TIP3    H143558   0.506   6.154  11.789 -1.5393 -0.3712  0.7016
 7381TIP3    H243559   0.435   6.213  11.669 -0.8609  0.5905  0.7675
 7382TIP3   OH243560   4.973   4.702   0.008 -0.6874 -0.1487 -0.4795
 7382TIP3    H143561   4.887   4.742   0.019  0.0050  0.9294  1.4424
 7382TIP3    H243562   5.008   4.695   0.097  1.0148 -1.0198 -1.1682
 7383TIP3   OH243563   5.062   4.052   3.499  0.7235  0.1585 -0.1116
 7383TIP3    H143564   5.155   4.065   3.480  1.1674  0.3477  1.9049
 7383TIP3    H243565   5.054   3.958   3.514  1.1494  0.4156  2.0628
 7384TIP3   OH243566   3.193   1.329  17.153  0.9445 -0.8215 -0.2764
 7384TIP3    H143567   3.189   1.389  17.078 -0.0194  0.7837  0.9960
 7384TIP3    H243568   3.242   1.378  17.219 -1.0150 -0.8296  1.2633
 7385TIP3   OH243569   3.224   1.509   4.681  0.0565  0.1638  0.5728
 7385TIP3    H143570   3.167   1.480   4.610 -1.5489 -0.2465  1.9321
 7385TIP3    H243571   3.252   1.428   4.724  0.4213  0.4225  0.8350
 7386TIP3   OH243572   1.816   5.216  17.158  0.6707  0.2967 -0.2360
 7386TIP3    H143573   1.833   5.297  17.205 -0.5576  0.5128 -0.1313
 7386TIP3    H243574   1.865   5.224  17.076  0.8671  0.9657 -0.0559
 7387TIP3   OH243575   6.520   2.209  15.922  0.2619 -0.1039 -0.1692
 7387TIP3    H143576   6.541   2.125  15.962 -0.7293  0.1181  0.9040
 7387TIP3    H243577   6.469   2.255  15.989  0.1952  1.0774 -0.9916
 7388TIP3   OH243578   1.461   5.491  11.087 -0.0164  0.0511 -0.2012
 7388TIP3    H143579   1.429   5.484  10.997  1.7614 -2.9293 -0.7365
 7388TIP3    H243580   1.556   5.484  11.080  0.1693 -0.2535  1.9191
 7389TIP3   OH243581   2.250   2.801   6.592 -0.2543 -0.0650  0.0729
 7389TIP3    H143582   2.206   2.725   6.631  0.1630 -0.7484 -0.7602
 7389TIP3    H243583   2.284   2.769   6.509  1.2076  0.6294  0.3696
 7390TIP3   OH243584   3.747   5.077  12.220  0.1810  1.3257 -0.5056
 7390TIP3    H143585   3.822   5.054  12.165 -1.0540 -0.3484 -1.5894
 7390TIP3    H243586   3.691   5.130  12.164 -0.0553  1.4986 -0.1119
 7391TIP3   OH243587   2.724   3.559  17.174  0.2447  0.6544 -0.4882
 7391TIP3    H143588   2.725   3.650  17.147 -0.5773  0.5279 -0.9718
 7391TIP3    H243589   2.815   3.539  17.194  0.2761  1.9199  0.7890
 7392TIP3   OH243590   1.470   0.397   4.743 -0.0913 -0.5379  0.4238
 7392TIP3    H143591   1.441   0.430   4.657  3.5840  1.4315 -0.2802
 7392TIP3    H243592   1.412   0.441   4.806 -2.2510 -1.2837 -0.9415
 7393TIP3   OH243593   6.044   3.263  16.173  0.2268 -0.0903 -0.2786
 7393TIP3    H143594   6.033   3.246  16.080 -0.1791 -0.4133 -0.1714
 7393TIP3    H243595   5.998   3.346  16.187  0.3645  0.0039 -0.3811
 7394TIP3   OH243596   2.424   3.326  13.150  0.3841  0.0984 -0.0326
 7394TIP3    H143597   2.496   3.285  13.101  0.2570 -1.8042  1.2507
 7394TIP3    H243598   2.363   3.254  13.166 -0.4860  1.0933  1.2532
 7395TIP3   OH243599   5.438   0.378   3.765  0.6625 -0.1755 -0.0540
 7395TIP3    H143600   5.442   0.282   3.762 -1.9458 -0.3479 -0.6721
 7395TIP3    H243601   5.480   0.406   3.684 -0.5904 -0.9623 -1.0217
 7396TIP3   OH243602   3.921   6.407   2.117 -0.7048  0.0773  0.5265
 7396TIP3    H143603   3.847   6.408   2.178 -0.6706  3.9285  0.7812
 7396TIP3    H243604   3.882   6.433   2.033  0.2259  1.6695  0.5517
 7397TIP3   OH243605   0.724   1.713  11.698 -0.0234 -0.1486  0.1922
 7397TIP3    H143606   0.760   1.644  11.643 -0.9174 -0.0304 -0.5605
 7397TIP3    H243607   0.722   1.790  11.642  1.5513  0.6911  1.2082
 7398TIP3   OH243608   5.176   3.192   1.740 -0.4564  0.6396  0.9020
 7398TIP3    H143609   5.148   3.211   1.830 -0.7090 -1.4123  1.2982
 7398TIP3    H243610   5.245   3.127   1.750 -0.6791  0.1848 -0.3918
 7399TIP3   OH243611   0.163   5.308  17.120 -0.2220  0.2280 -0.1323
 7399TIP3    H143612   0.130   5.250  17.052 -0.0510 -1.1185  0.8907
 7399TIP3    H243613   0.189   5.249  17.192  1.6208  1.4162  0.2626
 7400TIP3   OH243614   0.945   4.912  11.970 -0.0457 -0.2668 -0.2997
 7400TIP3    H143615   0.998   4.902  12.049 -0.6320 -0.4724  0.0753
 7400TIP3    H243616   1.008   4.902  11.898  0.1795 -2.3103  0.0969
 7401TIP3   OH243617   2.231   4.659   3.733 -0.5203 -0.3040 -0.5465
 7401TIP3    H143618   2.168   4.589   3.713 -0.8352  0.1841 -1.3050
 7401TIP3    H243619   2.235   4.660   3.828 -1.5939 -0.4100 -0.4876
 7402TIP3   OH243620   5.386   6.063   1.733 -0.0599  0.0447 -0.1213
 7402TIP3    H143621   5.309   6.077   1.789  0.9787 -0.0971  1.3930
 7402TIP3    H243622   5.457   6.111   1.777  0.9378 -0.6342 -0.9585
 7403TIP3   OH243623   2.602   5.081  11.767 -0.3722  0.0735 -0.4243
 7403TIP3    H143624   2.590   4.992  11.801  1.0702 -0.2973 -0.8038
 7403TIP3    H243625   2.664   5.071  11.695  0.7450  1.5096  0.2682
 7404TIP3   OH243626   3.511   3.749  13.268  0.3141 -0.1052 -0.2180
 7404TIP3    H143627   3.574   3.714  13.205 -0.2085 -0.4188 -0.5743
 7404TIP3    H243628   3.442   3.788  13.214  0.7790  1.3283  0.1681
 7405TIP3   OH243629   2.752   5.500  16.075  0.0106  0.3408 -0.2001
 7405TIP3    H143630   2.845   5.485  16.090  0.2953  1.7190 -0.4979
 7405TIP3    H243631   2.724   5.425  16.021  0.7795 -0.4019  0.4072
 7406TIP3   OH243632   4.135   4.576   1.380 -0.6964  0.1096  0.6329
 7406TIP3    H143633   4.051   4.580   1.424 -0.6359 -0.4159  0.8072
 7406TIP3    H243634   4.200   4.600   1.446 -0.7495  1.1322  0.3361
 7407TIP3   OH243635   2.517   2.271   1.750  0.1390  0.0552 -0.3808
 7407TIP3    H143636   2.462   2.202   1.713  0.2032  0.4181 -1.1553
 7407TIP3    H243637   2.457   2.345   1.764  0.0593 -0.1670  0.4932
 7408TIP3   OH243638   3.043   5.601   4.612  0.0596 -0.0025  0.7408
 7408TIP3    H143639   3.000   5.549   4.680 -0.5093 -0.0802  0.3253
 7408TIP3    H243640   3.112   5.544   4.578 -0.5442 -0.4875  0.3034
 7409TIP3   OH243641   3.476   4.473  11.268 -0.4294 -0.0239 -0.3083
 7409TIP3    H143642   3.467   4.384  11.235  1.6674  0.6350 -3.0155
 7409TIP3    H243643   3.559   4.472  11.317  0.3290  0.6982 -1.5314
 7410TIP3   OH243644   3.519   0.984   2.104 -0.3006  0.5396 -0.3398
 7410TIP3    H143645   3.469   0.949   2.030 -1.4366  1.3917 -0.0179
 7410TIP3    H243646   3.524   0.912   2.166 -1.8131  0.6340 -0.0629
 7411TIP3   OH243647   3.377   5.411  13.669 -0.1037 -0.6580  0.6361
 7411TIP3    H143648   3.452   5.398  13.727  0.4834 -3.6865 -0.6204
 7411TIP3    H243649   3.338   5.324  13.660 -0.6405 -0.1906 -2.8071
 7412TIP3   OH243650   0.943   5.899   1.331  0.0439 -0.4661  0.1846
 7412TIP3    H143651   0.962   5.992   1.322  0.8705 -0.6278  0.1742
 7412TIP3    H243652   0.854   5.889   1.297 -0.2029  0.3775  0.5541
 7413TIP3   OH243653   6.424   0.217  13.848  0.2334  0.3541 -0.0824
 7413TIP3    H143654   6.423   0.130  13.807 -1.2970  0.1339  0.3674
 7413TIP3    H243655   6.423   0.278  13.774 -0.3229 -0.0277 -0.3970
 7414TIP3   OH243656   1.076   3.332  10.727  0.3763 -0.0667 -0.3756
 7414TIP3    H143657   1.133   3.306  10.654 -0.3153 -0.8364 -0.6581
 7414TIP3    H243658   0.987   3.319  10.694  0.0526 -1.0495  0.8156
 7415TIP3   OH243659   5.022   1.429  11.825  0.2389 -0.7576 -0.1365
 7415TIP3    H143660   5.012   1.522  11.803  0.2229 -1.0295 -1.3951
 7415TIP3    H243661   4.966   1.416  11.901 -1.8323 -0.2602 -1.4819
 7416TIP3   OH243662   6.392   0.511  12.560  0.2483  0.4408  0.1426
 7416TIP3    H143663   6.311   0.561  12.563 -0.3465 -0.3977 -1.3929
 7416TIP3    H243664   6.365   0.420  12.568  1.0085  0.1291 -0.7146
 7417TIP3   OH243665   6.263   4.780   3.688 -0.2180  0.3838  0.2823
 7417TIP3    H143666   6.228   4.848   3.746  0.4747  0.0030  1.1696
 7417TIP3    H243667   6.339   4.745   3.735  1.0868  0.8536 -1.3571
 7418TIP3   OH243668   3.312   4.107  12.888 -0.2741  0.2399 -0.0416
 7418TIP3    H143669   3.388   4.162  12.905 -1.5945  1.8864  0.8300
 7418TIP3    H243670   3.279   4.136  12.803 -0.4079  0.0991 -0.0392
 7419TIP3   OH243671   2.761   2.228   3.756  0.4085  0.2138 -0.3417
 7419TIP3    H143672   2.737   2.135   3.751 -1.1590  0.6305 -1.0715
 7419TIP3    H243673   2.701   2.265   3.821 -0.2532  1.0663 -1.4001
 7420TIP3   OH243674   4.951   6.413   2.623  0.5171  0.4575 -0.4093
 7420TIP3    H143675   4.877   6.354   2.637  1.1367 -0.7988 -2.0389
 7420TIP3    H243676   4.911   6.498   2.606 -0.5394 -0.0610 -0.5912
 7421TIP3   OH243677   4.386   3.441  15.602 -0.8255 -0.0016 -0.0875
 7421TIP3    H143678   4.318   3.392  15.648 -0.0009 -0.5739  0.5561
 7421TIP3    H243679   4.438   3.373  15.558 -0.3131  0.3728 -0.0737
 7422TIP3   OH243680   0.170   1.148   4.611  0.1378 -0.1161 -0.0564
 7422TIP3    H143681   0.211   1.203   4.678 -1.9778 -1.3082  2.3974
 7422TIP3    H243682   0.153   1.065   4.656 -0.6669 -1.2598 -2.3400
 7423TIP3   OH243683   3.484   2.568  17.190  0.5270 -0.0402 -0.4602
 7423TIP3    H143684   3.493   2.616  17.272  2.3271 -1.2732  0.1325
 7423TIP3    H243685   3.548   2.609  17.132 -0.9513  1.0257 -1.3997
 7424TIP3   OH243686   5.516   6.378  13.397 -0.2879 -0.0888 -0.2550
 7424TIP3    H143687   5.487   6.295  13.434 -0.3845  0.2721  0.4857
 7424TIP3    H243688   5.442   6.438  13.410 -0.1804  0.1471 -0.6919
 7425TIP3   OH243689   0.409   1.805   0.040  0.6209  0.0219  0.5456
 7425TIP3    H143690   0.422   1.877  -0.022  1.5036 -0.5692  0.0237
 7425TIP3    H243691   0.446   1.729  -0.004  2.0056 -0.2735  2.1305
 7426TIP3   OH243692   6.002   6.409  10.562  0.0423 -0.1983  0.0276
 7426TIP3    H143693   6.095   6.426  10.579  0.8119 -0.5132 -3.1652
 7426TIP3    H243694   5.982   6.461  10.483 -1.9838 -1.5131 -0.4019
 7427TIP3   OH243695   4.519   3.252   3.145  0.0385  0.1300  0.7359
 7427TIP3    H143696   4.462   3.175   3.135 -0.2789  0.3900  0.5070
 7427TIP3    H243697   4.521   3.268   3.239  1.0308 -0.8441  0.8977
 7428TIP3   OH243698   4.010   5.106  11.244  0.4378 -0.1929  0.4152
 7428TIP3    H143699   4.019   5.010  11.249 -0.2731 -0.3047 -0.3788
 7428TIP3    H243700   4.093   5.135  11.207  0.6284 -0.5104  0.5861
 7429TIP3   OH243701   3.283   1.056  11.962  0.0969  0.0815  0.0225
 7429TIP3    H143702   3.289   1.140  12.008 -0.7367 -0.5386  1.3299
 7429TIP3    H243703   3.311   0.991  12.027 -0.6085 -0.7856 -0.5192
 7430TIP3   OH243704   3.319   0.184  13.422  0.4760 -0.2962 -0.0261
 7430TIP3    H143705   3.353   0.244  13.488 -1.1911  1.6703 -0.8265
 7430TIP3    H243706   3.226   0.175  13.444  0.6029 -2.3617 -0.1529
 7431TIP3   OH243707   5.168   2.468  16.920  0.1014 -0.0976 -0.1867
 7431TIP3    H143708   5.127   2.535  16.975  1.2671  1.0481 -0.6569
 7431TIP3    H243709   5.099   2.404  16.905 -1.2272  1.2612 -0.1569
 7432TIP3   OH243710   6.218   5.625   0.232 -0.4481 -0.0471 -0.1630
 7432TIP3    H143711   6.214   5.531   0.250 -1.3604 -0.2599 -1.4030
 7432TIP3    H243712   6.145   5.641   0.172 -0.9037  1.6268  0.7788
 7433TIP3   OH243713   6.276   5.455  11.155  0.2281  0.0355  0.2106
 7433TIP3    H143714   6.256   5.453  11.062  0.2632 -1.1517  0.2216
 7433TIP3    H243715   6.372   5.454  11.160  0.2234 -0.5049  0.2622
 7434TIP3   OH243716   6.337   1.475   4.210  0.7746  1.1880 -0.6281
 7434TIP3    H143717   6.315   1.496   4.301  0.3135 -0.2054 -0.3953
 7434TIP3    H243718   6.428   1.445   4.213  0.3873 -0.0191 -0.4088
 7435TIP3   OH243719   5.653   4.681  10.591  0.0157 -0.1894 -0.1854
 7435TIP3    H143720   5.611   4.616  10.535  0.2586 -0.2957 -0.2484
 7435TIP3    H243721   5.597   4.686  10.669 -0.2173 -0.1823 -0.3531
 7436TIP3   OH243722   0.682   0.958  14.718 -0.4510 -0.0020  0.1229
 7436TIP3    H143723   0.626   1.025  14.757  0.0005  0.2889  0.2794
 7436TIP3    H243724   0.771   0.992  14.727 -0.3115 -0.0486 -0.9336
 7437TIP3   OH243725   0.427   4.018   5.162  0.0894 -0.1542 -0.0344
 7437TIP3    H143726   0.418   3.925   5.182  1.0858 -0.0428  1.0568
 7437TIP3    H243727   0.337   4.050   5.153 -0.2527 -1.4279 -1.5693
 7438TIP3   OH243728   5.152   6.369   1.653  0.6150  0.2573 -0.2916
 7438TIP3    H143729   5.160   6.313   1.730  0.2624  0.6446  0.0274
 7438TIP3    H243730   5.060   6.363   1.628  0.0881  2.2542  0.9468
 7439TIP3   OH243731   0.492   6.779   4.916 -0.2572 -0.4008 -0.0058
 7439TIP3    H143732   0.554   6.765   4.846  0.7909 -0.9902  1.0044
 7439TIP3    H243733   0.513   6.712   4.981 -1.3670 -0.0512  0.7567
 7440TIP3   OH243734   6.759   1.543   3.852 -0.3745 -0.0931 -0.0994
 7440TIP3    H143735   6.733   1.451   3.857 -1.7823  0.3088  0.5329
 7440TIP3    H243736   6.798   1.563   3.937  0.2763 -0.1916 -0.3687
 7441TIP3   OH243737   6.001   4.860  16.520 -0.0097  0.4118  0.1059
 7441TIP3    H143738   6.004   4.769  16.490 -0.8085  0.5053 -0.2876
 7441TIP3    H243739   6.091   4.891  16.512 -0.1842  0.4881 -2.4612
 7442TIP3   OH243740   5.197   5.325  14.400  0.0068 -0.3671  0.1010
 7442TIP3    H143741   5.206   5.355  14.490 -0.2331  0.5355 -0.1750
 7442TIP3    H243742   5.202   5.404  14.347  1.5108 -1.0061 -0.7789
 7443TIP3   OH243743   0.728   5.136   5.773 -0.5757 -0.8503 -0.1572
 7443TIP3    H143744   0.678   5.105   5.849  0.2040  1.5286  1.4547
 7443TIP3    H243745   0.818   5.142   5.804 -0.5792  2.4605 -0.3596
 7444TIP3   OH243746   4.371   4.821   1.859 -0.2361 -0.1365  0.1000
 7444TIP3    H143747   4.300   4.818   1.923  1.2549  0.5845  1.8541
 7444TIP3    H243748   4.431   4.752   1.886  0.8226  0.7161 -0.0135
 7445TIP3   OH243749   1.002   0.180  14.510 -0.1450  0.2094 -0.2629
 7445TIP3    H143750   0.923   0.193  14.459 -1.4491 -2.5906  0.8689
 7445TIP3    H243751   1.059   0.253  14.485 -3.2645  2.6973 -0.6570
 7446TIP3   OH243752   6.004   4.682   2.616 -0.0913  0.2071 -0.6678
 7446TIP3    H143753   5.985   4.776   2.615 -0.4680  0.1295 -0.9948
 7446TIP3    H243754   6.098   4.677   2.634  0.1660  0.6817 -1.8149
 7447TIP3   OH243755   5.677   0.892  10.635  0.0297 -0.1220 -0.3225
 7447TIP3    H143756   5.761   0.886  10.589  0.9889 -0.1941  1.3310
 7447TIP3    H243757   5.640   0.804  10.631 -0.8037  0.2704 -2.4661
 7448TIP3   OH243758   0.033   2.650   5.606  0.9349  0.1050 -0.5264
 7448TIP3    H143759  -0.049   2.613   5.571  0.0356  1.2456  0.3117
 7448TIP3    H243760   0.101   2.594   5.569 -0.2669 -1.4296 -0.5520
 7449TIP3   OH243761   2.389   1.845   0.402  0.1429  0.2987  0.3829
 7449TIP3    H143762   2.433   1.910   0.458 -1.0377  2.3369 -0.9250
 7449TIP3    H243763   2.457   1.818   0.340  0.1817  1.7687 -0.2541
 7450TIP3   OH243764   6.670   1.035  16.546  0.1193 -0.1306  0.5548
 7450TIP3    H143765   6.699   1.090  16.473 -0.8864  2.0442  1.7029
 7450TIP3    H243766   6.620   0.965  16.504  1.1379 -0.0205 -0.9426
 7451TIP3   OH243767   5.652   2.477  11.208 -0.1082 -0.2473 -0.5198
 7451TIP3    H143768   5.664   2.480  11.113  1.1424 -2.3245 -0.4925
 7451TIP3    H243769   5.740   2.478  11.244 -0.5538  0.0908  0.6119
 7452TIP3   OH243770   5.323   5.559   5.292 -1.0666 -0.5562 -0.0471
 7452TIP3    H143771   5.259   5.576   5.361 -0.0233 -1.7015  1.2710
 7452TIP3    H243772   5.291   5.479   5.250 -0.3448 -1.3391  0.8547
 7453TIP3   OH243773   1.481   6.433  11.034  0.1337  0.1931 -0.5003
 7453TIP3    H143774   1.390   6.446  11.007  0.0186  2.0970  0.5979
 7453TIP3    H243775   1.482   6.347  11.076 -1.3233  0.4108  0.0241
 7454TIP3   OH243776   1.473   5.233   5.217  0.5882 -0.0389 -0.3040
 7454TIP3    H143777   1.553   5.229   5.165 -0.2177 -0.0115 -1.5770
 7454TIP3    H243778   1.469   5.323   5.250  1.4950 -0.2690  0.4483
 7455TIP3   OH243779   5.378   5.862   5.285 -0.5355 -0.0192  0.1309
 7455TIP3    H143780   5.295   5.907   5.304 -1.5824 -1.5000 -0.7538
 7455TIP3    H243781   5.353   5.770   5.275  1.4851 -0.7918  1.5303
 7456TIP3   OH243782   3.177   2.876   2.042  0.3377  0.0001  0.2190
 7456TIP3    H143783   3.192   2.858   1.949  1.6736  1.4126  0.1225
 7456TIP3    H243784   3.217   2.802   2.088 -1.4383 -1.3643 -0.3133
 7457TIP3   OH243785   6.114   5.359   1.624  0.1885 -0.2721 -0.5972
 7457TIP3    H143786   6.028   5.385   1.591  0.5468  0.0080 -1.3326
 7457TIP3    H243787   6.157   5.441   1.647 -0.0813 -0.4657  0.6849
 7458TIP3   OH243788   0.992   6.802  11.523 -0.2938  0.3536  0.8297
 7458TIP3    H143789   1.081   6.800  11.486  0.1582  3.4272  1.4582
 7458TIP3    H243790   0.937   6.832  11.451 -0.6769 -0.6089  0.7126
 7459TIP3   OH243791   1.815   5.902   5.465  0.1676  0.1000  0.2617
 7459TIP3    H143792   1.861   5.889   5.547  2.4047  1.2777 -0.7089
 7459TIP3    H243793   1.749   5.968   5.484  3.3025  3.5399  0.4040
 7460TIP3   OH243794   2.487   2.369  12.903 -0.3631 -0.2978  0.0034
 7460TIP3    H143795   2.427   2.299  12.877  0.0426 -0.8061  0.4215
 7460TIP3    H243796   2.536   2.333  12.976 -0.7130  0.7213  0.7689
 7461TIP3   OH243797   0.435   6.225  11.474 -0.4278  0.3778 -0.3910
 7461TIP3    H143798   0.362   6.177  11.435 -0.3636 -1.4431  1.5798
 7461TIP3    H243799   0.510   6.167  11.466  0.3851  1.4335 -0.6630
 7462TIP3   OH243800   6.169   6.384   4.408 -0.4773  0.0122 -0.4608
 7462TIP3    H143801   6.086   6.337   4.417 -1.4181  1.5759 -0.5866
 7462TIP3    H243802   6.184   6.388   4.314 -1.4004  1.5470 -0.5839
 7463TIP3   OH243803   0.723   6.662  14.502  0.2680 -0.0889 -0.0071
 7463TIP3    H143804   0.770   6.581  14.484 -0.5566 -0.7837  0.8973
 7463TIP3    H243805   0.689   6.652  14.591 -0.7578  0.7909 -0.2734
 7464TIP3   OH243806   6.612   5.229  16.003  0.3141  0.2549 -0.2926
 7464TIP3    H143807   6.682   5.187  16.053  1.6441  2.0521 -0.5228
 7464TIP3    H243808   6.614   5.320  16.032 -2.5570  0.2141  0.3329
 7465TIP3   OH243809   3.246   3.988  12.398  0.3491 -0.0059  0.9509
 7465TIP3    H143810   3.275   4.020  12.313  1.6878  1.9714  2.0486
 7465TIP3    H243811   3.260   4.062  12.457  3.1331 -2.3558  3.6473
 7466TIP3   OH243812   5.141   5.962   3.724  0.1264  0.1334  0.5208
 7466TIP3    H143813   5.138   6.056   3.742  1.0271  0.0444  1.1791
 7466TIP3    H243814   5.220   5.949   3.672 -0.5448 -0.1320 -0.4809
 7467TIP3   OH243815   2.026   4.144   3.637 -0.2905 -0.1494  0.0165
 7467TIP3    H143816   1.984   4.213   3.689 -1.6765 -1.3107  0.4999
 7467TIP3    H243817   2.003   4.063   3.682  2.0327 -0.9008 -0.0626
 7468TIP3   OH243818   0.286   1.224   4.937  0.5213  0.2546  0.4465
 7468TIP3    H143819   0.208   1.206   4.990 -0.1750  1.8312  0.0184
 7468TIP3    H243820   0.360   1.206   4.996 -0.2145  1.0969  1.6748
 7469TIP3   OH243821   6.197   2.128   3.556  0.0650 -0.0560 -0.0953
 7469TIP3    H143822   6.239   2.160   3.636 -0.1616 -1.0312  0.4310
 7469TIP3    H243823   6.113   2.175   3.553  0.0733 -0.0190  0.2336
 7470TIP3   OH243824   3.004   1.509   4.367  0.7405 -0.3004 -0.0744
 7470TIP3    H143825   2.912   1.507   4.340  0.6816  0.7470  0.0379
 7470TIP3    H243826   3.043   1.578   4.315  1.0251  0.5446  1.2146
 7471TIP3   OH243827   0.357   3.860   2.224  0.1532  0.1878  0.1672
 7471TIP3    H143828   0.376   3.816   2.306  1.4534  1.8158  0.8028
 7471TIP3    H243829   0.421   3.825   2.162 -0.9992 -1.2371 -0.2797
 7472TIP3   OH243830   2.836   1.695   2.254 -0.1676 -0.1453  0.5504
 7472TIP3    H143831   2.861   1.606   2.231 -1.1035 -0.3918  0.4823
 7472TIP3    H243832   2.820   1.738   2.169  2.7101  0.8506  0.3970
 7473TIP3   OH243833   4.913   4.861  10.816 -0.0092  0.0654  0.5125
 7473TIP3    H143834   4.988   4.886  10.761  0.0554  0.3551  0.7335
 7473TIP3    H243835   4.837   4.889  10.765 -0.1190 -2.4788 -0.9219
 7474TIP3   OH243836   2.012   3.652  12.129  0.3718  0.1953  0.4449
 7474TIP3    H143837   2.081   3.717  12.114  0.1184  0.3636  0.0131
 7474TIP3    H243838   2.001   3.608  12.045 -0.3384  0.4481  0.4017
 7475TIP3   OH243839   5.715   4.250   3.096  0.1158  0.2917 -0.4275
 7475TIP3    H143840   5.636   4.196   3.103  0.2049  0.3364  1.3398
 7475TIP3    H243841   5.760   4.239   3.180  0.7579  2.1748 -0.4718
 7476TIP3   OH243842   1.452   3.835  17.023 -0.4392 -0.1769 -0.2683
 7476TIP3    H143843   1.425   3.891  17.095  0.4167  0.5279 -0.4845
 7476TIP3    H243844   1.370   3.807  16.983 -0.9867 -1.4688  1.6086
 7477TIP3   OH243845   1.391   4.857   2.407 -0.2923 -0.1718  0.1651
 7477TIP3    H143846   1.398   4.896   2.495 -0.0071 -2.7160  1.3421
 7477TIP3    H243847   1.299   4.869   2.384 -0.1716  1.3994  0.3317
 7478TIP3   OH243848   3.951   4.112  11.204  0.0863 -0.1478  0.4245
 7478TIP3    H143849   3.994   4.049  11.263  0.7316 -0.9787 -0.9010
 7478TIP3    H243850   3.928   4.061  11.127 -1.0411  0.8642  0.0688
 7479TIP3   OH243851   1.074   1.071  11.222 -0.1667  0.1093  0.8291
 7479TIP3    H143852   1.044   1.156  11.189  0.9168  0.2062  0.0220
 7479TIP3    H243853   1.110   1.027  11.145 -0.5045 -0.9931  1.2870
 7480TIP3   OH243854   6.210   5.869   1.410  0.0438  0.5052 -0.2408
 7480TIP3    H143855   6.288   5.840   1.457  0.4041  0.0993 -1.0536
 7480TIP3    H243856   6.153   5.906   1.477  0.2465 -0.6704  0.6051
 7481TIP3   OH243857   5.719   4.401   4.539 -0.1163  0.4602  0.2254
 7481TIP3    H143858   5.733   4.343   4.465  1.1936  1.6648 -0.5161
 7481TIP3    H243859   5.632   4.438   4.524 -0.0174  0.4052 -0.5053
 7482TIP3   OH243860   3.376   3.416   6.691  0.2462  0.3596 -0.0632
 7482TIP3    H143861   3.390   3.324   6.711  1.2209  0.3613 -0.6494
 7482TIP3    H243862   3.283   3.430   6.705 -0.1360 -0.9932 -1.0364
 7483TIP3   OH243863   4.144   5.150  14.529  0.2450  0.0386 -0.2422
 7483TIP3    H143864   4.119   5.145  14.437  1.7626  0.4912 -0.7144
 7483TIP3    H243865   4.085   5.089  14.573  1.5719 -2.7717 -1.9959
 7484TIP3   OH243866   0.995   0.055  13.469  0.4769 -0.0416  0.3345
 7484TIP3    H143867   1.017   0.142  13.435 -1.9241  0.9161  1.0444
 7484TIP3    H243868   0.914   0.032  13.425  1.3594 -2.2340 -0.2573
 7485TIP3   OH243869   3.935   1.493  14.758  0.0676 -0.2869  0.1881
 7485TIP3    H143870   4.021   1.456  14.782 -0.3930 -0.9667  0.8234
 7485TIP3    H243871   3.889   1.420  14.717  0.5031  0.6087 -2.0170
 7486TIP3   OH243872   0.168   5.839   3.858 -0.7697 -0.4483 -0.1960
 7486TIP3    H143873   0.134   5.907   3.800  0.3588 -0.0066 -0.3657
 7486TIP3    H243874   0.262   5.857   3.865 -1.0125  0.2097  2.6671
 7487TIP3   OH243875   3.419   3.888   3.382 -0.3509  0.0876  0.5923
 7487TIP3    H143876   3.458   3.976   3.386  0.4819 -0.3015  1.4563
 7487TIP3    H243877   3.392   3.878   3.291  1.4117  0.4630 -0.0242
 7488TIP3   OH243878   5.475   2.452  11.428  0.1850  0.7603  0.0968
 7488TIP3    H143879   5.526   2.447  11.347 -0.7426 -0.3157 -0.4490
 7488TIP3    H243880   5.488   2.367  11.470 -2.0574 -0.0434 -0.6568
 7489TIP3   OH243881   2.472   3.616   4.037 -0.0615 -0.4454  0.1909
 7489TIP3    H143882   2.454   3.646   4.126  1.2321 -0.6540  0.5384
 7489TIP3    H243883   2.506   3.528   4.047 -0.2168 -0.5997 -0.5463
 7490TIP3   OH243884   6.123   2.164  13.305 -0.9892  0.7709  0.1440
 7490TIP3    H143885   6.112   2.088  13.363 -0.3780  0.4845 -0.1087
 7490TIP3    H243886   6.050   2.158  13.244  0.3614 -1.0173 -1.4183
 7491TIP3   OH243887   6.769   5.581   1.410  0.2329 -0.2400 -0.3500
 7491TIP3    H143888   6.753   5.508   1.470  1.0399 -1.3423 -1.3996
 7491TIP3    H243889   6.834   5.546   1.348  1.5816  1.8046 -0.1486
 7492TIP3   OH243890   2.209   2.560   2.919 -0.3844  0.0942 -0.0513
 7492TIP3    H143891   2.227   2.507   2.997  0.1292 -0.1632 -0.3465
 7492TIP3    H243892   2.258   2.641   2.933 -1.6380  0.7707  0.6808
 7493TIP3   OH243893   2.884   4.179  16.319 -0.0889 -0.1427 -0.4126
 7493TIP3    H143894   2.796   4.152  16.344 -0.4091  0.1562 -1.1704
 7493TIP3    H243895   2.931   4.097  16.303  0.1106 -0.3416  1.0466
 7494TIP3   OH243896   4.136   1.117   5.107 -0.0715  0.8138  0.0766
 7494TIP3    H143897   4.045   1.119   5.137  0.1492  1.8406  0.7334
 7494TIP3    H243898   4.155   1.024   5.096 -1.0304  0.5558  0.4522
 7495TIP3   OH243899   1.776   6.479  11.961 -0.7036 -0.2526  0.0361
 7495TIP3    H143900   1.693   6.453  12.002 -1.0305 -1.6564 -1.4177
 7495TIP3    H243901   1.763   6.462  11.868  0.5702  1.3464 -0.4867
 7496TIP3   OH243902   6.130   0.011  13.791  0.1605  0.5041  0.7061
 7496TIP3    H143903   6.115   0.104  13.809  0.8584  0.7244  0.1817
 7496TIP3    H243904   6.053  -0.016  13.741 -0.2831  0.6717  1.2885
 7497TIP3   OH243905   3.016   2.482   2.762  0.5058 -0.0897  0.2397
 7497TIP3    H143906   2.936   2.490   2.813  0.7575  0.7526  0.5161
 7497TIP3    H243907   3.065   2.562   2.781  1.3635 -0.5403 -0.0107
 7498TIP3   OH243908   3.805   3.617   5.056  0.2050 -0.2137  0.0282
 7498TIP3    H143909   3.734   3.645   5.113  2.1774  0.6548  2.2138
 7498TIP3    H243910   3.835   3.698   5.014  0.7429 -0.3369  0.1611
 7499TIP3   OH243911   0.093   2.374  17.057  0.0781  0.1359 -0.0706
 7499TIP3    H143912   0.148   2.310  17.101 -0.7491  0.1713  1.0527
 7499TIP3    H243913   0.064   2.331  16.976  0.5156 -0.4400  0.0802
 7500TIP3   OH243914   3.395   3.213  12.378 -0.3647 -0.3613 -0.2295
 7500TIP3    H143915   3.392   3.262  12.296 -1.1525 -0.1512 -0.0775
 7500TIP3    H243916   3.311   3.167  12.382 -0.7501  0.3938  0.9256
 7501TIP3   OH243917   6.005   2.518  12.692  0.2509  0.4172  0.2651
 7501TIP3    H143918   6.040   2.496  12.778  0.3507  0.6882  0.2964
 7501TIP3    H243919   5.916   2.547  12.709  0.2215  0.3308  0.2592
 7502TIP3   OH243920   4.962   3.432   1.840 -0.5752  0.1348  0.2513
 7502TIP3    H143921   5.039   3.380   1.861 -0.1757 -0.0958 -1.6351
 7502TIP3    H243922   4.912   3.435   1.922 -0.6893 -3.3090  0.4729
 7503TIP3   OH243923   0.858   4.883  10.601  0.1780 -0.6708 -0.1500
 7503TIP3    H143924   0.802   4.942  10.551 -0.0410 -1.0876 -0.4004
 7503TIP3    H243925   0.854   4.800  10.554  1.6935 -0.4877 -0.6614
 7504TIP3   OH243926   1.652   3.337   1.653  0.0207 -0.3596 -0.8192
 7504TIP3    H143927   1.599   3.366   1.728  1.0138  1.1020 -0.6518
 7504TIP3    H243928   1.587   3.315   1.586 -0.8428  0.9516 -0.4631
 7505TIP3   OH243929   6.692   1.647   0.145 -0.3347  0.0879 -0.8533
 7505TIP3    H143930   6.612   1.654   0.093  0.5554 -0.9543 -2.4240
 7505TIP3    H243931   6.756   1.702   0.099  0.4191 -0.6958 -0.7818
 7506TIP3   OH243932   6.188   1.064   6.656 -0.4456  0.0087 -0.2194
 7506TIP3    H143933   6.164   0.977   6.689  2.6780 -1.4608 -1.4154
 7506TIP3    H243934   6.198   1.052   6.561 -0.9464  1.9855 -0.5726
 7507TIP3   OH243935   0.740   1.502   0.642 -0.4366  0.3123 -0.8140
 7507TIP3    H143936   0.795   1.581   0.643  1.5991 -1.0015 -1.1067
 7507TIP3    H243937   0.662   1.527   0.594  0.5078  1.9463 -1.5693
 7508TIP3   OH243938   1.618   3.765   3.887  0.3479  0.1759 -0.1683
 7508TIP3    H143939   1.561   3.691   3.906 -0.5374 -0.2288 -3.6510
 7508TIP3    H243940   1.558   3.839   3.874  1.0142  0.8732  0.6105
 7509TIP3   OH243941   2.513   4.550   5.491  0.2149  0.2061  0.2326
 7509TIP3    H143942   2.450   4.481   5.468  1.7770 -1.0681 -0.4321
 7509TIP3    H243943   2.483   4.626   5.441 -1.1490 -0.1568  0.4376
 7510TIP3   OH243944   6.140   2.769  12.720  0.0741 -0.3096  0.6881
 7510TIP3    H143945   6.207   2.810  12.664 -1.4175  0.6554 -0.4563
 7510TIP3    H243946   6.115   2.690  12.674  0.6870 -0.8973  1.3308
 7511TIP3   OH243947   5.283   0.618   6.591  0.0608 -0.6193 -1.0590
 7511TIP3    H143948   5.190   0.633   6.574 -0.2074 -0.7483  0.1793
 7511TIP3    H243949   5.284   0.551   6.660  1.0446  0.0612 -0.3901
 7512TIP3   OH243950   5.729   0.006  13.528  0.3712 -0.2589  0.3751
 7512TIP3    H143951   5.699  -0.078  13.562  0.9207 -0.3340  0.6896
 7512TIP3    H243952   5.715   0.067  13.601  0.0724 -0.0955  0.1838
 7513TIP3   OH243953   5.738   5.547  12.397 -0.2457 -0.2351  0.4228
 7513TIP3    H143954   5.767   5.551  12.488  2.1289  3.5385 -0.2897
 7513TIP3    H243955   5.813   5.509  12.350 -0.6380 -0.2325 -0.2220
 7514TIP3   OH243956   6.351   1.430   1.045 -0.4577 -0.2334  0.0395
 7514TIP3    H143957   6.258   1.439   1.026 -0.8843 -0.0241  2.0564
 7514TIP3    H243958   6.359   1.450   1.138  1.6685  0.1649 -0.1774
 7515TIP3   OH243959   3.008   4.019  12.768 -0.1623 -0.2118 -0.1094
 7515TIP3    H143960   3.006   4.106  12.809  1.5054  0.3426 -1.0850
 7515TIP3    H243961   2.951   4.028  12.692 -0.4132 -0.1180  0.0915
 7516TIP3   OH243962   3.466   1.079   2.359 -0.0783 -0.3167  0.1299
 7516TIP3    H143963   3.474   1.089   2.264 -1.7203  1.1613  0.1068
 7516TIP3    H243964   3.458   0.984   2.372  0.4558 -0.5589 -1.1601
 7517TIP3   OH243965   2.015   3.582   4.916 -0.6508  0.2996  0.6004
 7517TIP3    H143966   2.101   3.560   4.879 -0.8102 -0.5005  0.6737
 7517TIP3    H243967   2.014   3.677   4.921  0.5527  0.2955  1.3430
 7518TIP3   OH243968   3.440   2.662  11.562  0.3270  0.2323 -0.1771
 7518TIP3    H143969   3.447   2.568  11.574  2.7068  0.4664  1.0310
 7518TIP3    H243970   3.427   2.674  11.468 -1.8175 -1.3071 -0.1279
 7519TIP3   OH243971   1.201   5.628   0.478 -0.2298  0.4342 -0.0676
 7519TIP3    H143972   1.176   5.701   0.535  1.0362  0.1197  0.9446
 7519TIP3    H243973   1.294   5.642   0.460 -0.5631  0.4099 -1.9377
 7520TIP3   OH243974   6.647   4.740   3.305  0.5969  0.2061 -0.0266
 7520TIP3    H143975   6.597   4.660   3.290 -1.5947  1.4816  0.0289
 7520TIP3    H243976   6.729   4.710   3.346 -0.7568 -1.8760  1.3482
 7521TIP3   OH243977   2.602   2.019   3.178 -0.6332  0.3066 -0.0816
 7521TIP3    H143978   2.641   2.047   3.261 -1.3524  0.9717  0.0385
 7521TIP3    H243979   2.677   1.998   3.122 -0.0962  1.4613  0.1863
 7522TIP3   OH243980   2.334   3.628  14.002 -0.2508  0.3048 -0.6465
 7522TIP3    H143981   2.269   3.672  13.948 -1.0668 -0.1045 -0.0189
 7522TIP3    H243982   2.289   3.611  14.085 -0.0223 -1.7810 -0.8906
 7523TIP3   OH243983   0.664   2.848   5.133 -0.4417 -0.1823 -0.0449
 7523TIP3    H143984   0.736   2.899   5.096  1.3545 -2.2289  0.4256
 7523TIP3    H243985   0.603   2.834   5.061  1.1037 -0.8696 -1.2634
 7524TIP3   OH243986   6.125   3.520  13.849  0.3386  0.1484 -0.3287
 7524TIP3    H143987   6.160   3.527  13.938  0.4925  0.3367 -0.4033
 7524TIP3    H243988   6.203   3.521  13.793  0.2779 -0.5391 -0.4350
 7525TIP3   OH243989   5.052   4.209  11.359 -0.1107  0.0023 -0.3375
 7525TIP3    H143990   5.062   4.303  11.344 -0.8114  0.4418  1.5760
 7525TIP3    H243991   5.003   4.177  11.283  0.5831  1.0838 -1.2520
 7526TIP3   OH243992   1.547   6.784   4.839  0.6036 -0.8337  0.0255
 7526TIP3    H143993   1.595   6.756   4.918 -0.6795  0.0859  1.1807
 7526TIP3    H243994   1.545   6.879   4.845 -1.8060 -0.8476  0.3321
 7527TIP3   OH243995   3.344   2.723  14.014  0.1415 -0.2758  0.7514
 7527TIP3    H143996   3.291   2.786  14.064 -0.0482  0.8564 -0.7829
 7527TIP3    H243997   3.305   2.638  14.034  0.5191  0.0257  3.0330
 7528TIP3   OH243998   0.910   5.884  14.149  0.2319 -0.1105  0.3193
 7528TIP3    H143999   0.930   5.971  14.182  0.5024  0.3608 -1.0429
 7528TIP3    H244000   0.966   5.873  14.072 -0.9669 -0.8221 -0.5002
 7529TIP3   OH244001   5.549   3.883  12.715 -0.5922 -0.5239  0.0585
 7529TIP3    H144002   5.484   3.827  12.758 -0.5845  0.6753  1.7588
 7529TIP3    H244003   5.498   3.939  12.657 -0.7515 -1.3470 -0.6147
 7530TIP3   OH244004   2.751   2.505   3.402 -0.6813  0.3027 -0.5103
 7530TIP3    H144005   2.708   2.465   3.326 -1.2653 -1.4127  0.6881
 7530TIP3    H244006   2.816   2.441   3.430  1.3225  1.9681 -0.9986
 7531TIP3   OH244007   3.973   3.292   4.543  0.2974 -0.4917  0.6890
 7531TIP3    H144008   4.043   3.323   4.486 -0.7425 -2.2434 -1.7227
 7531TIP3    H244009   3.904   3.265   4.483 -2.1918  0.4353  2.9160
 7532TIP3   OH244010   0.711   5.563  15.617 -0.4634 -0.2620 -0.0508
 7532TIP3    H144011   0.700   5.652  15.651 -0.9476 -0.4175  0.2106
 7532TIP3    H244012   0.622   5.531  15.603 -0.2848 -0.5608 -0.5240
 7533TIP3   OH244013   1.661   4.580  13.171  0.4226 -0.6175  0.2175
 7533TIP3    H144014   1.596   4.647  13.189  0.8535 -0.0337 -0.3413
 7533TIP3    H244015   1.745   4.620  13.195  0.8621 -0.3216 -1.6211
 7534TIP3   OH244016   1.407   0.495   0.018  0.4909 -0.6459 -0.1142
 7534TIP3    H144017   1.493   0.464  -0.010  0.9659 -0.2647  0.8614
 7534TIP3    H244018   1.425   0.542   0.100 -0.5473  0.0675 -0.2875
 7535TIP3   OH244019   3.235   2.611   4.039  0.4394 -0.2661  0.5053
 7535TIP3    H144020   3.261   2.691   3.994  1.7844 -0.4615  0.8937
 7535TIP3    H244021   3.144   2.597   4.013  0.5496  0.7488 -0.4937
 7536TIP3   OH244022   4.755   5.050   0.232 -0.1329  0.2759 -0.4817
 7536TIP3    H144023   4.693   5.004   0.176 -1.4120 -1.1652  1.9655
 7536TIP3    H244024   4.700   5.102   0.290  0.7403 -1.8808  2.5059
 7537TIP3   OH244025   4.420   6.741   5.578  0.3261  0.1781  0.7487
 7537TIP3    H144026   4.341   6.688   5.568 -1.1175  2.4817 -0.9400
 7537TIP3    H244027   4.440   6.738   5.672 -2.5876  0.5952  1.4584
 7538TIP3   OH244028   5.498   2.084  12.750 -0.6029 -0.0380 -0.9390
 7538TIP3    H144029   5.453   2.004  12.723 -0.1418 -1.5359  2.2380
 7538TIP3    H244030   5.577   2.053  12.793  0.3762  2.2505 -0.9785
 7539TIP3   OH244031   3.288   1.299   1.679 -0.7702  0.3859  0.2139
 7539TIP3    H144032   3.235   1.244   1.621  1.2550 -0.3439 -1.1010
 7539TIP3    H244033   3.295   1.249   1.760 -1.7405  0.3216  0.2676
 7540TIP3   OH244034   2.404   2.998   3.627  1.2044  0.1150 -0.1900
 7540TIP3    H144035   2.483   2.989   3.573  1.8098  2.1801  0.2563
 7540TIP3    H244036   2.403   3.090   3.652 -1.0894  0.0203  0.2696
 7541TIP3   OH244037   2.807   2.641   4.479  0.6669  0.5345  0.2554
 7541TIP3    H144038   2.892   2.634   4.434  0.7039  1.7234  0.1045
 7541TIP3    H244039   2.744   2.605   4.417  0.8380  1.3003 -0.3795
 7542TIP3   OH244040   5.342   2.942   1.650 -0.2476  0.6456  0.2473
 7542TIP3    H144041   5.252   2.909   1.656  0.2099 -1.6958 -3.2231
 7542TIP3    H244042   5.396   2.867   1.675  0.7497  1.0935 -0.5199
 7543TIP3   OH244043   0.730   4.071  16.745  0.1482  0.6387 -0.1251
 7543TIP3    H144044   0.813   4.026  16.751 -0.6735 -0.7893  1.0563
 7543TIP3    H244045   0.741   4.133  16.673  2.5400  1.2026  0.6617
 7544TIP3   OH244046   0.982   5.633  11.430 -0.0266  0.2466 -0.0108
 7544TIP3    H144047   0.974   5.585  11.348 -1.3004 -0.0342  0.2554
 7544TIP3    H244048   0.987   5.725  11.404  3.2538  0.0393 -0.5778
 7545TIP3   OH244049   4.121   0.515  10.819  0.0274  0.5185  0.0216
 7545TIP3    H144050   4.187   0.456  10.857  0.0079  1.7202  2.1168
 7545TIP3    H244051   4.172   0.591  10.789 -0.2138  0.6768  0.0112
 7546TIP3   OH244052   4.768   4.203   0.795  0.2178  0.4005 -0.0030
 7546TIP3    H144053   4.709   4.224   0.868 -0.5600  0.8406 -0.7378
 7546TIP3    H244054   4.717   4.222   0.716  1.5394  1.3534 -0.6722
 7547TIP3   OH244055   0.681   2.822  17.034 -0.0395 -0.0197  0.5506
 7547TIP3    H144056   0.676   2.843  17.127 -1.6614  1.0081  0.2811
 7547TIP3    H244057   0.634   2.894  16.991 -2.2236 -2.0699 -0.7952
 7548TIP3   OH244058   3.112   3.653   2.721 -0.1740  0.4259 -0.2490
 7548TIP3    H144059   3.187   3.614   2.766  0.3553  0.8781 -0.7272
 7548TIP3    H244060   3.135   3.746   2.711 -1.5635  0.9809  1.1904
 7549TIP3   OH244061   5.542   1.140   6.457 -0.6917 -1.0082 -0.0851
 7549TIP3    H144062   5.637   1.144   6.454 -0.7072 -1.0236 -2.1302
 7549TIP3    H244063   5.522   1.047   6.470 -0.4335 -0.9193  0.9774
 7550TIP3   OH244064   3.465   1.489  14.155  0.3545 -0.5901 -0.0654
 7550TIP3    H144065   3.426   1.432  14.089 -0.4569  0.1323 -0.2238
 7550TIP3    H244066   3.430   1.576  14.135 -0.9618 -0.5616  2.1334
 7551TIP3   OH244067   3.787   1.960   3.235  0.0405  0.5071  0.2259
 7551TIP3    H144068   3.768   1.894   3.168 -0.3710  1.1210 -0.2665
 7551TIP3    H244069   3.716   2.024   3.227  0.2735  0.8601  0.8986
 7552TIP3   OH244070   1.237   4.434  12.705 -0.2498 -0.2418  0.1973
 7552TIP3    H144071   1.307   4.478  12.657  0.5872 -2.3923 -0.6990
 7552TIP3    H244072   1.159   4.487  12.689  0.0832 -0.5810 -3.2296
 7553TIP3   OH244073   3.368   5.682   2.655  0.4049  0.3404 -0.1425
 7553TIP3    H144074   3.424   5.655   2.728  1.0270 -2.2686 -1.4643
 7553TIP3    H244075   3.426   5.734   2.598  0.9283 -0.5922 -0.4788
 7554TIP3   OH244076   6.330   4.286   4.437  0.0017 -0.1948 -0.1939
 7554TIP3    H144077   6.388   4.345   4.486  0.9858  0.7236 -2.3041
 7554TIP3    H244078   6.281   4.239   4.504 -0.7546  2.9202  1.6373
 7555TIP3   OH244079   4.443   2.305   1.761  0.1427  0.6225 -0.2544
 7555TIP3    H144080   4.367   2.253   1.788  2.6139 -3.2429  0.1426
 7555TIP3    H244081   4.481   2.336   1.844 -0.7512  2.2710 -0.4319
 7556TIP3   OH244082   0.994   2.308  14.306 -1.0753  0.0661  0.4495
 7556TIP3    H144083   0.918   2.284  14.358 -1.1519  0.8855  0.7269
 7556TIP3    H244084   1.024   2.391  14.343 -0.6302  0.2432 -0.2793
 7557TIP3   OH244085   2.437   1.228   1.978  0.1939 -0.2647  0.3704
 7557TIP3    H144086   2.467   1.147   1.937  1.8348  0.6787 -0.3887
 7557TIP3    H244087   2.454   1.215   2.072  0.5253 -0.7684  0.2451
 7558TIP3   OH244088   1.302   2.008   3.221  0.5318 -0.0540  0.3054
 7558TIP3    H144089   1.213   2.002   3.186  0.3717  0.2254  0.6524
 7558TIP3    H244090   1.353   1.946   3.169  0.8321  2.0387 -2.0889
 7559TIP3   OH244091   0.522   1.308  16.318  0.4058 -0.1411  0.4264
 7559TIP3    H144092   0.607   1.351  16.327  0.9937 -1.0286 -0.6309
 7559TIP3    H244093   0.458   1.376  16.339  1.3100  1.2158 -0.9915
 7560TIP3   OH244094   3.464   1.412   5.582 -0.1053  0.2530  0.1794
 7560TIP3    H144095   3.377   1.433   5.549  0.0555 -0.3007 -0.6139
 7560TIP3    H244096   3.512   1.378   5.506  0.9269  0.9157  0.5114
 7561TIP3   OH244097   3.263   0.988   2.684  0.1723  0.0754 -0.0519
 7561TIP3    H144098   3.289   0.918   2.744 -1.4620 -0.6620 -0.1457
 7561TIP3    H244099   3.296   1.068   2.725  2.2606 -0.7136 -0.0383
 7562TIP3   OH244100   5.889   5.326  13.574  0.1444  0.2047  0.2830
 7562TIP3    H144101   5.876   5.330  13.479  1.0913  1.3800  0.1727
 7562TIP3    H244102   5.805   5.354  13.611 -0.2404 -0.2922 -0.2002
 7563TIP3   OH244103   0.193   3.337   0.973 -0.4328 -0.1884 -0.7742
 7563TIP3    H144104   0.141   3.384   0.908  0.3869  0.9102 -0.6709
 7563TIP3    H244105   0.279   3.328   0.933  0.4552  1.5987  0.5707
 7564TIP3   OH244106   2.120   3.000  14.762  0.0473  0.5784 -0.1918
 7564TIP3    H144107   2.115   2.925  14.821  0.1110  1.2161  0.6444
 7564TIP3    H244108   2.205   2.990  14.718 -0.5468 -0.5875 -1.1593
 7565TIP3   OH244109   2.848   0.339   4.512  0.3589  0.2460 -0.2519
 7565TIP3    H144110   2.922   0.385   4.473  0.8491 -0.0402  0.3271
 7565TIP3    H244111   2.881   0.306   4.596  0.6030 -2.6059 -1.3457
 7566TIP3   OH244112   4.389   2.113   0.149 -0.0178 -0.0421 -0.4410
 7566TIP3    H144113   4.442   2.077   0.078 -0.0352  0.0043 -0.4777
 7566TIP3    H244114   4.378   2.041   0.210  0.8177  0.1809 -0.0124
 7567TIP3   OH244115   0.351   0.654   2.968 -0.1552  0.1245 -0.1112
 7567TIP3    H144116   0.304   0.605   3.036 -0.1843  2.0680  1.3554
 7567TIP3    H244117   0.352   0.595   2.893 -3.3189 -0.7565  0.3740
 7568TIP3   OH244118   4.938   4.386  12.699  0.2322  0.1262  0.0481
 7568TIP3    H144119   4.908   4.365  12.787 -2.1745  2.6988 -0.0280
 7568TIP3    H244120   4.925   4.306  12.649  3.2562 -1.9556  2.2711
 7569TIP3   OH244121   5.394   3.450  16.331  0.0037  1.2063 -0.1146
 7569TIP3    H144122   5.409   3.543  16.317  1.2292  0.8114 -1.7985
 7569TIP3    H244123   5.369   3.442  16.423 -1.9261  3.3901 -0.3661
 7570TIP3   OH244124   1.103   5.849  17.006  0.3047  0.1829  0.3079
 7570TIP3    H144125   1.066   5.764  16.984 -1.0255  0.2621  2.0280
 7570TIP3    H244126   1.108   5.896  16.923 -0.7025 -0.9036 -0.3954
 7571TIP3   OH244127   5.685   4.847   1.587 -0.0180  0.6734 -0.5718
 7571TIP3    H144128   5.650   4.916   1.530 -0.9666  1.3535  0.7637
 7571TIP3    H244129   5.737   4.792   1.529 -1.5949  0.8529 -2.2774
 7572TIP3   OH244130   4.119   4.189  12.373  1.4331 -0.2041  0.2904
 7572TIP3    H144131   4.073   4.251  12.315 -0.7849  0.2007  2.3449
 7572TIP3    H244132   4.088   4.103  12.346  1.0939 -0.0909  0.3237
 7573TIP3   OH244133   1.175   1.370  14.719 -0.7946 -0.1775  0.0873
 7573TIP3    H144134   1.228   1.345  14.643 -0.8098  0.0805 -0.0072
 7573TIP3    H244135   1.084   1.356  14.691 -0.8705  1.1841 -0.4065
 7574TIP3   OH244136   2.902   2.097   0.901  0.0440  0.3172 -0.1520
 7574TIP3    H144137   2.834   2.108   0.835  0.9464  1.4964 -0.9137
 7574TIP3    H244138   2.874   2.020   0.951 -3.4333  2.3997  1.4809
 7575TIP3   OH244139   6.378   4.350  16.236  0.1340  0.1209  0.1847
 7575TIP3    H144140   6.309   4.292  16.203  2.6597 -1.9857 -1.9252
 7575TIP3    H244141   6.456   4.325  16.185  2.4045  2.5477  2.1849
 7576TIP3   OH244142   1.804   0.056  15.030 -0.0891  0.2049 -0.2770
 7576TIP3    H144143   1.720   0.019  15.003 -0.6281  1.4546 -0.3830
 7576TIP3    H244144   1.863   0.039  14.956 -0.3904 -0.1935 -0.4286
 7577TIP3   OH244145   3.114   1.821   1.373 -0.6139 -0.3743  0.0453
 7577TIP3    H144146   3.209   1.830   1.377 -0.5430  2.3104 -3.1228
 7577TIP3    H244147   3.081   1.892   1.429 -0.7057 -0.0546 -0.4127
 7578TIP3   OH244148   5.434   6.030  11.842  0.8649 -0.1342 -0.2595
 7578TIP3    H144149   5.527   6.010  11.854  0.1998 -4.1650 -0.1880
 7578TIP3    H244150   5.400   6.042  11.931  0.9816 -0.8097 -0.1171
 7579TIP3   OH244151   4.559   0.937  14.236  0.2498  0.4395  0.1640
 7579TIP3    H144152   4.589   1.005  14.295  0.5093 -0.1219  0.6880
 7579TIP3    H244153   4.534   0.864  14.293  0.7388 -0.2031 -0.4228
 7580TIP3   OH244154   2.909   5.218  14.381  0.4083  0.4899 -0.2347
 7580TIP3    H144155   2.952   5.259  14.306  0.3237  3.3230  1.1576
 7580TIP3    H244156   2.975   5.216  14.450 -0.4082  0.8588  0.5874
 7581TIP3   OH244157   1.625   5.723   4.972 -0.0927  0.1816 -0.3089
 7581TIP3    H144158   1.643   5.704   4.880  2.3031  0.1575  0.1132
 7581TIP3    H244159   1.625   5.819   4.977 -0.3506  0.1842 -0.3554
 7582TIP3   OH244160   6.285   2.185  12.321  0.5148 -0.8924 -0.6197
 7582TIP3    H144161   6.322   2.134  12.250 -0.9458 -1.5508 -0.9617
 7582TIP3    H244162   6.339   2.165  12.397 -1.0139 -4.4930 -0.2696
 7583TIP3   OH244163   1.717   1.351   1.024  0.3530  0.4855  0.1173
 7583TIP3    H144164   1.708   1.434   0.977  0.9883  0.8904  0.6850
 7583TIP3    H244165   1.767   1.373   1.102  2.1910 -0.7776 -0.6419
 7584TIP3   OH244166   5.398   4.016   6.201  0.0199 -0.0420 -0.2263
 7584TIP3    H144167   5.335   3.945   6.217  0.0945 -0.2798 -0.9570
 7584TIP3    H244168   5.358   4.068   6.131 -0.2793  0.9580  0.6578
 7585TIP3   OH244169   5.308   5.787  15.184 -0.2483  0.7375  0.5751
 7585TIP3    H144170   5.354   5.705  15.168 -2.0577 -0.2198  0.0096
 7585TIP3    H244171   5.277   5.781  15.274 -2.9200 -0.5904 -0.3475
 7586TIP3   OH244172   5.670   1.083   2.229 -0.2018  0.2102  0.1537
 7586TIP3    H144173   5.590   1.113   2.272 -1.3106  0.4045 -1.9146
 7586TIP3    H244174   5.641   1.022   2.162  1.5527 -0.9767  0.3976
 7587TIP3   OH244175   2.849   6.748  11.548  0.2638  0.0920  0.5042
 7587TIP3    H144176   2.861   6.765  11.454 -1.1482  2.2992  0.6470
 7587TIP3    H244177   2.770   6.695  11.553  1.5733 -1.9749  0.3810
 7588TIP3   OH244178   2.014   4.611  12.548  0.6975 -0.2175  0.9147
 7588TIP3    H144179   1.954   4.684  12.540 -0.4657 -1.0563  1.6513
 7588TIP3    H244180   2.048   4.617  12.637  0.2802 -0.7930  1.1201
 7589TIP3   OH244181   0.545   4.843  13.303 -0.6703  0.0992 -0.4291
 7589TIP3    H144182   0.463   4.849  13.254 -1.4655 -1.2544  0.6635
 7589TIP3    H244183   0.527   4.781  13.374  1.5186 -0.9080 -0.6413
 7590TIP3   OH244184   3.332   5.812   0.312 -0.1855  0.0071 -0.2344
 7590TIP3    H144185   3.250   5.861   0.316 -0.6842 -0.8671  1.5256
 7590TIP3    H244186   3.341   5.787   0.221 -1.6364  0.5135 -0.5459
 7591TIP3   OH244187   2.750   0.314  15.839 -0.0423  0.1684 -0.3852
 7591TIP3    H144188   2.709   0.239  15.883 -2.6586  1.0280 -1.1303
 7591TIP3    H244189   2.744   0.292  15.746 -1.3938  1.4821 -0.6500
 7592TIP3   OH244190   6.060   4.021   5.992 -0.0856  0.0787  0.1186
 7592TIP3    H144191   6.077   4.102   5.944 -0.1100  0.6144  0.9803
 7592TIP3    H244192   6.081   4.043   6.083 -1.4041 -0.4641  0.5759
 7593TIP3   OH244193   3.810   1.285  14.596  0.5025  0.1791  0.2490
 7593TIP3    H144194   3.886   1.259  14.544  1.6308  1.2194  1.2949
 7593TIP3    H244195   3.797   1.212  14.657  0.6990  0.0224  0.1024
 7594TIP3   OH244196   4.493   3.373   0.684 -0.7516 -0.0352  0.1109
 7594TIP3    H144197   4.575   3.325   0.691 -0.3919  0.7029  1.0350
 7594TIP3    H244198   4.444   3.348   0.762 -0.2309  1.6909  1.0247
 7595TIP3   OH244199   5.194   3.543   3.232  0.2842 -0.5393 -0.1653
 7595TIP3    H144200   5.243   3.552   3.313  0.4268  3.2807 -0.4959
 7595TIP3    H244201   5.103   3.541   3.259  0.3721 -1.6160  0.1278
 7596TIP3   OH244202   6.572   4.741   0.561 -0.6032  0.4761 -0.1968
 7596TIP3    H144203   6.483   4.773   0.554 -0.7447 -0.1043 -1.4828
 7596TIP3    H244204   6.584   4.719   0.654 -1.3846  1.6550  0.1934
 7597TIP3   OH244205   2.065   3.808   3.955  0.4948  0.5088 -0.6044
 7597TIP3    H144206   2.006   3.860   3.901 -0.2860  0.7013  0.4070
 7597TIP3    H244207   2.052   3.841   4.044  1.1260 -0.3636 -0.1719
 7598TIP3   OH244208   4.627   5.737   1.289 -0.0516 -0.3636 -0.1186
 7598TIP3    H144209   4.547   5.755   1.240 -0.4217 -1.4926  0.0427
 7598TIP3    H244210   4.687   5.807   1.264 -0.2715 -0.8082 -2.0776
 7599TIP3   OH244211   3.572   5.191   2.682  0.2179  0.0205  0.0231
 7599TIP3    H144212   3.525   5.114   2.651 -0.4502  0.9122 -1.2087
 7599TIP3    H244213   3.561   5.256   2.614  0.4590  1.3578  1.2149
 7600TIP3   OH244214   0.956   0.386   4.478  0.1884  0.3035 -0.2537
 7600TIP3    H144215   0.877   0.344   4.444  0.2168 -1.5203  1.7244
 7600TIP3    H244216   1.020   0.315   4.485  0.7987  0.9777  1.6083
 7601TIP3   OH244217   5.739   2.736   0.701 -0.0022  0.9692 -0.2984
 7601TIP3    H144218   5.811   2.722   0.639  0.5923  1.9399  0.1448
 7601TIP3    H244219   5.736   2.655   0.751 -0.1838  0.3524 -1.2741
 7602TIP3   OH244220   5.086   5.376   3.732  0.5116  1.0592 -0.2384
 7602TIP3    H144221   5.101   5.415   3.646  1.9206  0.1698 -0.4266
 7602TIP3    H244222   5.019   5.431   3.772 -0.4147  1.2884 -2.0237
 7603TIP3   OH244223   4.128   2.532   3.589 -0.0300 -0.2473 -0.6568
 7603TIP3    H144224   4.163   2.620   3.603  1.8272 -1.2148  1.1912
 7603TIP3    H244225   4.160   2.506   3.503  0.2936  0.4760 -0.7580
 7604TIP3   OH244226   0.217   2.185   5.181  0.6576  0.3606  0.3483
 7604TIP3    H144227   0.309   2.178   5.205  0.7152  0.8067  0.2574
 7604TIP3    H244228   0.216   2.192   5.086  0.5623  0.8900  0.3869
 7605TIP3   OH244229   6.730   5.555  14.446 -0.0150  0.3748  0.0655
 7605TIP3    H144230   6.765   5.628  14.396  2.0869 -1.6441 -1.6303
 7605TIP3    H244231   6.807   5.514  14.486 -1.1810 -0.6079  1.4079
 7606TIP3   OH244232   4.989   3.908   2.774 -1.1541 -0.2894 -0.0704
 7606TIP3    H144233   4.923   3.839   2.769  0.7316 -2.1184 -4.0960
 7606TIP3    H244234   5.069   3.863   2.801 -0.6740  1.1752  1.1126
 7607TIP3   OH244235   0.567   6.424  15.536 -0.3072 -0.0150  0.6378
 7607TIP3    H144236   0.618   6.343  15.532 -0.2336  0.0082  1.0687
 7607TIP3    H244237   0.482   6.397  15.570  0.3495  0.3783  2.6820
 7608TIP3   OH244238   2.438   0.298   0.003  0.2189  0.0074  0.5240
 7608TIP3    H144239   2.354   0.300  -0.042 -0.0193  2.3428  0.9092
 7608TIP3    H244240   2.418   0.264   0.090 -0.4496  0.9554  0.7567
 7609TIP3   OH244241   3.963   5.845  16.641  0.3277 -0.0660  0.0194
 7609TIP3    H144242   4.042   5.797  16.666  1.1087 -0.2692 -2.5411
 7609TIP3    H244243   3.943   5.814  16.553 -0.7222  2.3432 -0.6680
 7610TIP3   OH244244   2.617   5.964   5.271  0.1524  0.0508 -0.3618
 7610TIP3    H144245   2.570   6.007   5.343 -0.4729 -0.5647 -0.3885
 7610TIP3    H244246   2.683   5.910   5.314 -0.8349 -1.0516 -0.1804
 7611TIP3   OH244247   2.359   3.053  16.040  0.7665  0.2843  0.2888
 7611TIP3    H144248   2.263   3.048  16.035  0.7572  1.6970 -2.1719
 7611TIP3    H244249   2.386   2.963  16.057 -0.9142 -0.7227 -1.8572
 7612TIP3   OH244250   3.831   4.007   2.484 -0.1690 -0.4229  0.0357
 7612TIP3    H144251   3.856   4.047   2.568  0.7797  0.4392 -0.6345
 7612TIP3    H244252   3.912   3.966   2.453 -0.7298 -1.4858 -0.0720
 7613TIP3   OH244253   5.677   0.468   0.211  0.2340 -0.3079  0.4037
 7613TIP3    H144254   5.632   0.386   0.231  1.3302 -1.1348 -0.4203
 7613TIP3    H244255   5.704   0.459   0.120 -1.3673  1.8072 -0.3532
 7614TIP3   OH244256   1.322   1.478   0.944  0.0428 -0.2625  0.0531
 7614TIP3    H144257   1.318   1.406   1.007  0.0586  0.2796  0.6842
 7614TIP3    H244258   1.408   1.468   0.902 -0.9153 -2.0864 -1.6835
 7615TIP3   OH244259   4.180   0.345  11.865  0.0352 -0.5264  0.0382
 7615TIP3    H144260   4.134   0.420  11.903  1.8959  0.3102  0.7544
 7615TIP3    H244261   4.149   0.340  11.775  1.3295  2.4007 -0.6760
 7616TIP3   OH244262   6.441   6.371   2.971  0.4587  0.0397  0.3885
 7616TIP3    H144263   6.414   6.328   2.890  0.0116  3.5224 -1.5084
 7616TIP3    H244264   6.537   6.365   2.970  0.3910 -1.3797  0.5191
 7617TIP3   OH244265   1.742   4.539   5.382  0.3793  0.2529  0.0735
 7617TIP3    H144266   1.807   4.525   5.450  0.2309  1.8545  0.5921
 7617TIP3    H244267   1.688   4.611   5.414 -0.6445  0.0474 -1.0714
 7618TIP3   OH244268   5.036   0.058  16.062 -0.3362  0.3387  0.4001
 7618TIP3    H144269   4.981   0.135  16.079  0.9855  1.5167 -0.4624
 7618TIP3    H244270   5.104   0.063  16.129  0.4046  0.5837 -0.3582
 7619TIP3   OH244271   1.770   1.594  10.328 -0.3774 -0.2812  0.1954
 7619TIP3    H144272   1.721   1.617  10.407  2.0005  2.4825  1.0195
 7619TIP3    H244273   1.727   1.644  10.258 -0.6701 -0.3542  0.3238
 7620TIP3   OH244274   6.039   0.413  15.069  0.1634  0.0214 -0.2223
 7620TIP3    H144275   5.991   0.429  15.150  1.1685 -1.3497  0.6933
 7620TIP3    H244276   5.972   0.381  15.008 -0.3489 -0.4898  0.5818
 7621TIP3   OH244277   2.387   1.986   1.990 -0.2146 -0.2095 -0.2432
 7621TIP3    H144278   2.460   2.036   1.956  0.2827  0.2067  1.3422
 7621TIP3    H244279   2.428   1.918   2.044 -0.8405 -2.7093 -2.7090
 7622TIP3   OH244280   2.914   5.617  13.100 -0.3203  0.0331 -0.2716
 7622TIP3    H144281   2.909   5.646  13.009 -1.1038  0.6891 -0.0335
 7622TIP3    H244282   2.928   5.523  13.095 -2.0534 -0.2176 -1.0961
 7623TIP3   OH244283   0.368   3.339  10.290  0.6627 -0.2563 -0.0134
 7623TIP3    H144284   0.335   3.326  10.379 -1.9446 -0.2528 -0.8894
 7623TIP3    H244285   0.394   3.251  10.261  0.9954 -0.3442  0.5450
 7624TIP3   OH244286   5.941   0.663  13.375  0.5933 -0.1598  0.3734
 7624TIP3    H144287   5.866   0.718  13.355  1.0966  0.7215  0.8375
 7624TIP3    H244288   5.982   0.646  13.289 -0.8127 -1.7154 -0.0435
 7625TIP3   OH244289   5.040   3.101   5.817 -0.5861  0.6147 -0.3362
 7625TIP3    H144290   5.127   3.140   5.821 -0.1772 -0.2640 -0.5328
 7625TIP3    H244291   4.991   3.158   5.757  0.3894  0.1105 -1.6649
 7626TIP3   OH244292   5.273   5.364   5.641 -0.2288 -0.5458  0.3793
 7626TIP3    H144293   5.365   5.360   5.614 -0.1130 -2.6641  0.8674
 7626TIP3    H244294   5.261   5.287   5.697 -2.2832 -0.2959  0.3719
 7627TIP3   OH244295   2.158   5.279  11.857  0.4972 -0.1540 -0.5815
 7627TIP3    H144296   2.238   5.271  11.805  0.7669  1.6992 -0.5219
 7627TIP3    H244297   2.139   5.190  11.886  1.0801 -1.0445 -2.7243
 7628TIP3   OH244298   2.864   3.833   6.071  0.4586 -0.3804  0.3622
 7628TIP3    H144299   2.876   3.886   6.150  3.0457 -1.2332  0.6300
 7628TIP3    H244300   2.813   3.758   6.101  1.4020 -0.6902  1.2658
 7629TIP3   OH244301   5.856   5.522   1.922 -0.2997 -0.1139 -0.1536
 7629TIP3    H144302   5.886   5.610   1.902 -0.9066  0.0906 -0.1758
 7629TIP3    H244303   5.767   5.533   1.955 -0.3170 -0.7013  0.0206
 7630TIP3   OH244304   1.196   1.328  14.290 -0.3561  0.1049 -0.1467
 7630TIP3    H144305   1.107   1.327  14.326 -0.2142 -1.0505  0.2174
 7630TIP3    H244306   1.243   1.263  14.342  1.2953  2.1673  1.1162
 7631TIP3   OH244307   3.933   4.092  15.495  0.0141 -0.0359 -0.2806
 7631TIP3    H144308   3.927   4.120  15.587 -0.4116 -0.6873 -0.1010
 7631TIP3    H244309   3.884   4.010  15.493  0.3624 -0.2226 -1.0150
 7632TIP3   OH244310   5.562   2.212   5.317  0.6959 -0.3549 -0.8574
 7632TIP3    H144311   5.608   2.284   5.360  0.1254 -1.5569  1.9977
 7632TIP3    H244312   5.524   2.251   5.238 -1.4983  3.1448  1.6512
 7633TIP3   OH244313   3.113   4.174  11.865 -0.1440  0.2837 -0.3357
 7633TIP3    H144314   3.103   4.240  11.934  0.8825 -1.2750  1.3651
 7633TIP3    H244315   3.202   4.185  11.834 -0.4106  0.5736 -1.0210
 7634TIP3   OH244316   1.691   5.591  12.768  0.0698  0.1207  0.0139
 7634TIP3    H144317   1.676   5.661  12.833  0.2777  0.4738 -0.3144
 7634TIP3    H244318   1.783   5.568  12.778 -0.4485 -1.5839  1.5636
 7635TIP3   OH244319   2.490   5.473  12.515  0.3999  0.1338 -0.0576
 7635TIP3    H144320   2.497   5.538  12.585  0.1750  0.8114 -0.6545
 7635TIP3    H244321   2.448   5.520  12.443 -0.2413 -0.8209 -0.3223
 7636TIP3   OH244322   2.559   1.731  14.913 -0.0695 -0.5218  0.1763
 7636TIP3    H144323   2.570   1.639  14.935 -0.7699 -0.7800 -0.4919
 7636TIP3    H244324   2.578   1.736  14.819 -0.4657 -0.0766  0.1123
 7637TIP3   OH244325   5.193   6.406   3.987 -0.2320  0.4912 -0.6915
 7637TIP3    H144326   5.208   6.493   4.026  1.8370 -0.2295  0.2806
 7637TIP3    H244327   5.178   6.424   3.894  0.4427  1.8949 -0.5557
 7638TIP3   OH244328   0.368   6.344  13.446  0.5449  0.1831  0.2108
 7638TIP3    H144329   0.358   6.312  13.356  0.8871 -1.0476  0.5851
 7638TIP3    H244330   0.281   6.372  13.471 -0.1223 -1.8043  0.3165
 7639TIP3   OH244331   6.179   4.041  16.394  0.0036  0.3036 -0.4263
 7639TIP3    H144332   6.264   4.046  16.438 -0.6706  1.1627  0.8241
 7639TIP3    H244333   6.178   4.117  16.335 -0.0543  0.5072 -0.1616
 7640TIP3   OH244334   1.928   3.799  12.825 -1.0605  0.2140 -0.1056
 7640TIP3    H144335   1.910   3.892  12.810 -0.3716  0.2302 -0.9644
 7640TIP3    H244336   1.875   3.753  12.760 -0.8587  0.0590 -0.1649
 7641TIP3   OH244337   2.944   5.494  14.934 -0.2194  0.0516  0.9023
 7641TIP3    H144338   2.937   5.580  14.892  0.0372 -1.6398 -3.0479
 7641TIP3    H244339   3.035   5.488  14.964  1.0379 -0.1775 -2.4969
 7642TIP3   OH244340   4.701   4.549   1.722  0.3317  0.6148  0.0564
 7642TIP3    H144341   4.758   4.588   1.655 -0.5535 -1.2658 -1.9380
 7642TIP3    H244342   4.655   4.479   1.676  0.2505 -1.3547  2.8740
 7643TIP3   OH244343   0.250   1.568   1.928 -0.1531  0.3071 -0.5781
 7643TIP3    H144344   0.283   1.648   1.968 -1.4016  0.3308  0.4397
 7643TIP3    H244345   0.327   1.510   1.925  0.8923  1.6678 -1.7966
 7644TIP3   OH244346   3.386   3.161   3.246  0.3047  0.0310 -0.1107
 7644TIP3    H144347   3.308   3.165   3.191 -0.6490 -3.1776  0.8445
 7644TIP3    H244348   3.451   3.212   3.198 -0.7966 -1.6359 -3.6601
 7645TIP3   OH244349   5.966   2.524   2.360 -0.5690 -0.2853 -0.4651
 7645TIP3    H144350   5.962   2.616   2.385 -1.5440  0.0475 -1.7374
 7645TIP3    H244351   5.988   2.478   2.442  1.1923  1.1515 -0.0690
 7646TIP3   OH244352   3.529   2.565   1.146 -0.0079  0.0780 -0.3127
 7646TIP3    H144353   3.570   2.651   1.155  0.1790  0.0515 -0.8724
 7646TIP3    H244354   3.596   2.510   1.106 -0.0528 -0.3927  0.2386
 7647TIP3   OH244355   3.548   4.106   0.084  0.3522  0.1421 -0.2763
 7647TIP3    H144356   3.514   4.195   0.075 -0.6625 -0.3493 -1.6200
 7647TIP3    H244357   3.557   4.074  -0.005  1.1287 -0.9621  0.1690
 7648TIP3   OH244358   1.290   0.317  13.751  0.0042  0.6115 -0.0943
 7648TIP3    H144359   1.228   0.327  13.824 -0.0829  0.4600 -0.1484
 7648TIP3    H244360   1.237   0.330  13.672 -0.1278 -0.3318 -0.1736
 7649TIP3   OH244361   4.483   1.120  11.810  0.3895 -0.0406 -0.1677
 7649TIP3    H144362   4.536   1.164  11.744  1.4706  1.9827  1.8665
 7649TIP3    H244363   4.547   1.073  11.864 -0.3000 -0.4997  0.2627
 7650TIP3   OH244364   6.781   1.532  11.681  0.1319  0.3457  0.2571
 7650TIP3    H144365   6.720   1.553  11.610 -0.1919  0.2839  0.5158
 7650TIP3    H244366   6.830   1.456  11.649  2.2074  2.1831 -1.2311
 7651TIP3   OH244367   0.893   1.839  16.165 -0.0938  0.1054 -0.2512
 7651TIP3    H144368   0.919   1.747  16.161 -1.0198 -0.1947  0.3381
 7651TIP3    H244369   0.877   1.863  16.074 -1.3493 -0.7706 -0.2793
 7652TIP3   OH244370   6.410   5.159  11.617 -0.0617  0.3634  0.2250
 7652TIP3    H144371   6.414   5.249  11.584 -0.4720  0.8107  1.3510
 7652TIP3    H244372   6.488   5.150  11.672  1.3083 -0.7910 -1.7968
 7653TIP3   OH244373   6.148   0.850  11.654 -0.0018 -0.0040  0.4496
 7653TIP3    H144374   6.073   0.819  11.604  0.3305  0.1632 -0.1710
 7653TIP3    H244375   6.174   0.775  11.708 -0.6466 -0.0414  0.7199
 7654TIP3   OH244376   1.421   4.637  15.309  0.8854 -0.5527  0.1178
 7654TIP3    H144377   1.425   4.629  15.213  2.2287 -2.0860  0.2575
 7654TIP3    H244378   1.512   4.630  15.337  0.3609 -1.9930  1.6235
 7655TIP3   OH244379   2.360   6.623  16.160  0.1479  0.1384  0.1150
 7655TIP3    H144380   2.452   6.608  16.136  0.6171  1.7328  0.7678
 7655TIP3    H244381   2.355   6.603  16.253  0.0375  0.8354  0.2653
 7656TIP3   OH244382   0.648   6.151  14.883  0.4155  0.1692  0.3359
 7656TIP3    H144383   0.701   6.074  14.863  1.2287  0.9848 -0.8067
 7656TIP3    H244384   0.647   6.156  14.978 -0.4642 -1.7725  0.4903
 7657TIP3   OH244385   1.161   0.354  12.739  0.4570  0.9679  0.0523
 7657TIP3    H144386   1.197   0.339  12.652  1.6003  4.2362 -0.1753
 7657TIP3    H244387   1.237   0.364  12.795 -0.2660 -0.2404  1.3044
 7658TIP3   OH244388   4.782   2.685   2.651 -0.6695  0.1995 -0.7134
 7658TIP3    H144389   4.741   2.771   2.637 -1.8842 -0.6258 -2.6472
 7658TIP3    H244390   4.807   2.656   2.564 -1.0662 -1.7800 -0.2130
 7659TIP3   OH244391   0.445   3.435   0.657 -0.7845  0.2377 -0.6565
 7659TIP3    H144392   0.495   3.385   0.721  1.0291 -1.2676 -3.0908
 7659TIP3    H244393   0.375   3.375   0.629 -0.2532  0.0459 -1.6164
 7660TIP3   OH244394   0.696   5.036   4.087 -0.0529 -0.2864  0.9768
 7660TIP3    H144395   0.784   5.032   4.050 -0.5232  0.3682 -0.3072
 7660TIP3    H244396   0.665   4.946   4.087  0.0650 -0.3474 -0.0615
 7661TIP3   OH244397   0.929   1.508  14.925  0.1929 -0.1047  0.4340
 7661TIP3    H144398   0.945   1.562  14.848  1.0389 -0.1426  0.5661
 7661TIP3    H244399   0.863   1.444  14.897 -1.7469  1.7146  0.6311
 7662TIP3   OH244400   4.250   1.515  17.083 -0.2287 -0.1029  0.4043
 7662TIP3    H144401   4.208   1.433  17.105 -0.2562 -0.3614 -0.5487
 7662TIP3    H244402   4.282   1.502  16.993 -0.7176  1.0961  0.0308
 7663TIP3   OH244403   1.660   6.352  10.833  0.4069  0.3697  0.3906
 7663TIP3    H144404   1.614   6.375  10.913  0.4397  1.1020  0.2099
 7663TIP3    H244405   1.644   6.426  10.774 -1.3012 -1.0028 -1.0166
 7664TIP3   OH244406   2.705   6.272  12.836 -1.1430 -0.1432  1.0558
 7664TIP3    H144407   2.712   6.285  12.930  0.7501  0.1919  0.9076
 7664TIP3    H244408   2.704   6.177  12.824  1.9828 -0.3037  1.3024
 7665TIP3   OH244409   1.984   1.953  17.104  0.2590 -0.6157 -0.0203
 7665TIP3    H144410   1.963   1.882  17.164  0.2978 -0.0243  0.7207
 7665TIP3    H244411   1.900   1.982  17.070  0.3083 -1.5513 -0.9712
 7666TIP3   OH244412   2.618   5.677  14.796 -0.2578  0.4912 -0.2182
 7666TIP3    H144413   2.554   5.721  14.740  0.6248 -0.6626 -2.2514
 7666TIP3    H244414   2.691   5.738  14.802 -0.8631  1.1408  0.7658
 7667TIP3   OH244415   4.915   4.661  13.115  0.0396 -0.4181  0.1800
 7667TIP3    H144416   4.959   4.723  13.056 -1.3397 -0.6517 -1.1628
 7667TIP3    H244417   4.950   4.576  13.089 -0.7550 -0.5486 -0.5315
 7668TIP3   OH244418   2.648   4.129   1.873 -0.3574  0.0645 -0.0299
 7668TIP3    H144419   2.693   4.109   1.955 -0.3170  1.0496  0.1990
 7668TIP3    H244420   2.718   4.127   1.807 -0.5619 -1.7972 -0.2434
 7669TIP3   OH244421   6.718   3.543  14.880  0.2256 -0.4790 -0.1305
 7669TIP3    H144422   6.656   3.471  14.875 -1.7498  1.2058 -1.9742
 7669TIP3    H244423   6.716   3.570  14.972 -0.5844 -1.4499  0.1561
 7670TIP3   OH244424   1.355   6.655  17.112 -0.2272  0.2012 -0.3733
 7670TIP3    H144425   1.330   6.697  17.194  2.0993  0.4164  0.2688
 7670TIP3    H244426   1.368   6.563  17.134 -1.6277 -0.1868 -0.9983
 7671TIP3   OH244427   3.761   5.396   2.735 -0.4328 -0.3107 -0.5276
 7671TIP3    H144428   3.726   5.307   2.742 -0.1679 -0.7832 -3.7274
 7671TIP3    H244429   3.840   5.395   2.788 -0.7363 -1.8041 -0.0643
 7672TIP3   OH244430   4.719   4.872   1.212  0.0271 -0.1722 -0.0655
 7672TIP3    H144431   4.686   4.934   1.147  0.1893  2.0067  1.7864
 7672TIP3    H244432   4.797   4.835   1.172 -0.8770 -0.3030 -1.8116
 7673TIP3   OH244433   5.316   1.071  11.057 -0.0899 -0.1406  0.9708
 7673TIP3    H144434   5.273   1.006  11.002  1.8928  0.1590 -1.0915
 7673TIP3    H244435   5.363   1.128  10.996  0.9169  1.2465  2.8918
 7674TIP3   OH244436   2.906   4.433  12.651  0.0506  0.0607  0.4852
 7674TIP3    H144437   2.889   4.377  12.576 -0.7957 -2.5627  2.4990
 7674TIP3    H244438   2.834   4.497  12.650 -0.9525 -1.0509  0.0354
 7675TIP3   OH244439   0.589   5.108  13.279  0.0956  0.3115  0.1121
 7675TIP3    H144440   0.578   5.016  13.303  1.7725  0.0254 -0.0591
 7675TIP3    H244441   0.607   5.152  13.362  0.3987  0.2734  0.0706
 7676TIP3   OH244442   5.661   5.395  15.376  0.3959 -0.1077 -0.0641
 7676TIP3    H144443   5.755   5.391  15.396  0.6493  0.9888 -0.9417
 7676TIP3    H244444   5.639   5.308  15.345  0.5952 -1.0643  2.2931
 7677TIP3   OH244445   6.114   2.818  16.395 -0.1765  0.4043  0.4785
 7677TIP3    H144446   6.132   2.911  16.382  1.4781  0.0233 -0.1290
 7677TIP3    H244447   6.121   2.780  16.308  1.0881 -0.5835  0.9892
 7678TIP3   OH244448   3.542   2.308   2.736  0.2376  0.4576  0.4020
 7678TIP3    H144449   3.542   2.368   2.811 -0.2005  0.9682 -0.0041
 7678TIP3    H244450   3.488   2.235   2.765  0.0237  0.6788  0.5711
 7679TIP3   OH244451   6.358   4.746   1.177  0.4145 -0.2281 -0.0988
 7679TIP3    H144452   6.390   4.835   1.164 -0.6130  0.3398  1.0213
 7679TIP3    H244453   6.421   4.691   1.131  1.5438  1.0114 -0.1101
 7680TIP3   OH244454   1.689   6.489  15.684  0.0620  0.2676  0.3970
 7680TIP3    H144455   1.782   6.472  15.700 -0.1698 -0.3964  1.1095
 7680TIP3    H244456   1.684   6.509  15.591  0.7126 -1.2258  0.0162
 7681TIP3   OH244457   5.009   1.537   4.590 -0.2425  0.2299 -0.0880
 7681TIP3    H144458   5.017   1.495   4.504 -0.3455  1.9044 -0.9386
 7681TIP3    H244459   5.036   1.469   4.652 -0.0910 -0.9843 -1.4362
 7682TIP3   OH244460   6.519   4.416   4.203  0.0555 -0.3683  0.0495
 7682TIP3    H144461   6.512   4.336   4.255  1.1138 -0.0811  0.6718
 7682TIP3    H244462   6.561   4.388   4.122  0.1918 -0.5003  0.1623
 7683TIP3   OH244463   0.376   1.518  16.401 -0.2985 -0.5550  0.1556
 7683TIP3    H144464   0.340   1.471  16.477 -0.7053  1.8562  1.5443
 7683TIP3    H244465   0.328   1.601  16.399  1.2172  0.3520 -1.4453
 7684TIP3   OH244466   4.425   2.677   1.701  0.5842 -0.0593  0.5275
 7684TIP3    H144467   4.442   2.705   1.791 -0.4707  1.0719  0.3912
 7684TIP3    H244468   4.447   2.753   1.647  1.6639 -0.8801 -0.2480
 7685TIP3   OH244469   4.814   5.248   2.880  0.0946 -0.1079  0.4171
 7685TIP3    H144470   4.882   5.310   2.852  0.4631 -1.3136 -1.5097
 7685TIP3    H244471   4.860   5.185   2.935  0.3450 -0.3185 -0.0237
 7686TIP3   OH244472   0.396   5.780  15.022  0.8005 -0.0204 -0.0997
 7686TIP3    H144473   0.364   5.723  15.092  0.5413  0.5569  0.2526
 7686TIP3    H244474   0.461   5.836  15.064  1.7741 -0.6957 -0.6551
 7687TIP3   OH244475   4.963   2.055  11.291 -0.1703 -0.1280  0.7061
 7687TIP3    H144476   4.953   2.077  11.383  1.1712 -1.7154  1.2706
 7687TIP3    H244477   5.057   2.059  11.275 -0.3942  0.2771 -0.6528
 7688TIP3   OH244478   3.466   1.634  16.991  0.0600  0.4435  0.6388
 7688TIP3    H144479   3.542   1.621  16.935  0.8995  2.4715  1.2108
 7688TIP3    H244480   3.408   1.690  16.939 -1.6101 -1.9118 -0.2152
 7689TIP3   OH244481   2.020   6.099   2.048  0.1530  0.3750  0.4573
 7689TIP3    H144482   2.060   6.157   2.113 -0.3117  1.1008  0.1115
 7689TIP3    H244483   2.042   6.138   1.963  0.7790 -0.5789  0.1584
 7690TIP3   OH244484   0.323   6.583  12.218  0.0062 -0.2948  0.1623
 7690TIP3    H144485   0.253   6.526  12.186 -0.6499  1.3203 -1.4565
 7690TIP3    H244486   0.403   6.548  12.178 -0.5651  0.5993 -1.9008
 7691TIP3   OH244487   0.356   1.387   0.732 -0.2167  0.2499 -0.0365
 7691TIP3    H144488   0.350   1.373   0.638  0.6465 -0.2908 -0.0239
 7691TIP3    H244489   0.266   1.386   0.763 -0.4310 -2.0994 -0.5232
 7692TIP3   OH244490   0.155   2.128  16.201  0.6908  0.2445  0.1041
 7692TIP3    H144491   0.229   2.072  16.225  1.1934  1.2614  1.0134
 7692TIP3    H244492   0.186   2.177  16.124  0.2598 -0.6698 -0.6760
 7693TIP3   OH244493   2.199   0.355   2.397 -0.2981 -0.2898  0.4034
 7693TIP3    H144494   2.149   0.431   2.367  0.6617 -0.2758 -1.2870
 7693TIP3    H244495   2.136   0.283   2.396 -1.2746  0.4686  2.2303
 7694TIP3   OH244496   6.484   0.042   5.316 -0.5555  0.0410  0.1069
 7694TIP3    H144497   6.576   0.059   5.299  0.1822 -2.1836  1.4564
 7694TIP3    H244498   6.445   0.128   5.327  1.2277  1.0464 -1.0057
 7695TIP3   OH244499   4.517   0.036  14.127  0.1821 -0.0370 -0.0330
 7695TIP3    H144500   4.516   0.038  14.031  0.3955 -1.5666 -0.0898
 7695TIP3    H244501   4.609   0.028  14.150  0.5045  3.5269  0.4629
 7696TIP3   OH244502   0.173   2.114  12.316  0.1686 -0.2408  0.4675
 7696TIP3    H144503   0.081   2.087  12.306 -0.8764  1.9754  3.0008
 7696TIP3    H244504   0.221   2.032  12.328 -1.1418 -1.5841 -2.3850
 7697TIP3   OH244505   4.925   2.777   5.288  0.3890  0.2876 -0.0636
 7697TIP3    H144506   4.883   2.823   5.215  2.2014  1.1631 -0.6320
 7697TIP3    H244507   4.960   2.847   5.343  1.5644 -0.3779  0.0652
 7698TIP3   OH244508   4.731   5.975  14.390 -0.4187  0.2613  0.1114
 7698TIP3    H144509   4.642   6.009  14.382 -0.7614 -0.8474 -1.1112
 7698TIP3    H244510   4.726   5.885  14.357  0.7472 -0.5210  1.8950
 7699TIP3   OH244511   6.052   4.452   1.552  0.3674  0.2823  0.4911
 7699TIP3    H144512   5.982   4.484   1.495  0.6654 -2.0796 -1.3388
 7699TIP3    H244513   6.103   4.393   1.497  2.9561  0.7453  2.1912
 7700TIP3   OH244514   5.394   1.767  11.518 -0.2386  0.1664  0.1004
 7700TIP3    H144515   5.452   1.732  11.451  1.2081  1.2462  0.7354
 7700TIP3    H244516   5.337   1.694  11.541 -1.3984 -0.0189 -2.8848
 7701TIP3   OH244517   5.641   6.067  13.333 -0.3262  0.2264  0.5129
 7701TIP3    H144518   5.569   6.069  13.395  0.2322  0.1109  1.1764
 7701TIP3    H244519   5.601   6.091  13.249 -1.2307 -0.3640  0.7651
 7702TIP3   OH244520   2.231   3.467   4.797  0.3511  0.0470 -0.6717
 7702TIP3    H144521   2.274   3.516   4.868 -1.2754  0.4086  0.1176
 7702TIP3    H244522   2.246   3.375   4.819  1.1883  0.1563 -0.7315
 7703TIP3   OH244523   5.758   4.252  14.418  0.1316 -0.0688 -0.1274
 7703TIP3    H144524   5.817   4.237  14.492 -2.7839  0.2730  2.4671
 7703TIP3    H244525   5.796   4.200  14.347  1.3044 -3.3319  2.5831
 7704TIP3   OH244526   6.661   2.885   3.912 -0.7641 -0.3352  0.3871
 7704TIP3    H144527   6.695   2.806   3.870  0.7749  1.3043 -1.6630
 7704TIP3    H244528   6.568   2.885   3.889 -0.7739 -1.4685  0.3358
 7705TIP3   OH244529   2.772   6.355  14.302 -0.4532 -0.2068 -0.1582
 7705TIP3    H144530   2.798   6.314  14.220 -1.1048 -0.8140 -0.0698
 7705TIP3    H244531   2.852   6.354  14.355 -0.3751 -1.1139 -0.2677
 7706TIP3   OH244532   1.014   2.508  12.099 -0.1641 -0.1784 -0.1277
 7706TIP3    H144533   0.931   2.513  12.051 -0.9135 -1.0195  1.0214
 7706TIP3    H244534   1.018   2.417  12.130  0.7261  0.1049  0.6337
 7707TIP3   OH244535   2.577   2.945   2.564 -0.2764 -0.2096 -0.0865
 7707TIP3    H144536   2.645   2.915   2.504 -0.5605  1.8024 -1.5442
 7707TIP3    H244537   2.622   2.960   2.647  1.0702  0.9504 -0.9853
 7708TIP3   OH244538   2.616   2.081  13.644  0.3107 -0.5920  0.0808
 7708TIP3    H144539   2.684   2.132  13.600 -1.1909  1.4224 -0.0287
 7708TIP3    H244540   2.588   2.017  13.579  1.9453 -1.3582  0.0791
 7709TIP3   OH244541   3.865   4.878   3.911  0.6055  0.3640 -0.0156
 7709TIP3    H144542   3.893   4.965   3.939  1.5334 -0.0331  0.3204
 7709TIP3    H244543   3.946   4.827   3.908  0.2088 -0.2191 -1.1956
 7710TIP3   OH244544   3.544   1.938  11.896 -0.3254  0.0116 -0.0476
 7710TIP3    H144545   3.544   1.843  11.881  0.8393  0.0824 -0.5817
 7710TIP3    H244546   3.554   1.976  11.808 -1.8033  0.6709  0.0433
 7711TIP3   OH244547   2.134   6.291   2.284  0.2395  0.3947 -0.3807
 7711TIP3    H144548   2.209   6.327   2.238  1.0386  1.1688  1.4054
 7711TIP3    H244549   2.058   6.326   2.237  0.9864  0.5734 -1.4995
 7712TIP3   OH244550   4.693   3.158  13.943 -0.6535  0.0672  0.3084
 7712TIP3    H144551   4.772   3.104  13.942 -1.3995 -1.0433  0.0115
 7712TIP3    H244552   4.698   3.209  13.863 -0.1861  0.0851  0.3429
 7713TIP3   OH244553   4.639   2.800   2.272  0.2729  0.1658 -0.0637
 7713TIP3    H144554   4.718   2.803   2.217 -0.3570 -0.6413 -1.0530
 7713TIP3    H244555   4.582   2.737   2.227 -1.5033  1.7508 -0.1238
 7714TIP3   OH244556   2.536   2.364   0.702 -0.0971  0.1000  0.0872
 7714TIP3    H144557   2.482   2.324   0.635  0.5033 -1.2069  0.3409
 7714TIP3    H244558   2.598   2.419   0.654 -0.4461  0.1307 -0.3288
 7715TIP3   OH244559   0.551   5.468   1.267 -0.2412  0.0604 -0.0437
 7715TIP3    H144560   0.541   5.558   1.298  1.1234  0.1279  0.2602
 7715TIP3    H244561   0.645   5.450   1.273 -0.7533 -2.5422  3.1134
 7716TIP3   OH244562   6.052   0.944   1.457  0.2967  0.7937  0.0980
 7716TIP3    H144563   5.976   1.001   1.450 -0.1271  0.4635  1.5233
 7716TIP3    H244564   6.115   0.995   1.508 -0.4285 -0.2426  2.2039
 7717TIP3   OH244565   6.243   5.040  11.383 -0.4750 -0.3342  0.0553
 7717TIP3    H144566   6.151   5.012  11.382 -0.0178 -1.9266 -0.4927
 7717TIP3    H244567   6.264   5.050  11.476 -1.5671  1.4320  0.1613
 7718TIP3   OH244568   1.218   1.914  14.760  0.1271 -0.2101  0.2335
 7718TIP3    H144569   1.183   1.867  14.684  0.6424  0.5016 -0.4658
 7718TIP3    H244570   1.260   1.846  14.813  0.7392 -0.5805 -0.6845
 7719TIP3   OH244571   5.786   2.500   2.624 -0.0027 -0.2628  0.0708
 7719TIP3    H144572   5.734   2.565   2.575  1.6744  0.8923 -0.2462
 7719TIP3    H244573   5.740   2.492   2.708 -1.7004 -0.6398 -0.8367
 7720TIP3   OH244574   6.265   4.332   2.685  0.9085 -0.3024  0.1925
 7720TIP3    H144575   6.181   4.294   2.709  0.6161 -0.4785 -1.0193
 7720TIP3    H244576   6.330   4.272   2.723  0.4597 -1.7535 -1.1820
 7721TIP3   OH244577   4.247   1.550   0.682  0.2116  0.1325  0.0584
 7721TIP3    H144578   4.315   1.608   0.713 -0.4133  1.2458 -0.6019
 7721TIP3    H244579   4.210   1.511   0.762 -1.1791  2.7104  0.7899
 7722TIP3   OH244580   5.047   0.235   4.895  0.3414 -0.2191 -0.4343
 7722TIP3    H144581   5.132   0.270   4.923  1.3436 -1.8522 -1.2487
 7722TIP3    H244582   4.984   0.274   4.955  1.7578  0.4603  0.6833
 7723TIP3   OH244583   2.035   6.083  15.864  0.3177 -0.2728  0.7075
 7723TIP3    H144584   2.068   6.095  15.953 -0.1621 -1.1041  1.0185
 7723TIP3    H244585   1.964   6.019  15.874 -0.8773  0.8755 -0.0341
 7724TIP3   OH244586   6.538   5.601  16.574  0.5399  0.2287  0.4758
 7724TIP3    H144587   6.533   5.520  16.625  0.8592  0.1635  0.4077
 7724TIP3    H244588   6.536   5.571  16.483  0.5682  0.3022  0.4512
 7725TIP3   OH244589   6.248   3.255  15.104 -0.8469 -0.5835  0.1373
 7725TIP3    H144590   6.173   3.312  15.120 -0.5692 -0.5090  1.3082
 7725TIP3    H244591   6.324   3.313  15.110 -0.5867 -0.9832  0.9587
 7726TIP3   OH244592   4.909   6.446   5.021 -0.1882 -0.8437 -0.0859
 7726TIP3    H144593   4.819   6.436   4.991 -0.4383  2.4097 -0.8273
 7726TIP3    H244594   4.905   6.517   5.085  1.8071 -0.7521  0.0054
 7727TIP3   OH244595   4.953   4.576   0.575  0.0789  0.5229  0.1305
 7727TIP3    H144596   4.947   4.492   0.529  0.1567 -0.1975  1.4097
 7727TIP3    H244597   4.959   4.553   0.667  2.0535  1.8676  0.3976
 7728TIP3   OH244598   6.322   6.559  14.949 -0.4291 -0.1542 -0.4351
 7728TIP3    H144599   6.257   6.584  15.014  0.2363 -2.6534  1.3864
 7728TIP3    H244600   6.402   6.603  14.977 -0.2194 -0.9771  0.3119
 7729TIP3   OH244601   3.743   4.805  16.296  0.2477  0.0171  0.1394
 7729TIP3    H144602   3.776   4.745  16.362  1.9373  0.6809 -0.0431
 7729TIP3    H244603   3.694   4.749  16.235  1.6462 -1.1683  0.0470
 7730TIP3   OH244604   6.356   1.361   3.433 -0.2786 -0.0255 -0.0372
 7730TIP3    H144605   6.302   1.301   3.484 -0.0974 -0.6542 -0.5691
 7730TIP3    H244606   6.386   1.425   3.496  0.9048 -1.4544  0.9270
 7731TIP3   OH244607   4.193   4.770   1.645  0.2296 -0.2164  0.4030
 7731TIP3    H144608   4.103   4.760   1.675 -0.2379  1.0795 -0.4773
 7731TIP3    H244609   4.236   4.820   1.715 -0.0199  0.0824  0.3442
 7732TIP3   OH244610   5.064   3.917  15.976  0.1408 -0.1849 -0.5294
 7732TIP3    H144611   5.142   3.909  15.922  1.7358  1.1112  1.4159
 7732TIP3    H244612   5.094   3.899  16.065 -2.3201 -2.0776  0.0469
 7733TIP3   OH244613   4.794   3.594   3.727 -0.1891 -0.1402 -0.1846
 7733TIP3    H144614   4.839   3.647   3.792  0.3935 -2.1538  1.1326
 7733TIP3    H244615   4.802   3.644   3.645  0.3345  1.7365  0.9669
 7734TIP3   OH244616   4.882   1.132   0.541 -0.8430  0.0221 -0.0504
 7734TIP3    H144617   4.810   1.194   0.527 -1.2424 -0.9414 -2.7098
 7734TIP3    H244618   4.839   1.048   0.554 -0.2501 -0.0105  2.2173
 7735TIP3   OH244619   2.768   5.289  14.738  0.1302  0.9610 -0.8077
 7735TIP3    H144620   2.742   5.277  14.830 -2.2288 -4.0637 -1.8067
 7735TIP3    H244621   2.858   5.258  14.734  0.0027  0.5186 -0.2962
 7736TIP3   OH244622   5.595   2.082   3.031 -0.3766  0.1600 -0.0644
 7736TIP3    H144623   5.568   2.034   2.953  0.6647 -1.9318  0.7803
 7736TIP3    H244624   5.515   2.090   3.083 -1.2995  2.4009 -1.6579
 7737TIP3   OH244625   3.631   2.440   3.089  0.2021 -0.2883 -0.2425
 7737TIP3    H144626   3.655   2.480   3.172  1.9735  1.2516 -1.4136
 7737TIP3    H244627   3.641   2.346   3.104 -0.6584 -0.1361  1.5764
 7738TIP3   OH244628   3.380   3.400   2.455 -0.0116 -0.2853 -0.0563
 7738TIP3    H144629   3.303   3.402   2.513  1.4180 -1.9712  2.0642
 7738TIP3    H244630   3.447   3.448   2.503  0.7301 -0.2013 -1.1518
 7739TIP3   OH244631   1.148   3.271   5.963  0.0645 -0.0406  0.8239
 7739TIP3    H144632   1.129   3.332   6.034 -0.2378  0.0941  0.6312
 7739TIP3    H244633   1.150   3.327   5.885  2.3844  0.1661  0.9565
 7740TIP3   OH244634   2.425   3.696   5.337  0.0088 -0.7423  0.5244
 7740TIP3    H144635   2.495   3.658   5.390  0.6968  0.4977  0.5423
 7740TIP3    H244636   2.380   3.756   5.397 -0.0241 -0.2994  0.0632
 7741TIP3   OH244637   5.859   5.089  13.148 -0.6009  0.4509  0.0463
 7741TIP3    H144638   5.768   5.059  13.142 -0.9440  1.5434 -0.4432
 7741TIP3    H244639   5.903   5.048  13.074 -0.7946  0.2767  0.0257
 7742TIP3   OH244640   4.691   0.715   1.087 -0.1288  0.1926 -0.6876
 7742TIP3    H144641   4.664   0.646   1.026 -0.3554  0.1038 -0.4899
 7742TIP3    H244642   4.611   0.738   1.134  0.2305 -0.4813  0.3080
 7743TIP3   OH244643   0.362   4.334   3.508 -0.3895 -0.3914 -0.4081
 7743TIP3    H144644   0.388   4.247   3.538  3.1701  0.6782  0.0415
 7743TIP3    H244645   0.292   4.360   3.568 -0.2907 -2.2377  0.5736
 7744TIP3   OH244646   6.139   5.026  17.050 -0.1939  0.1966 -0.4176
 7744TIP3    H144647   6.210   4.975  17.011  1.1260  1.9594 -0.4653
 7744TIP3    H244648   6.114   4.976  17.127  2.2701  0.2625  0.5439
 7745TIP3   OH244649   6.668   6.166  16.033 -0.5312  0.0475  0.2840
 7745TIP3    H144650   6.595   6.197  15.979 -0.8807 -0.9456  0.1586
 7745TIP3    H244651   6.650   6.200  16.120 -1.3440 -0.4974  0.3320
 7746TIP3   OH244652   3.758   5.304   4.849  0.0486 -0.4748  0.1522
 7746TIP3    H144653   3.772   5.209   4.851 -0.2159 -0.6219 -2.0902
 7746TIP3    H244654   3.841   5.340   4.817 -0.7933 -0.2760 -1.9420
 7747TIP3   OH244655   0.741   1.078  11.026  0.0089  0.1015  0.3698
 7747TIP3    H144656   0.800   1.133  11.077 -1.8498  2.3504  0.2784
 7747TIP3    H244657   0.762   1.098  10.935  0.8859 -1.1417  0.2892
 7748TIP3   OH244658   1.725   6.785   6.079 -0.1856 -0.0505  0.1790
 7748TIP3    H144659   1.630   6.790   6.094 -0.5451  0.4256 -1.8959
 7748TIP3    H244660   1.736   6.703   6.031  0.9450 -1.7631  3.0803
 7749TIP3   OH244661   5.910   6.799   5.349  0.1044 -0.1416 -0.4796
 7749TIP3    H144662   5.850   6.726   5.336 -1.5492  0.8950  0.8488
 7749TIP3    H244663   5.997   6.760   5.344 -0.7265 -2.1999  0.1196
 7750TIP3   OH244664   5.815   2.608  15.161  0.1712  0.3308 -0.3210
 7750TIP3    H144665   5.837   2.633  15.250  1.6591  0.5483 -0.7187
 7750TIP3    H244666   5.890   2.556  15.131  0.4211  1.5118 -1.9311
 7751TIP3   OH244667   4.183   4.535   5.091  0.4788 -0.5788 -0.3655
 7751TIP3    H144668   4.128   4.600   5.048  0.3742 -1.2909 -1.3417
 7751TIP3    H244669   4.122   4.472   5.128  0.5983 -0.4497  0.0644
 7752TIP3   OH244670   1.588   3.372   4.863  0.1719 -0.2613 -0.3730
 7752TIP3    H144671   1.649   3.307   4.828 -1.6886 -2.4872  0.3039
 7752TIP3    H244672   1.589   3.443   4.799  1.3504 -1.5145 -1.8078
 7753TIP3   OH244673   0.969   0.935  16.003 -0.6513  0.2688 -0.1053
 7753TIP3    H144674   0.958   0.937  16.098  1.6584 -0.0850  0.2441
 7753TIP3    H244675   0.954   0.844  15.979 -2.9511  0.6787 -0.3816
 7754TIP3   OH244676   2.581   3.272   5.885 -0.7720 -0.3421  0.1541
 7754TIP3    H144677   2.529   3.291   5.963  0.5509 -1.7506  1.4546
 7754TIP3    H244678   2.642   3.345   5.879 -1.1370 -0.0322  0.2027
 7755TIP3   OH244679   1.663   4.964  12.879  0.4353  0.2858  0.0800
 7755TIP3    H144680   1.634   4.993  12.792  0.7460 -1.7158 -0.7619
 7755TIP3    H244681   1.623   5.025  12.940 -0.0870  1.5366 -1.4573
 7756TIP3   OH244682   0.543   1.088   1.299 -0.1198 -0.2045 -0.1744
 7756TIP3    H144683   0.481   1.043   1.242  1.3663 -1.4958 -0.8357
 7756TIP3    H244684   0.624   1.038   1.291  0.6140  0.5567  1.8079
 7757TIP3   OH244685   4.303   0.736   0.241  0.0906 -0.5007 -0.3802
 7757TIP3    H144686   4.312   0.725   0.146 -0.0175  2.2655 -0.7882
 7757TIP3    H244687   4.299   0.831   0.254  1.5278 -0.7289  2.5420
 7758TIP3   OH244688   0.640   3.960   4.857  0.1162 -0.3150  0.2143
 7758TIP3    H144689   0.625   4.046   4.896  0.4252 -0.4742  0.6939
 7758TIP3    H244690   0.578   3.955   4.784 -2.3571 -1.0225  2.2118
 7759TIP3   OH244691   4.831   2.972   0.054 -0.2618 -0.3734 -0.6765
 7759TIP3    H144692   4.840   3.053   0.105 -1.3611  0.1271 -1.2429
 7759TIP3    H244693   4.739   2.949   0.064  0.1532 -1.8506 -0.1004
 7760TIP3   OH244694   0.742   4.897   3.055 -0.6139 -0.0851 -0.7788
 7760TIP3    H144695   0.804   4.921   2.985  0.3778 -2.1662 -0.7227
 7760TIP3    H244696   0.673   4.849   3.010 -0.2992 -0.8809 -0.4384
 7761TIP3   OH244697   1.095   3.445   3.652 -0.1150 -0.1738  0.0665
 7761TIP3    H144698   1.126   3.446   3.743  0.8306  0.4094 -0.2558
 7761TIP3    H244699   1.174   3.438   3.599 -0.7118 -1.3317 -0.7042
 7762TIP3   OH244700   4.979   5.900  15.656 -0.5665  0.0899  0.2964
 7762TIP3    H144701   4.950   5.955  15.584  0.5294  0.3183  0.0076
 7762TIP3    H244702   4.940   5.815  15.638 -4.2993  1.2272  2.0140
 7763TIP3   OH244703   4.976   2.785   4.010 -0.1594 -0.0121 -0.8427
 7763TIP3    H144704   4.884   2.769   3.989 -0.6656 -0.5092  1.3834
 7763TIP3    H244705   4.981   2.771   4.105  2.2181  0.0236 -0.9005
 7764TIP3   OH244706   0.422   2.712  15.035 -1.0220  0.1120 -0.1805
 7764TIP3    H144707   0.342   2.741  15.078  0.1466  0.2251  2.0670
 7764TIP3    H244708   0.446   2.786  14.978 -1.6917  0.7246  0.3100
 7765TIP3   OH244709   0.247   2.166  17.176 -0.5976  0.4817 -0.4523
 7765TIP3    H144710   0.240   2.129  17.264 -2.3885  1.3728 -0.1712
 7765TIP3    H244711   0.244   2.090  17.118 -0.9640 -0.0297  0.2139
 7766TIP3   OH244712   0.423   5.427   1.516 -0.5699 -0.2825 -0.8307
 7766TIP3    H144713   0.401   5.516   1.546 -2.7020  0.1895 -3.4540
 7766TIP3    H244714   0.486   5.441   1.446  1.0784 -1.0874  0.4272
 7767TIP3   OH244715   3.290   3.185  14.836 -0.1707 -0.5211 -0.1204
 7767TIP3    H144716   3.354   3.219  14.899 -0.3860 -2.3389  1.1775
 7767TIP3    H244717   3.302   3.090  14.839 -1.9893 -0.8225 -0.8512
 7768TIP3   OH244718   1.644   1.179   0.587 -0.0034  0.5370  0.6496
 7768TIP3    H144719   1.702   1.254   0.592 -0.6289  1.0487  0.3849
 7768TIP3    H244720   1.615   1.165   0.678 -0.4426  1.0712  0.5999
 7769TIP3   OH244721   3.497   3.481  14.145 -0.1286 -0.4229 -0.2795
 7769TIP3    H144722   3.425   3.518  14.095 -0.8713 -0.7782  0.4996
 7769TIP3    H244723   3.522   3.402  14.098 -0.4696 -0.4733 -0.3760
 7770TIP3   OH244724   6.694   1.867  14.357  0.3605  0.7433  0.1325
 7770TIP3    H144725   6.678   1.941  14.300 -1.6338 -0.3420 -0.8211
 7770TIP3    H244726   6.609   1.848  14.397  0.9018 -0.7518  0.6649
 7771TIP3   OH244727   1.159   4.893   4.446  0.1088 -0.7429 -0.1483
 7771TIP3    H144728   1.231   4.956   4.449 -0.6603  0.1344  0.5603
 7771TIP3    H244729   1.119   4.905   4.361  0.1158 -0.4548 -0.1094
 7772TIP3   OH244730   5.731   6.189  12.661  0.0449 -0.1866  0.6410
 7772TIP3    H144731   5.723   6.270  12.710 -1.8811 -0.4841  0.8810
 7772TIP3    H244732   5.712   6.120  12.725  1.3293 -0.8306  0.3690
 7773TIP3   OH244733   4.789   2.138   1.400 -0.0424 -0.0923 -0.4473
 7773TIP3    H144734   4.871   2.142   1.351  0.9877 -1.2704  1.1087
 7773TIP3    H244735   4.764   2.046   1.400 -0.9360  0.1339 -0.2081
 7774TIP3   OH244736   0.608   1.969  12.918  0.0320  0.4841 -0.3582
 7774TIP3    H144737   0.530   1.940  12.870  1.2537 -2.4016 -0.8041
 7774TIP3    H244738   0.627   1.897  12.979  2.4007  1.0372 -0.3425
 7775TIP3   OH244739   1.928   4.934   2.858  0.1529 -0.6361 -0.8969
 7775TIP3    H144740   1.995   4.925   2.927 -0.9258 -0.0508  0.2689
 7775TIP3    H244741   1.905   4.843   2.837 -0.1988 -0.8351  0.2389
 7776TIP3   OH244742   0.797   6.177   2.445  0.5898 -0.5772  0.0647
 7776TIP3    H144743   0.867   6.112   2.450  1.4139  0.3195  0.4802
 7776TIP3    H244744   0.804   6.228   2.526 -0.0681 -0.0017 -0.2202
 7777TIP3   OH244745   5.880   6.565  11.470  0.1971 -0.0152  0.0960
 7777TIP3    H144746   5.799   6.585  11.424  0.4110  0.7745  0.0485
 7777TIP3    H244747   5.871   6.606  11.556  0.8585  0.7623 -0.1941
 7778TIP3   OH244748   5.944   4.458  16.423  0.2715 -0.1950  0.4425
 7778TIP3    H144749   5.997   4.496  16.493  0.7522 -2.4361  1.3724
 7778TIP3    H244750   5.952   4.364  16.436 -1.1323 -0.6320 -1.5424
 7779TIP3   OH244751   2.153   3.964   1.838 -0.1666  0.1907  0.4058
 7779TIP3    H144752   2.208   3.934   1.765 -0.2279 -2.5698  1.3515
 7779TIP3    H244753   2.213   4.010   1.896  0.1283  1.3511 -0.7803
 7780TIP3   OH244754   0.802   0.619   5.208  0.4378  0.2264  0.1700
 7780TIP3    H144755   0.837   0.656   5.126  0.1334  0.0708 -0.0344
 7780TIP3    H244756   0.707   0.634   5.202  0.4267  0.3166  0.5487
 7781TIP3   OH244757   4.563   1.423  16.607  0.5823  0.0687 -0.0029
 7781TIP3    H144758   4.631   1.464  16.553  1.9643 -1.2688  0.6289
 7781TIP3    H244759   4.594   1.433  16.697 -0.5507  0.2751  0.3806
 7782TIP3   OH244760   2.404   4.009   0.474 -0.0703 -0.6828 -0.1636
 7782TIP3    H144761   2.389   3.915   0.467 -2.3309 -0.3767  0.0967
 7782TIP3    H244762   2.336   4.048   0.420 -0.5428  0.8641  1.4687
 7783TIP3   OH244763   6.654   6.537   6.230  0.2801 -0.3357  0.4037
 7783TIP3    H144764   6.669   6.619   6.276  1.3109 -0.6610  0.6695
 7783TIP3    H244765   6.592   6.489   6.285 -0.0938  0.1259  0.3945
 7784TIP3   OH244766   6.575   0.419  15.046  0.0521  0.1629  0.0963
 7784TIP3    H144767   6.657   0.395  15.002  0.7351  0.8410  0.9757
 7784TIP3    H244768   6.507   0.403  14.980  1.0779  1.4909 -1.3484
 7785TIP3   OH244769   0.453   6.457  16.306 -0.0947 -0.2847  0.1846
 7785TIP3    H144770   0.499   6.505  16.237 -2.0748  0.9635 -0.3513
 7785TIP3    H244771   0.424   6.525  16.367 -0.3572 -1.1397  1.0383
 7786TIP3   OH244772   4.766   3.025   2.323 -0.3791  0.0485 -0.6027
 7786TIP3    H144773   4.769   3.010   2.418 -0.6016 -0.5184 -0.6830
 7786TIP3    H244774   4.719   2.949   2.288  0.5454 -0.2303 -1.2724
 7787TIP3   OH244775   4.488   6.325   2.817  0.1591 -0.0094 -0.1854
 7787TIP3    H144776   4.518   6.343   2.906  0.2521  1.0086 -0.4101
 7787TIP3    H244777   4.430   6.399   2.796  1.1336  0.4284 -1.4220
 7788TIP3   OH244778   1.666   6.286  14.760  1.0512  0.1538 -1.1969
 7788TIP3    H144779   1.653   6.223  14.690 -0.7394 -0.9325  0.0121
 7788TIP3    H244780   1.724   6.242  14.822 -2.2242 -1.6304  0.9383
 7789TIP3   OH244781   3.515   0.678  11.557 -0.3474  0.3847  0.2476
 7789TIP3    H144782   3.439   0.732  11.535 -0.5930  0.4161  1.1268
 7789TIP3    H244783   3.580   0.700  11.490  0.0628  2.8351  1.3440
 7790TIP3   OH244784   1.324   1.003  12.188 -0.0122  0.0437  0.0645
 7790TIP3    H144785   1.349   0.925  12.139  0.4158 -0.1493  0.5768
 7790TIP3    H244786   1.245   1.035  12.144  0.1322 -0.3494 -0.4964
 7791TIP3   OH244787   1.800   6.056   0.266 -0.5894 -0.7716  0.1865
 7791TIP3    H144788   1.818   6.070   0.173 -0.5224  0.7462  0.4090
 7791TIP3    H244789   1.835   6.133   0.309  0.1816 -1.8796  1.5942
 7792TIP3   OH244790   4.825   6.487   5.401  0.0866  0.1522 -0.0812
 7792TIP3    H144791   4.784   6.486   5.315 -1.1626  0.3953  0.5041
 7792TIP3    H244792   4.785   6.560   5.447  0.3857 -0.2730  0.8850
 7793TIP3   OH244793   3.398   1.490  12.857  0.1158  0.2104  0.1146
 7793TIP3    H144794   3.474   1.544  12.878  0.1783 -0.3150  1.3246
 7793TIP3    H244795   3.323   1.548  12.869  0.1759  0.0510  1.4879
 7794TIP3   OH244796   1.668   1.249   2.006  0.0880  0.4901 -0.4588
 7794TIP3    H144797   1.704   1.195   1.936  0.6342 -0.7821  0.7429
 7794TIP3    H244798   1.744   1.296   2.042  0.0182  0.2511  0.0131
 7795TIP3   OH244799   5.917   3.131  15.879 -0.8384  0.1361 -0.3788
 7795TIP3    H144800   5.976   3.187  15.829 -1.0329  1.1068  0.4361
 7795TIP3    H244801   5.870   3.080  15.814 -0.5351  0.8024 -1.1324
 7796TIP3   OH244802   5.675   3.358  11.039 -0.6200  0.2041  0.1497
 7796TIP3    H144803   5.757   3.407  11.034 -0.7223  0.4796  1.0072
 7796TIP3    H244804   5.638   3.382  11.124 -0.9352 -0.9516  0.3554
 7797TIP3   OH244805   1.268   5.351   1.214  0.2622  0.4269 -0.2397
 7797TIP3    H144806   1.196   5.288   1.219  1.8211 -1.4421 -0.0725
 7797TIP3    H244807   1.321   5.322   1.139  1.7667  0.6752  0.6729
 7798TIP3   OH244808   3.132   5.282  12.660 -0.1128  0.2077  0.5603
 7798TIP3    H144809   3.100   5.224  12.729  0.0523 -1.2591 -0.5565
 7798TIP3    H244810   3.212   5.240  12.629  0.0793  1.1137 -0.2061
 7799TIP3   OH244811   2.807   1.179   4.913  0.2277  0.2935 -0.1728
 7799TIP3    H144812   2.848   1.239   4.851 -0.2814  0.2342 -0.5720
 7799TIP3    H244813   2.873   1.167   4.981  0.9277  0.1142 -0.8612
 7800TIP3   OH244814   3.373   5.124   5.948  0.0420  1.0274  0.0058
 7800TIP3    H144815   3.351   5.141   6.039 -0.3057 -0.9337  0.3304
 7800TIP3    H244816   3.468   5.115   5.947  0.0299  0.8778  0.2111
 7801TIP3   OH244817   1.944   3.850  15.813  0.2443 -0.0858  0.4729
 7801TIP3    H144818   1.945   3.757  15.794  2.4795 -0.0455  0.1279
 7801TIP3    H244819   1.852   3.876  15.801 -0.2363 -2.0077 -0.4340
 7802TIP3   OH244820   5.621   0.283  13.558 -0.5458 -0.6205  0.1156
 7802TIP3    H144821   5.575   0.262  13.639 -1.1408  0.2787  0.0239
 7802TIP3    H244822   5.712   0.293  13.584 -0.5634 -1.3588  0.4854
 7803TIP3   OH244823   3.611   3.534  14.405  0.1357  0.5249  0.9044
 7803TIP3    H144824   3.556   3.505  14.333  1.5880  0.1771 -0.1258
 7803TIP3    H244825   3.553   3.536  14.481 -1.5100  1.1761 -0.3086
 7804TIP3   OH244826   2.326   6.372  12.203  0.9825 -0.3799 -0.3276
 7804TIP3    H144827   2.245   6.342  12.244  0.6978 -0.0650 -0.6589
 7804TIP3    H244828   2.369   6.291  12.174  0.7721 -0.5466 -0.1811
 7805TIP3   OH244829   0.866   4.301  14.136  0.1034 -0.4972  0.1007
 7805TIP3    H144830   0.909   4.252  14.067 -1.4262  1.6480 -2.5533
 7805TIP3    H244831   0.938   4.337  14.189  1.3204 -1.8671 -0.5702
 7806TIP3   OH244832   3.631   2.012   4.991  0.2720  0.1480  0.4000
 7806TIP3    H144833   3.642   2.087   4.933 -1.4248  0.8082  0.8678
 7806TIP3    H244834   3.643   1.936   4.935  1.7253  0.7464 -0.1401
 7807TIP3   OH244835   2.618   1.304  13.827  0.4852  0.0788  0.5527
 7807TIP3    H144836   2.575   1.388  13.841 -0.0616 -0.0715 -0.1591
 7807TIP3    H244837   2.672   1.291  13.905  2.3719  2.1611 -0.2777
 7808TIP3   OH244838   5.293   5.091   3.177  0.3061 -0.0384  0.0750
 7808TIP3    H144839   5.225   5.149   3.213 -0.9580 -0.6590 -1.2281
 7808TIP3    H244840   5.340   5.060   3.254 -0.8925  0.4087  1.0263
 7809TIP3   OH244841   4.761   3.327   5.991 -0.1537 -0.2102 -0.3259
 7809TIP3    H144842   4.843   3.374   5.972 -0.7876  0.2638 -2.1274
 7809TIP3    H244843   4.729   3.366   6.072  1.0260  0.1088  0.0141
 7810TIP3   OH244844   0.542   2.899   1.549 -0.0915 -0.4403 -0.0265
 7810TIP3    H144845   0.478   2.888   1.619  0.3919  0.9698  0.6686
 7810TIP3    H244846   0.566   2.810   1.524 -1.0527 -0.9726  0.8700
 7811TIP3   OH244847   6.109   3.217   5.347 -0.7381 -0.5701 -0.1615
 7811TIP3    H144848   6.179   3.200   5.284 -0.6879  2.5103 -1.1421
 7811TIP3    H244849   6.154   3.239   5.429 -0.6727 -1.2872 -0.0043
 7812TIP3   OH244850   1.263   3.253  11.913 -0.1877 -0.4453  0.1649
 7812TIP3    H144851   1.301   3.215  11.834 -0.9947  1.7836 -1.4332
 7812TIP3    H244852   1.333   3.305  11.951 -0.2744 -0.1349 -0.0915
 7813TIP3   OH244853   5.668   4.216  16.042  0.3415 -0.2679  0.2384
 7813TIP3    H144854   5.649   4.298  15.997  1.7361 -0.8623 -1.5223
 7813TIP3    H244855   5.640   4.232  16.133 -0.5691  1.6965 -0.3317
 7814TIP3   OH244856   0.382   3.491   4.967  0.0317 -0.1755 -0.6318
 7814TIP3    H144857   0.398   3.460   5.056  2.0077  0.6425 -0.6563
 7814TIP3    H244858   0.467   3.484   4.923 -0.3971  1.4440 -1.8227
 7815TIP3   OH244859   1.986   2.737  10.839 -1.0957 -0.5986 -0.6863
 7815TIP3    H144860   1.935   2.756  10.760  0.6087  0.0107 -1.7012
 7815TIP3    H244861   2.016   2.823  10.868 -0.8197 -0.9241 -0.0051
 7816TIP3   OH244862   2.564   3.102  13.728  0.1932  0.2625  0.0026
 7816TIP3    H144863   2.500   3.172  13.740  1.8115  1.8497 -0.2204
 7816TIP3    H244864   2.562   3.083  13.635  0.9591  1.2511 -0.2284
 7817TIP3   OH244865   6.561   6.011   3.753  0.1140 -0.2305  0.6753
 7817TIP3    H144866   6.520   5.933   3.714  2.2339 -0.3832 -1.4305
 7817TIP3    H244867   6.520   6.018   3.839 -2.4792 -1.7759 -0.3136
 7818TIP3   OH244868   6.440   6.089  16.474  0.3631  0.2963 -0.6347
 7818TIP3    H144869   6.413   6.178  16.498  1.2168 -0.0191  1.7498
 7818TIP3    H244870   6.422   6.083  16.380  1.1982  3.3177 -1.1003
 7819TIP3   OH244871   0.044   5.020   3.845 -0.0955  0.0253  0.3989
 7819TIP3    H144872   0.087   5.093   3.801 -0.8801  0.3795  0.1942
 7819TIP3    H244873   0.073   5.026   3.936 -1.7388  1.8902  0.8842
 7820TIP3   OH244874   3.792   1.163   1.923  0.7357 -0.5122 -0.1951
 7820TIP3    H144875   3.814   1.234   1.983  1.1537 -0.4973 -0.3589
 7820TIP3    H244876   3.722   1.115   1.967  2.4764 -1.8167  1.3559
 7821TIP3   OH244877   3.595   4.545  14.426 -0.1117 -0.0016 -0.0058
 7821TIP3    H144878   3.534   4.472  14.438  1.3071 -1.1499  0.5632
 7821TIP3    H244879   3.607   4.579  14.515 -0.4845  0.6958 -0.2213
 7822TIP3   OH244880   0.938   4.181  13.875  0.2777 -0.6332 -0.6402
 7822TIP3    H144881   0.927   4.264  13.829  1.7665  0.7964  1.3620
 7822TIP3    H244882   1.009   4.137  13.829  0.0681 -0.3907 -1.1951
 7823TIP3   OH244883   3.513   5.769  16.141  0.6228  0.4809  0.3438
 7823TIP3    H144884   3.550   5.821  16.213 -0.1064  0.5606  0.6703
 7823TIP3    H244885   3.480   5.690  16.184 -0.3840  0.8069  0.2033
 7824TIP3   OH244886   0.890   6.423   4.310  0.0858 -0.2742 -0.0395
 7824TIP3    H144887   0.857   6.512   4.309 -0.2655 -0.4061 -0.3682
 7824TIP3    H244888   0.981   6.431   4.338 -0.5048 -0.0003  2.0182
 7825TIP3   OH244889   3.404   0.026  11.092 -0.7610  0.0082  0.4604
 7825TIP3    H144890   3.394   0.080  11.013  0.4805 -0.6390 -0.1743
 7825TIP3    H244891   3.370  -0.059  11.067  1.5165 -0.8167 -0.1392
 7826TIP3   OH244892   0.724   3.964  13.896  0.0008 -0.2594 -0.0066
 7826TIP3    H144893   0.756   3.900  13.831 -0.5406  0.0448 -0.5779
 7826TIP3    H244894   0.789   4.034  13.894 -1.9301  1.6654 -3.1214
 7827TIP3   OH244895   3.637   6.068  12.313 -0.2210 -0.3989 -0.0537
 7827TIP3    H144896   3.691   6.075  12.234 -0.7959 -0.4913 -0.4591
 7827TIP3    H244897   3.667   5.988  12.356 -1.1421 -1.3624 -1.1382
 7828TIP3   OH244898   4.662   4.285   1.046  0.4487  0.5034 -0.1958
 7828TIP3    H144899   4.630   4.219   1.108 -0.9828 -0.7407 -2.1441
 7828TIP3    H244900   4.756   4.291   1.064  0.2862 -0.6983  1.2803
 7829TIP3   OH244901   5.738   1.116  11.971 -0.3277 -0.5771  0.2063
 7829TIP3    H144902   5.645   1.131  11.988 -0.2907  0.8107 -0.6451
 7829TIP3    H244903   5.755   1.162  11.888  1.0452 -1.0867  0.1775
 7830TIP3   OH244904   2.630   2.591  12.854  0.2806 -0.3189  0.1414
 7830TIP3    H144905   2.719   2.569  12.881  0.3823  0.8595  0.8176
 7830TIP3    H244906   2.579   2.512  12.875  1.1930 -1.1171 -0.5291
 7831TIP3   OH244907   0.874   4.360   1.740  0.0227 -0.4456  0.5803
 7831TIP3    H144908   0.780   4.377   1.727 -0.0058 -0.7604  0.3740
 7831TIP3    H244909   0.884   4.267   1.724  0.6235 -0.1672 -0.8557
 7832TIP3   OH244910   6.635   2.314   5.164  0.5102  0.0009 -0.1196
 7832TIP3    H144911   6.647   2.219   5.154 -0.0032 -0.0520 -0.2499
 7832TIP3    H244912   6.656   2.331   5.256 -3.8348 -0.9876  1.2962
 7833TIP3   OH244913   2.429   3.821   6.543 -1.0571  0.6849  0.3427
 7833TIP3    H144914   2.349   3.868   6.523 -0.3807  1.1077 -1.5255
 7833TIP3    H244915   2.489   3.843   6.472 -0.8759 -3.4673 -1.0728
 7834TIP3   OH244916   6.791   0.901  16.244 -0.6006  0.1096 -0.5782
 7834TIP3    H144917   6.805   0.862  16.157 -0.2937  0.3326 -0.6290
 7834TIP3    H244918   6.771   0.993  16.226  0.8964  0.5079 -0.3499
 7835TIP3   OH244919   5.210   1.547  11.280  0.1019  0.2841 -0.5501
 7835TIP3    H144920   5.250   1.589  11.204  0.3611 -0.2666 -0.7272
 7835TIP3    H244921   5.233   1.454  11.270  0.4343  0.2602  0.3800
 7836TIP3   OH244922   2.631   1.215  15.608  0.1609 -0.3216  0.0655
 7836TIP3    H144923   2.689   1.155  15.560  1.4687  0.9860 -0.0538
 7836TIP3    H244924   2.574   1.157  15.658  0.0319 -1.7033 -1.5671
 7837TIP3   OH244925   0.058   0.501   2.451 -0.1372  0.4883  0.1250
 7837TIP3    H144926   0.101   0.587   2.451 -1.7887  1.3650 -0.1461
 7837TIP3    H244927  -0.029   0.518   2.415 -0.2625 -1.4538 -0.5980
 7838TIP3   OH244928   4.092   2.401   1.814 -0.0097 -1.1011  0.2707
 7838TIP3    H144929   4.087   2.332   1.748 -0.6643 -0.5195 -0.3099
 7838TIP3    H244930   4.096   2.354   1.898 -2.3837 -1.8630  0.0221
 7839TIP3   OH244931   6.002   6.080   0.783 -1.0727  0.0104  0.3240
 7839TIP3    H144932   6.010   6.050   0.692  1.5129 -0.6662  0.6901
 7839TIP3    H244933   6.006   5.999   0.835 -2.3093  0.4077  1.0894
 7840TIP3   OH244934   3.879   6.459   5.677 -0.3870  0.0279  0.0623
 7840TIP3    H144935   3.966   6.440   5.712 -0.0281  0.4677 -0.5759
 7840TIP3    H244936   3.888   6.544   5.634 -0.9275 -0.3017 -0.7204
 7841TIP3   OH244937   2.503   1.015  14.228 -0.8863 -0.0955  0.3422
 7841TIP3    H144938   2.580   0.972  14.188 -0.4065  0.5924  0.5083
 7841TIP3    H244939   2.508   0.990  14.320 -1.4665 -0.9132  0.1656
 7842TIP3   OH244940   5.807   1.002  13.907  0.9265 -0.4672  0.2609
 7842TIP3    H144941   5.817   1.096  13.887 -0.0080 -0.3210  0.4659
 7842TIP3    H244942   5.895   0.966  13.893  1.7484  0.7550  1.9111
 7843TIP3   OH244943   0.330   5.139  16.454  0.2908 -0.1318  0.0500
 7843TIP3    H144944   0.386   5.179  16.388  0.4742 -0.5024 -0.0230
 7843TIP3    H244945   0.348   5.188  16.534 -0.3110  0.6511 -0.2861
 7844TIP3   OH244946   2.292   1.601   1.245  0.0822  0.0887 -0.0063
 7844TIP3    H144947   2.384   1.577   1.243  0.4379  1.3748 -0.3362
 7844TIP3    H244948   2.260   1.570   1.330  1.5392  2.0030  1.3429
 7845TIP3   OH244949   4.375   4.831   5.313 -0.0262 -0.2313 -0.1953
 7845TIP3    H144950   4.357   4.875   5.397 -0.0623 -1.1897  0.3081
 7845TIP3    H244951   4.323   4.881   5.249  0.3032  0.7506  0.2760
 7846TIP3   OH244952   4.068   0.435  14.447  0.1736  0.3860  0.1829
 7846TIP3    H144953   3.987   0.449  14.397 -0.4588 -1.5856  0.5935
 7846TIP3    H244954   4.138   0.453  14.384 -0.5628  1.3805 -0.3935
 7847TIP3   OH244955   4.316   5.461   5.609 -0.4129 -0.2759  0.2535
 7847TIP3    H144956   4.266   5.379   5.603  1.2798 -1.2652 -1.6020
 7847TIP3    H244957   4.408   5.433   5.611  0.2806  1.5732 -1.7647
 7848TIP3   OH244958   2.871   5.546  10.571 -0.4272  0.4349  0.2012
 7848TIP3    H144959   2.780   5.516  10.578 -0.0365 -0.8881 -0.0426
 7848TIP3    H244960   2.923   5.470  10.599  0.6358  0.6150 -1.1878
 7849TIP3   OH244961   2.143   0.815  14.536  0.1582  0.1015 -0.0283
 7849TIP3    H144962   2.154   0.904  14.569 -0.0631  0.9234 -2.0171
 7849TIP3    H244963   2.049   0.804  14.524  0.1028 -0.7366  0.9821
 7850TIP3   OH244964   4.344   1.983  14.233 -0.7319  0.1820  0.1118
 7850TIP3    H144965   4.324   2.065  14.277 -0.9132 -0.3630  1.0860
 7850TIP3    H244966   4.404   2.007  14.163 -0.1637  1.0538  0.8696
 7851TIP3   OH244967   6.586   3.588  12.144  0.3758 -0.0281 -0.1748
 7851TIP3    H144968   6.521   3.582  12.214  0.8254 -0.4091  0.2139
 7851TIP3    H244969   6.632   3.671  12.161  0.7903 -0.3418  0.2546
 7852TIP3   OH244970   5.883   1.509  14.773 -0.0831 -0.4637  0.2958
 7852TIP3    H144971   5.865   1.444  14.705  0.8439 -2.2313  1.6500
 7852TIP3    H244972   5.952   1.564  14.736 -1.7984  0.6900 -1.3949
 7853TIP3   OH244973   6.641   4.774   5.465 -0.6175  0.8841 -0.1655
 7853TIP3    H144974   6.670   4.742   5.551 -2.2937  0.8213  0.4197
 7853TIP3    H244975   6.719   4.815   5.427  0.4542 -0.0703  0.9028
 7854TIP3   OH244976   4.236   1.011   0.096  0.5696  0.6410 -0.4272
 7854TIP3    H144977   4.201   1.093   0.134  1.1110  1.1295 -0.9690
 7854TIP3    H244978   4.159   0.954   0.090  0.2205  1.0265  0.1533
 7855TIP3   OH244979   6.633   3.748  13.813 -0.1966  0.2211 -0.0866
 7855TIP3    H144980   6.545   3.744  13.850  0.1034 -1.6569  0.5108
 7855TIP3    H244981   6.657   3.841  13.817 -1.0739  0.3927  2.3262
 7856TIP3   OH244982   3.078   1.311   3.333  0.1611 -0.1243  0.3371
 7856TIP3    H144983   3.116   1.345   3.413 -2.1595 -0.7697  1.8187
 7856TIP3    H244984   3.054   1.221   3.354  0.6225 -0.7371 -1.5171
 7857TIP3   OH244985   6.131   2.829  12.983  0.1019  0.2552 -0.0782
 7857TIP3    H144986   6.117   2.791  12.896 -0.8847 -0.2859  0.2990
 7857TIP3    H244987   6.160   2.755  13.037  0.0470  0.4457  0.2132
 7858TIP3   OH244988   3.114   5.653   3.339 -0.3460 -0.3845 -0.1470
 7858TIP3    H144989   3.128   5.607   3.256  0.8090 -1.3247  0.5326
 7858TIP3    H244990   3.027   5.624   3.368 -0.1243 -1.2422 -0.3009
 7859TIP3   OH244991   3.287   0.050  14.678  0.1793  0.4948 -0.7361
 7859TIP3    H144992   3.296  -0.042  14.703  0.1557  0.4985 -0.7152
 7859TIP3    H244993   3.194   0.070  14.690  0.5377  1.1208  1.2660
 7860TIP3   OH244994   0.578   5.156  12.082  0.2946 -0.1813  0.2852
 7860TIP3    H144995   0.548   5.089  12.143  0.4248 -0.6119 -0.1213
 7860TIP3    H244996   0.545   5.128  11.997 -0.7076  0.9093  0.2836
 7861TIP3   OH244997   2.907   5.100  11.516 -0.7261  0.1218  0.1976
 7861TIP3    H144998   2.981   5.062  11.468 -0.0179  0.0373  1.3278
 7861TIP3    H244999   2.898   5.188  11.481  1.2566  0.8740  1.4525
 7862TIP3   OH245000   0.388   0.462  12.124 -0.0309 -0.2838 -0.6235
 7862TIP3    H145001   0.450   0.476  12.195  0.3600  2.2460 -1.3581
 7862TIP3    H245002   0.365   0.369  12.130  1.5290 -0.6112  1.5028
 7863TIP3   OH245003   6.099   2.937   5.056  0.0987  0.6266  0.1081
 7863TIP3    H145004   6.026   2.896   5.009  0.2978  0.1548  0.2121
 7863TIP3    H245005   6.147   2.985   4.988 -0.0118  0.5131 -0.0499
 7864TIP3   OH245006   0.643   4.829  14.902 -0.5081  0.0932  0.1636
 7864TIP3    H145007   0.582   4.886  14.856 -1.6685 -1.8946 -0.9008
 7864TIP3    H245008   0.725   4.837  14.853 -1.0486 -0.1609 -0.8072
 7865TIP3   OH245009   2.087   3.196  17.104  0.2652  0.5028  0.3182
 7865TIP3    H145010   2.136   3.121  17.071  0.1598  0.3966  0.3996
 7865TIP3    H245011   2.114   3.269  17.048 -0.1870  0.2475 -0.2491
 7866TIP3   OH245012   4.968   4.007  14.541  0.5328 -0.5292 -0.1125
 7866TIP3    H145013   4.948   3.915  14.557 -1.0184  0.0404  1.5850
 7866TIP3    H245014   4.900   4.036  14.481 -0.0087 -0.0958  0.6985
 7867TIP3   OH245015   3.845   3.823  15.411 -0.2161  0.0357  0.2309
 7867TIP3    H145016   3.796   3.815  15.493 -0.9711  0.5671 -0.1597
 7867TIP3    H245017   3.837   3.736  15.371  1.6529 -0.7965  1.5089
 7868TIP3   OH245018   3.897   3.607   4.426  0.3410  0.3300  0.3121
 7868TIP3    H145019   3.805   3.625   4.448  0.3718 -0.7652  1.4427
 7868TIP3    H245020   3.946   3.673   4.474  0.1827  0.3547  0.4435
 7869TIP3   OH245021   2.006   6.213  13.796  0.2822  0.1412  0.0842
 7869TIP3    H145022   2.018   6.170  13.880 -2.9484 -1.1063  0.0310
 7869TIP3    H245023   2.058   6.161  13.735  1.2102 -0.0117  0.9770
 7870TIP3   OH245024   6.072   6.076   0.178 -0.2253 -0.5474 -0.3597
 7870TIP3    H145025   6.136   6.147   0.191 -0.9193  0.2037 -0.9047
 7870TIP3    H245026   6.024   6.102   0.099  0.3666 -2.2920 -1.3576
 7871TIP3   OH245027   0.915   4.416  12.262 -0.4862  0.5465 -0.1095
 7871TIP3    H145028   0.914   4.437  12.168 -1.1007  0.1233 -0.2034
 7871TIP3    H245029   0.823   4.420  12.288 -0.5771 -1.3566  0.0159
 7872TIP3   OH245030   1.198   1.093   2.521 -0.1908  0.1238 -0.1933
 7872TIP3    H145031   1.246   1.040   2.458 -0.7853  0.7723 -1.2142
 7872TIP3    H245032   1.228   1.183   2.504 -1.7222  0.5360 -0.8242
 7873TIP3   OH245033   5.098   4.840  14.148  0.0864 -0.1814 -0.2367
 7873TIP3    H145034   5.047   4.894  14.207 -0.6549 -0.5001 -0.5748
 7873TIP3    H245035   5.170   4.897  14.120  0.8118 -0.2261  1.4271
 7874TIP3   OH245036   5.313   5.279  13.791  0.5671  0.5570 -0.2119
 7874TIP3    H145037   5.234   5.289  13.738  0.2273 -2.1624 -0.3945
 7874TIP3    H245038   5.282   5.283  13.882 -0.1688 -2.0783 -0.2566
 7875TIP3   OH245039   5.055   2.078   2.364 -0.2463 -0.1424 -0.3877
 7875TIP3    H145040   4.988   2.065   2.432 -0.6221 -0.9002 -0.8817
 7875TIP3    H245041   5.066   2.173   2.359 -0.3663 -0.0662  0.5766
 7876TIP3   OH245042   2.493   6.648  14.909  0.0805  0.5262  0.2740
 7876TIP3    H145043   2.475   6.580  14.973  2.7176  1.0160  1.6850
 7876TIP3    H245044   2.412   6.699  14.903 -1.4251 -1.7351  0.3495
 7877TIP3   OH245045   2.321   2.782  14.960 -0.0602  0.5718  0.1141
 7877TIP3    H145046   2.371   2.714  15.005 -0.2482  1.1680  1.2345
 7877TIP3    H245047   2.231   2.772  14.993 -0.2093  1.0084 -0.1544
 7878TIP3   OH245048   5.626   3.775  11.288 -0.2511 -0.3574  0.3024
 7878TIP3    H145049   5.583   3.806  11.368 -0.2789 -0.8382  0.4780
 7878TIP3    H245050   5.658   3.854  11.245  0.4480 -0.1440  1.1827
 7879TIP3   OH245051   1.923   2.514  11.621 -0.5010  0.3467 -0.2287
 7879TIP3    H145052   1.866   2.528  11.546 -1.0393  0.4380  0.1944
 7879TIP3    H245053   1.989   2.584  11.614 -0.0688 -0.1273 -1.0547
 7880TIP3   OH245054   5.799   5.270   1.471  0.0210 -0.2283  0.0396
 7880TIP3    H145055   5.816   5.319   1.551  1.0393 -1.1556  0.4212
 7880TIP3    H245056   5.769   5.336   1.408 -1.7950  0.3500  1.4554
 7881TIP3   OH245057   5.698   5.006  15.756  0.0270 -0.2498  0.2272
 7881TIP3    H145058   5.718   5.085  15.706 -2.7913  1.1494  1.0922
 7881TIP3    H245059   5.622   4.967  15.711 -1.9821  0.5208  2.6779
 7882TIP3   OH245060   4.613   4.794  16.738 -0.1168  0.5044  0.1922
 7882TIP3    H145061   4.674   4.867  16.751  0.9573 -0.1756 -0.7367
 7882TIP3    H245062   4.531   4.823  16.777  1.2017  0.8477  2.9142
 7883TIP3   OH245063   3.083   2.323  15.126 -0.1297  0.1360 -0.5449
 7883TIP3    H145064   3.053   2.386  15.060 -1.3528 -0.3874 -0.5054
 7883TIP3    H245065   3.026   2.338  15.201  0.4022 -0.1751 -0.0660
 7884TIP3   OH245066   3.084   6.328  12.899 -0.1120 -0.5783 -0.5435
 7884TIP3    H145067   3.167   6.359  12.860 -0.0222  0.8530  0.6753
 7884TIP3    H245068   3.027   6.404  12.894 -0.5554 -0.8080  0.8110
 7885TIP3   OH245069   4.237   3.047  15.019  0.4194 -0.6279  0.0856
 7885TIP3    H145070   4.262   2.958  14.993  0.2085 -0.4215 -0.8653
 7885TIP3    H245071   4.315   3.100  15.001  1.1352 -0.8714  2.2217
 7886TIP3   OH245072   0.291   6.154  10.946 -0.1947  0.1740  0.0659
 7886TIP3    H145073   0.279   6.095  10.871  0.7860  1.2464 -0.9747
 7886TIP3    H245074   0.384   6.150  10.965 -0.4508 -0.1954  1.3637
 7887TIP3   OH245075   6.336   0.018   3.897 -0.2945  0.2460  0.1956
 7887TIP3    H145076   6.421  -0.025   3.894 -0.7857 -0.8030  0.8918
 7887TIP3    H245077   6.273  -0.052   3.879 -0.9518  1.3563 -2.2853
 7888TIP3   OH245078   0.902   4.785  16.102 -0.0879  0.4845 -0.2145
 7888TIP3    H145079   0.930   4.785  16.010 -2.5625  0.2805 -1.0413
 7888TIP3    H245080   0.969   4.836  16.147  0.7486  1.3340 -2.2665
 7889TIP3   OH245081   4.458   4.272   0.112 -0.5241 -0.2106 -0.1541
 7889TIP3    H145082   4.405   4.235   0.042 -0.6546 -0.9991  0.3352
 7889TIP3    H245083   4.451   4.208   0.183 -1.7608  1.3335  1.2004
 7890TIP3   OH245084   1.474   1.660   1.178  0.6797 -0.2749  0.1076
 7890TIP3    H145085   1.467   1.572   1.215 -0.8748 -0.3818 -0.3411
 7890TIP3    H245086   1.549   1.656   1.119  0.8542 -1.1996  0.3785
 7891TIP3   OH245087   0.291   5.632  14.220 -0.3576 -0.5800  0.2185
 7891TIP3    H145088   0.345   5.637  14.299  0.0485 -0.9042 -0.0330
 7891TIP3    H245089   0.318   5.707  14.167  0.3578 -1.1277 -0.2164
 7892TIP3   OH245090   6.452   2.425  11.140  0.2301  0.5412 -0.0425
 7892TIP3    H145091   6.417   2.339  11.115  0.9457  0.1581  0.2263
 7892TIP3    H245092   6.547   2.417  11.125  0.3174  1.2409  0.1116
 7893TIP3   OH245093   2.642   0.114   5.649  0.2952 -0.2901  0.0071
 7893TIP3    H145094   2.706   0.079   5.711  0.4679  1.0112  0.5911
 7893TIP3    H245095   2.586   0.170   5.702 -0.9118 -0.8510 -0.6293
 7894TIP3   OH245096   6.762   3.890   3.493 -0.2244 -0.4564  0.4733
 7894TIP3    H145097   6.749   3.921   3.583  2.4736  0.8913  0.5018
 7894TIP3    H245098   6.836   3.830   3.500  1.2398  1.0809 -1.0525
 7895TIP3   OH245099   0.573   5.459   5.465 -0.2676  0.0491 -0.1882
 7895TIP3    H145100   0.653   5.509   5.484  0.2771 -0.1052 -1.8982
 7895TIP3    H245101   0.515   5.478   5.539  1.1040  0.6715  0.7818
 7896TIP3   OH245102   6.195   1.510  11.753  0.0797 -0.3894 -0.1739
 7896TIP3    H145103   6.225   1.545  11.669  0.9491 -1.6848 -0.4236
 7896TIP3    H245104   6.263   1.448  11.779  0.9106  1.4565  2.5213
 7897TIP3   OH245105   5.766   4.700   4.680 -0.3575 -0.6961  0.2173
 7897TIP3    H145106   5.680   4.703   4.721 -1.6179  0.0779 -2.2744
 7897TIP3    H245107   5.752   4.654   4.598  1.4576  0.0207 -0.5549
 7898TIP3   OH245108   1.751   6.112   1.022  0.3216 -0.4585  0.9874
 7898TIP3    H145109   1.728   6.127   0.930  0.3096 -0.5957  0.9682
 7898TIP3    H245110   1.749   6.017   1.032  0.7546 -0.4653  1.0184
 7899TIP3   OH245111   0.910   4.544  14.856 -0.3474 -0.3685  0.2323
 7899TIP3    H145112   0.923   4.474  14.921  0.9106  0.3834  0.8299
 7899TIP3    H245113   0.995   4.554  14.814 -0.7582  0.1950 -0.4865
 7900TIP3   OH245114   4.956   4.463   4.756  0.2869  0.8590  0.3982
 7900TIP3    H145115   4.994   4.393   4.809 -0.2426  0.3708  0.1452
 7900TIP3    H245116   5.014   4.470   4.680 -0.4085 -0.2541 -0.2575
 7901TIP3   OH245117   0.819   1.140   2.091 -0.0843 -0.2756  0.0655
 7901TIP3    H145118   0.806   1.045   2.094 -0.8002 -0.1722  0.7331
 7901TIP3    H245119   0.876   1.158   2.165 -0.6740 -0.0916  0.4839
 7902TIP3   OH245120   5.991   1.103   5.696  0.1696  0.3925  0.0057
 7902TIP3    H145121   5.952   1.183   5.661 -0.3261 -0.6928 -2.0693
 7902TIP3    H245122   6.029   1.059   5.620 -1.0407 -2.1607  0.7805
 7903TIP3   OH245123   4.480   1.479   5.046 -0.1365  0.3039  0.2860
 7903TIP3    H145124   4.503   1.394   5.081  0.9993  1.1342  1.6762
 7903TIP3    H245125   4.543   1.539   5.087 -0.5316  1.7210 -1.0897
 7904TIP3   OH245126   0.847   6.118   3.592 -0.1283 -0.1146  0.2551
 7904TIP3    H145127   0.918   6.141   3.652  2.7793 -2.7738 -1.8412
 7904TIP3    H245128   0.862   6.173   3.515  1.0695 -2.0514 -0.9948
 7905TIP3   OH245129   1.835   0.676   4.340  0.2704  0.1579  0.0151
 7905TIP3    H145130   1.865   0.655   4.429  0.4808 -1.7269 -0.4549
 7905TIP3    H245131   1.881   0.614   4.284 -0.0772  1.1245 -1.4017
 7906TIP3   OH245132   0.538   2.404   0.786 -0.3933  0.5594 -0.4120
 7906TIP3    H145133   0.618   2.376   0.831 -0.4338  1.2738  0.1173
 7906TIP3    H245134   0.541   2.500   0.789 -1.4896  0.5909  0.0115
 7907TIP3   OH245135   4.674   1.605   5.667 -0.0367  0.3441  0.4457
 7907TIP3    H145136   4.689   1.643   5.753  0.9649  1.5958 -0.2397
 7907TIP3    H245137   4.762   1.599   5.628 -0.3673 -1.0662 -0.1468
 7908TIP3   OH245138   4.491   5.141  13.837 -1.1253  0.0517 -0.3521
 7908TIP3    H145139   4.573   5.190  13.847 -1.8709  0.9641  1.6534
 7908TIP3    H245140   4.502   5.063  13.892 -1.7891  0.4481  0.3584
 7909TIP3   OH245141   1.372   3.380   5.731 -0.0977 -0.2571  0.1936
 7909TIP3    H145142   1.412   3.296   5.711  4.0587  0.7185  3.1161
 7909TIP3    H245143   1.437   3.445   5.704 -1.1655  1.7191  2.0877
 7910TIP3   OH245144   4.339   3.398   0.024  0.7080 -0.0282 -0.9519
 7910TIP3    H145145   4.332   3.489  -0.005 -2.7072  0.2387  0.1810
 7910TIP3    H245146   4.262   3.355  -0.015  1.2776 -1.9707 -0.0377
 7911TIP3   OH245147   5.668   2.223  14.954  0.1736  0.1842  0.7549
 7911TIP3    H145148   5.573   2.223  14.937  0.4095  0.3040 -0.6477
 7911TIP3    H245149   5.686   2.133  14.981 -0.2952  0.0788  0.7392
 7912TIP3   OH245150   2.480   5.755   1.898 -0.5864  0.4842 -0.2330
 7912TIP3    H145151   2.472   5.790   1.809 -1.3486 -1.3132 -0.9263
 7912TIP3    H245152   2.390   5.737   1.925 -0.4105  1.4977  1.1527
 7913TIP3   OH245153   2.757   3.493   5.917  0.1872  0.8488  0.0318
 7913TIP3    H145154   2.770   3.510   6.010 -0.7454  0.4205  0.2442
 7913TIP3    H245155   2.709   3.569   5.884 -0.7285  0.3600  0.2080
 7914TIP3   OH245156   1.202   2.036   5.599  0.0939  0.3100 -0.2515
 7914TIP3    H145157   1.297   2.035   5.607  0.3368  0.4105 -2.5212
 7914TIP3    H245158   1.175   1.949   5.629  1.0322 -0.2036 -0.8482
 7915TIP3   OH245159   0.349   3.000  14.505 -0.1373 -0.2369  0.3238
 7915TIP3    H145160   0.412   2.951  14.559  0.3443  1.1749  1.0912
 7915TIP3    H245161   0.264   2.960  14.525  0.4250 -1.7818 -0.2692
 7916TIP3   OH245162   5.891   3.142   3.281  0.7442  0.3984 -0.0025
 7916TIP3    H145163   5.809   3.149   3.233 -0.4428 -1.1716  1.6649
 7916TIP3    H245164   5.865   3.131   3.372  2.7397 -1.7620  0.4141
 7917TIP3   OH245165   5.252   0.637  12.573 -0.0444 -0.4965  0.0899
 7917TIP3    H145166   5.299   0.620  12.655  0.1139  2.2095  0.6787
 7917TIP3    H245167   5.177   0.578  12.576  2.0687 -3.3755  0.1497
 7918TIP3   OH245168   0.374   6.422   4.418 -0.2038  0.0054  0.3161
 7918TIP3    H145169   0.322   6.500   4.398 -0.9942 -1.0482 -2.1206
 7918TIP3    H245170   0.340   6.391   4.501 -0.8969  1.4121  0.5885
 7919TIP3   OH245171   3.006   3.442  12.711  0.4655  0.7062 -0.1603
 7919TIP3    H145172   2.951   3.511  12.674 -0.4331 -0.2749 -0.7305
 7919TIP3    H245173   2.945   3.387  12.761  1.4909  1.4054  1.9499
 7920TIP3   OH245174   5.354   4.203   4.099 -0.5566  0.3832 -0.2118
 7920TIP3    H145175   5.296   4.136   4.135  0.9639 -1.6964 -1.4730
 7920TIP3    H245176   5.392   4.245   4.176 -1.2104 -0.4783  0.6094
 7921TIP3   OH245177   4.669   5.427  11.557 -0.0520  0.2670  0.5648
 7921TIP3    H145178   4.655   5.403  11.649 -0.4463  1.0923  0.7311
 7921TIP3    H245179   4.597   5.386  11.510  0.2709 -0.3363  0.5895
 7922TIP3   OH245180   2.100   1.335  12.804 -0.1484  0.1085 -0.1492
 7922TIP3    H145181   2.009   1.340  12.835  0.3810  1.8592  1.1972
 7922TIP3    H245182   2.112   1.413  12.751  0.5714 -0.1485 -0.3807
 7923TIP3   OH245183   4.953   5.210  14.729 -0.0777  0.3120 -0.3150
 7923TIP3    H145184   4.861   5.183  14.722 -0.1279 -0.0793  1.4773
 7923TIP3    H245185   5.003   5.132  14.706 -0.1658  0.5188 -1.2686
 7924TIP3   OH245186   5.009   1.449  12.826 -0.0777 -0.7811 -0.2142
 7924TIP3    H145187   4.970   1.413  12.747 -1.3326 -0.5938  0.2853
 7924TIP3    H245188   4.977   1.539  12.829 -1.4356 -1.2617  1.3378
 7925TIP3   OH245189   1.813   3.456   5.079 -0.5616 -0.0722  0.7193
 7925TIP3    H145190   1.879   3.403   5.033 -0.0580 -0.4302  1.8052
 7925TIP3    H245191   1.741   3.395   5.096 -1.2673  0.3620 -0.6143
 7926TIP3   OH245192   0.919   1.720   0.677 -0.2711  0.0777  0.3782
 7926TIP3    H145193   1.001   1.699   0.722  1.4778  0.2731 -2.4566
 7926TIP3    H245194   0.914   1.816   0.680  0.3122  0.1529 -0.4792
 7927TIP3   OH245195   2.805   1.656  16.776  0.0489  0.0368 -0.5682
 7927TIP3    H145196   2.793   1.648  16.870 -1.9552  1.5337 -0.6121
 7927TIP3    H245197   2.730   1.610  16.738  1.2818 -1.2905 -1.5066
 7928TIP3   OH245198   3.693   3.886   2.772  0.1380 -0.2955  0.1626
 7928TIP3    H145199   3.619   3.925   2.725  1.6977  1.4903 -0.9269
 7928TIP3    H245200   3.689   3.793   2.750 -0.7515  0.0615 -1.3053
 7929TIP3   OH245201   5.111   0.949  12.997 -0.3357 -0.3387  0.4118
 7929TIP3    H145202   5.023   0.936  13.033  0.4962 -0.8753  2.3977
 7929TIP3    H245203   5.104   0.923  12.905 -2.4510  0.5271  0.2790
 7930TIP3   OH245204   2.301   5.818  12.144  0.3720 -0.5898  0.0209
 7930TIP3    H145205   2.339   5.735  12.173 -0.2073 -0.5638  0.8869
 7930TIP3    H245206   2.230   5.835  12.206  0.1925  0.3282 -0.4197
 7931TIP3   OH245207   1.057   3.442   1.628 -0.1766  0.6763  0.7583
 7931TIP3    H145208   1.106   3.370   1.666  1.3878  1.0140 -0.5158
 7931TIP3    H245209   1.076   3.517   1.684  3.2084  1.4996 -1.2201
 7932TIP3   OH245210   3.788   1.234  11.140 -0.0088  0.2038  0.0314
 7932TIP3    H145211   3.699   1.204  11.158  0.0882  0.8296  1.7292
 7932TIP3    H245212   3.844   1.163  11.170  0.0922 -0.7832 -2.2801
 7933TIP3   OH245213   6.121   4.530   5.916  0.1250 -0.1394 -0.4218
 7933TIP3    H145214   6.204   4.546   5.872 -1.6801  1.2713 -3.6438
 7933TIP3    H245215   6.126   4.583   5.996  1.8806  0.8587 -1.1311
 7934TIP3   OH245216   5.884   2.832   4.904  0.8662 -0.1086  0.0778
 7934TIP3    H145217   5.883   2.755   4.960  1.0164  0.4783  0.9052
 7934TIP3    H245218   5.878   2.797   4.815 -2.3426 -0.9587  0.4919
 7935TIP3   OH245219   1.805   3.824   1.381 -0.5268  0.4657 -0.1759
 7935TIP3    H145220   1.823   3.792   1.470  0.4758  0.9748 -0.1803
 7935TIP3    H245221   1.711   3.810   1.369 -0.2411 -2.0803 -0.0265
 7936TIP3   OH245222   2.369   1.988  16.357  0.1374 -0.1957  0.3906
 7936TIP3    H145223   2.417   2.054  16.306  0.8471 -1.1634 -0.2219
 7936TIP3    H245224   2.277   2.009  16.342  0.3389  0.0119 -0.6878
 7937TIP3   OH245225   0.470   5.258  16.232 -0.1198 -0.2455  0.0238
 7937TIP3    H145226   0.466   5.351  16.212 -2.4154 -0.1450  0.6867
 7937TIP3    H245227   0.462   5.214  16.147 -0.7788  0.1814 -0.1436
 7938TIP3   OH245228   4.703   1.081   2.714 -0.3520  0.3805  0.3329
 7938TIP3    H145229   4.620   1.127   2.703  0.3959  1.8313  0.5723
 7938TIP3    H245230   4.738   1.114   2.796  0.4053 -0.3214  0.3026
 7939TIP3   OH245231   0.651   3.877   3.507 -0.2264 -0.2028 -0.2415
 7939TIP3    H145232   0.671   3.820   3.434  0.5849 -1.3725  0.8466
 7939TIP3    H245233   0.650   3.819   3.584  0.7622  1.2343  0.9268
 7940TIP3   OH245234   0.008   1.859   0.296 -0.1534 -0.3397 -0.4387
 7940TIP3    H145235  -0.022   1.774   0.327  1.3322 -0.8950 -0.4281
 7940TIP3    H245236  -0.072   1.910   0.284 -0.9417 -1.0312  1.5459
 7941TIP3   OH245237   2.305   5.191   2.883 -0.0319 -0.1001  0.0837
 7941TIP3    H145238   2.241   5.262   2.886  0.1200  0.1324 -1.3036
 7941TIP3    H245239   2.317   5.165   2.974 -0.0560  1.6792  0.6239
 7942TIP3   OH245240   2.032   4.681  11.795  0.0509 -0.7334 -0.5352
 7942TIP3    H145241   2.119   4.658  11.764  0.3765 -0.2002 -0.0238
 7942TIP3    H245242   2.041   4.693  11.889 -0.5486 -0.5632 -0.4910
 7943TIP3   OH245243   1.873   0.742  12.567 -0.3297  0.0575  0.1231
 7943TIP3    H145244   1.823   0.777  12.641 -0.6656 -0.2156  0.0248
 7943TIP3    H245245   1.841   0.653  12.556  0.7594 -0.4100  0.5807
 7944TIP3   OH245246   0.201   0.397  16.615 -0.5445 -0.1834  0.2073
 7944TIP3    H145247   0.268   0.352  16.563 -1.6768  0.5431 -2.0083
 7944TIP3    H245248   0.209   0.359  16.703  1.0829 -1.8939 -0.6068
 7945TIP3   OH245249   3.748   3.740  12.793 -0.4733  0.1338 -0.5573
 7945TIP3    H145250   3.702   3.823  12.802 -2.4325 -1.0070  0.6881
 7945TIP3    H245251   3.789   3.744  12.707 -1.8879  1.7305 -1.2028
 7946TIP3   OH245252   1.224   2.459   4.188  0.1927  0.1409 -0.3477
 7946TIP3    H145253   1.184   2.408   4.258  0.2791  0.4385 -0.0805
 7946TIP3    H245254   1.291   2.401   4.152  0.5803  0.2182  0.2342
 7947TIP3   OH245255   3.778   2.332  14.660  0.8894 -0.1252 -0.1601
 7947TIP3    H145256   3.692   2.360  14.630 -0.0090 -2.0088  0.4604
 7947TIP3    H245257   3.806   2.400  14.721 -0.5210  0.1490  0.2217
 7948TIP3   OH245258   6.284   3.196   6.267  0.2551  0.1860 -0.2843
 7948TIP3    H145259   6.368   3.241   6.264  0.9134 -1.0288 -0.9984
 7948TIP3    H245260   6.234   3.235   6.195  0.4887  0.3723 -0.3480
 7949TIP3   OH245261   3.532   3.431   1.897  0.2115 -0.3750  0.2364
 7949TIP3    H145262   3.546   3.343   1.933 -0.7864 -0.1009  1.3819
 7949TIP3    H245263   3.437   3.440   1.894  0.2973  0.8839  0.7219
 7950TIP3   OH245264   2.909   2.983   4.369 -0.1086  0.4012  0.0077
 7950TIP3    H145265   2.937   2.998   4.460  0.6519  0.5673 -0.2423
 7950TIP3    H245266   2.982   2.933   4.331  0.4809  2.0037 -1.0504
 7951TIP3   OH245267   2.554   4.566   2.623 -0.0883 -0.6860  0.0114
 7951TIP3    H145268   2.459   4.553   2.624 -0.3771  0.9181 -1.4183
 7951TIP3    H245269   2.589   4.487   2.582 -0.7996 -1.2344  0.4316
 7952TIP3   OH245270   4.548   3.688   2.753 -0.4365 -0.1478 -0.4370
 7952TIP3    H145271   4.516   3.614   2.701  2.4736 -1.4008 -0.6219
 7952TIP3    H245272   4.521   3.667   2.843 -1.5772 -0.2403 -0.7772
 7953TIP3   OH245273   0.398   4.206   0.456  0.9553 -0.5574 -0.6254
 7953TIP3    H145274   0.423   4.256   0.378 -0.4149  0.2854 -0.5492
 7953TIP3    H245275   0.344   4.266   0.507  0.4298 -1.6670  0.1626
 7954TIP3   OH245276   4.874   1.382   1.876  0.0416  0.5142 -0.0135
 7954TIP3    H145277   4.853   1.448   1.943  0.3652 -0.1932  0.8004
 7954TIP3    H245278   4.797   1.325   1.875  0.7534 -0.5285  1.0755
 7955TIP3   OH245279   2.759   1.334  14.897  0.4661  0.3102  0.7480
 7955TIP3    H145280   2.676   1.377  14.919  0.5169  1.6554 -1.4634
 7955TIP3    H245281   2.819   1.362  14.966 -0.5420  0.4467  1.5973
 7956TIP3   OH245282   0.290   3.746   4.934 -0.2382  0.7047  0.2705
 7956TIP3    H145283   0.295   3.650   4.941 -0.6538  0.7603  1.6493
 7956TIP3    H245284   0.256   3.762   4.846  0.6992 -0.3748 -0.3160
 7957TIP3   OH245285   5.693   2.450   1.515  0.4252 -0.5754 -0.3538
 7957TIP3    H145286   5.699   2.493   1.430  0.8368  0.4379  0.1647
 7957TIP3    H245287   5.780   2.462   1.554  0.1964 -0.8900  0.2687
 7958TIP3   OH245288   3.617   3.863   1.569 -0.3918 -0.4774  0.3923
 7958TIP3    H145289   3.595   3.804   1.641  1.3594 -1.7322 -0.0588
 7958TIP3    H245290   3.667   3.810   1.508  1.6786  1.5529  0.1812
 7959TIP3   OH245291   0.098   3.965  15.812  0.0072  0.3792  0.2483
 7959TIP3    H145292   0.045   3.951  15.890  0.7391  1.2629  0.9427
 7959TIP3    H245293   0.037   3.958  15.739 -1.5178  3.2644  1.0929
 7960TIP3   OH245294   2.564   4.002  14.552  0.4708 -0.2735 -0.6303
 7960TIP3    H145295   2.614   3.999  14.633  1.2017 -0.5946 -1.0869
 7960TIP3    H245296   2.627   4.028  14.485 -0.1979  0.3346 -1.0520
 7961TIP3   OH245297   3.877   2.348  15.809 -0.0540 -0.1409  0.0954
 7961TIP3    H145298   3.861   2.397  15.728  3.5860  2.0388  0.4951
 7961TIP3    H245299   3.888   2.415  15.876  1.9685 -1.6087  1.3474
 7962TIP3   OH245300   1.222   5.073  12.806  0.0886  0.4122 -0.1275
 7962TIP3    H145301   1.145   5.050  12.857  0.1113  0.1239 -0.2188
 7962TIP3    H245302   1.229   5.003  12.740  1.3819 -0.4805  0.9072
 7963TIP3   OH245303   2.144   1.850  15.745 -0.5262  0.5162 -0.1915
 7963TIP3    H145304   2.135   1.938  15.708 -0.3976  0.6022 -0.0244
 7963TIP3    H245305   2.233   1.824  15.722 -1.2838 -0.4858 -2.1775
 7964TIP3   OH245306   6.771   2.278   5.784 -0.0800  0.4586 -0.3429
 7964TIP3    H145307   6.810   2.208   5.732 -1.2455 -0.7066  0.2869
 7964TIP3    H245308   6.840   2.302   5.847  0.4560  0.1433 -0.8010
 7965TIP3   OH245309   2.221   4.370   3.640 -0.7201  0.0226 -0.4912
 7965TIP3    H145310   2.306   4.359   3.684 -0.3725  2.1636 -0.5252
 7965TIP3    H245311   2.211   4.291   3.588 -0.0801 -1.5792  1.6511
 7966TIP3   OH245312   5.491   2.842   1.354 -0.4977  0.4104 -0.4726
 7966TIP3    H145313   5.479   2.780   1.283 -1.8316  0.9628 -0.7532
 7966TIP3    H245314   5.556   2.801   1.411 -1.2463 -1.1768 -0.7103
 7967TIP3   OH245315   3.897   4.737  15.687 -0.1852  0.1611  0.3745
 7967TIP3    H145316   3.948   4.817  15.699  1.3154 -0.5722 -0.7166
 7967TIP3    H245317   3.868   4.740  15.596 -0.0344 -0.5506  0.2930
 7968TIP3   OH245318   2.843   0.061   2.838  0.1027  0.2912  0.1270
 7968TIP3    H145319   2.887  -0.018   2.805  0.5104  1.3462 -2.0923
 7968TIP3    H245320   2.788   0.089   2.765 -2.4289  0.4093  1.9651
 7969TIP3   OH245321   4.359   1.308  14.349  0.2447 -0.0041  0.0160
 7969TIP3    H145322   4.375   1.402  14.345 -2.5600  0.5083 -0.9638
 7969TIP3    H245323   4.377   1.284  14.440 -1.5759  2.0275  0.9878
 7970TIP3   OH245324   2.210   4.209  14.084 -0.3638 -0.0601  0.1874
 7970TIP3    H145325   2.163   4.291  14.103  0.1611  0.9595 -2.4593
 7970TIP3    H245326   2.143   4.151  14.048 -0.0540  0.6587 -1.6372
 7971TIP3   OH245327   6.712   3.130  11.156  0.0148  0.0647 -0.4710
 7971TIP3    H145328   6.640   3.184  11.122  0.5581  0.7300 -0.5844
 7971TIP3    H245329   6.690   3.041  11.127 -1.9934 -0.1807  1.4891
 7972TIP3   OH245330   1.428   5.643  17.157 -0.2172  0.1096 -0.3202
 7972TIP3    H145331   1.362   5.581  17.127  0.5558 -1.1326  0.4750
 7972TIP3    H245332   1.487   5.591  17.211  1.7298  1.0665 -1.4360
 7973TIP3   OH245333   0.915   2.983  10.841 -0.0951 -0.3554  0.5548
 7973TIP3    H145334   0.996   3.019  10.878 -0.5283 -1.6355  2.9363
 7973TIP3    H245335   0.935   2.970  10.749  2.9623 -2.0361  1.3199
 7974TIP3   OH245336   4.479   2.107   1.122 -0.0193  0.1223 -0.0494
 7974TIP3    H145337   4.548   2.159   1.163  0.4727 -0.3343 -0.3006
 7974TIP3    H245338   4.525   2.047   1.064 -0.6113 -0.3638 -0.0234
 7975TIP3   OH245339   4.038   1.088  12.381 -0.0553 -0.2379  0.3425
 7975TIP3    H145340   4.011   1.105  12.471 -0.1085 -0.0485  0.2912
 7975TIP3    H245341   4.087   1.006  12.385 -1.2488 -0.9646  0.3156
 7976TIP3   OH245342   6.298   4.255  14.686  0.0414  0.6412  0.0520
 7976TIP3    H145343   6.223   4.313  14.673  0.7788  1.3933 -0.9469
 7976TIP3    H245344   6.373   4.313  14.698  0.3661 -0.0873  1.9882
 7977TIP3   OH245345   3.866   0.920  13.438 -0.5237  0.1594  0.1806
 7977TIP3    H145346   3.952   0.959  13.421 -0.6831  0.4447  0.0033
 7977TIP3    H245347   3.864   0.841  13.385 -0.4380  0.2507  0.0389
 7978TIP3   OH245348   2.948   0.984   2.690  0.1082 -0.2537 -0.0240
 7978TIP3    H145349   3.035   0.945   2.701  0.0576 -0.3962 -0.1257
 7978TIP3    H245350   2.965   1.074   2.662  0.2471  0.2382  1.5844
 7979TIP3   OH245351   1.731   5.458  15.452  0.4430  0.6747 -0.0775
 7979TIP3    H145352   1.823   5.482  15.447  0.4408  0.6969 -0.0214
 7979TIP3    H245353   1.698   5.467  15.363  1.7963 -4.7415 -1.4659
 7980TIP3   OH245354   3.218   4.528  11.375 -0.1446 -0.0851  0.3617
 7980TIP3    H145355   3.304   4.516  11.335  0.1487  0.5182  0.8018
 7980TIP3    H245356   3.232   4.592  11.444 -0.8817 -0.2467  0.6698
 7981TIP3   OH245357   6.064   6.568  15.116 -0.0191 -0.0866 -0.4498
 7981TIP3    H145358   6.033   6.544  15.029  0.3895  1.1910 -0.9720
 7981TIP3    H245359   5.996   6.627  15.150 -1.0239 -1.8846  0.8193
 7982TIP3   OH245360   1.428   5.028   4.422  0.0976  0.1963  0.1398
 7982TIP3    H145361   1.475   5.111   4.408 -0.7020  0.3451 -2.2737
 7982TIP3    H245362   1.439   4.981   4.339  0.9740 -2.3872  1.6456
 7983TIP3   OH245363   6.183   4.092  17.067  0.2345  0.8461  0.5432
 7983TIP3    H145364   6.206   4.164  17.009  1.4924  0.2583  0.2722
 7983TIP3    H245365   6.212   4.013  17.020  0.1438  0.2749  1.4231
 7984TIP3   OH245366   5.413   1.914   5.040 -0.2220  0.0151 -0.1149
 7984TIP3    H145367   5.382   1.962   5.117 -0.8235  0.0790 -0.3932
 7984TIP3    H245368   5.334   1.886   4.995  0.1217  0.0234 -0.7436
 7985TIP3   OH245369   5.144   3.522  14.515 -0.4653 -0.1388  0.0745
 7985TIP3    H145370   5.060   3.528  14.561 -0.3118  0.6263  0.2837
 7985TIP3    H245371   5.139   3.591  14.449  0.2521  0.3793  0.5418
 7986TIP3   OH245372   2.402   3.629   2.927  0.2807  0.2386  0.1782
 7986TIP3    H145373   2.466   3.571   2.885 -0.8740 -0.2128 -1.0349
 7986TIP3    H245374   2.330   3.633   2.865 -0.1856  2.0445  0.7881
 7987TIP3   OH245375   0.089   0.300  16.853  0.4551 -0.0562  0.0341
 7987TIP3    H145376   0.136   0.317  16.934 -0.4385  0.8880  0.3857
 7987TIP3    H245377   0.105   0.208  16.834 -0.0246 -0.5316  1.7674
 7988TIP3   OH245378   5.551   2.620  17.051  0.6243  0.1697 -0.3983
 7988TIP3    H145379   5.460   2.626  17.080  0.1918  1.5892 -1.9228
 7988TIP3    H245380   5.561   2.690  16.987  2.1421 -1.4018 -2.0158
 7989TIP3   OH245381   2.452   0.634   0.583  0.0230  0.6953 -0.1307
 7989TIP3    H145382   2.428   0.574   0.513 -0.8405  0.9301 -0.0575
 7989TIP3    H245383   2.541   0.661   0.564  0.3768 -0.5060 -0.2368
 7990TIP3   OH245384   5.248   6.774  12.345  0.1592 -0.4539 -0.1528
 7990TIP3    H145385   5.336   6.811  12.340  0.6038 -1.5728 -1.2772
 7990TIP3    H245386   5.259   6.690  12.390 -0.7362  0.4475  1.8543
 7991TIP3   OH245387   2.833   5.366  17.012  0.1673  0.5356  0.0251
 7991TIP3    H145388   2.764   5.427  16.985 -0.2494  0.8594  1.6974
 7991TIP3    H245389   2.904   5.423  17.044  1.7417  0.2586 -2.6987
 7992TIP3   OH245390   6.607   1.065  16.112 -0.1906 -0.3134 -0.3384
 7992TIP3    H145391   6.539   1.005  16.082 -0.8217 -0.2272  0.8464
 7992TIP3    H245392   6.558   1.137  16.152  0.5870  0.2225 -0.3432
 7993TIP3   OH245393   1.321   5.802   4.690 -0.1724 -0.2492 -0.0651
 7993TIP3    H145394   1.298   5.880   4.639  0.3143  0.7433  1.1767
 7993TIP3    H245395   1.379   5.752   4.632 -0.6844  0.1726 -0.9719
 7994TIP3   OH245396   3.117   2.045  15.069 -0.3012 -0.0843  0.4133
 7994TIP3    H145397   3.105   2.138  15.049  0.4526 -0.3040 -1.1629
 7994TIP3    H245398   3.209   2.028  15.051  0.0360 -0.7433  2.5053
 7995TIP3   OH245399   2.745   0.838  12.847 -0.1699  0.5726  0.0300
 7995TIP3    H145400   2.671   0.899  12.841 -2.6486 -2.1311  0.6280
 7995TIP3    H245401   2.791   0.863  12.927 -0.2334  2.4657 -0.4838
 7996TIP3   OH245402   2.964   5.724   2.618 -0.3355 -0.3893  0.0281
 7996TIP3    H145403   3.004   5.808   2.638  0.5099 -0.4767 -1.1807
 7996TIP3    H245404   2.870   5.741   2.618 -0.2719  0.0943  1.7204
 7997TIP3   OH245405   2.155   3.129   5.654 -0.1632 -0.3552 -0.1817
 7997TIP3    H145406   2.222   3.196   5.663 -0.4906 -0.0813  0.2781
 7997TIP3    H245407   2.168   3.092   5.567 -0.7167  1.0994 -0.8957
 7998TIP3   OH245408   1.617   0.590  12.683 -0.6893 -0.3416  0.3902
 7998TIP3    H145409   1.586   0.668  12.637  1.2042  0.7180  0.8124
 7998TIP3    H245410   1.658   0.623  12.763 -0.8616 -1.8739  1.1674
 7999TIP3   OH245411   6.673   4.427  11.803  0.4296 -0.3853 -0.4143
 7999TIP3    H145412   6.581   4.446  11.786  0.1654 -0.0253  1.2641
 7999TIP3    H245413   6.717   4.444  11.720 -1.4312 -3.8517 -2.3538
 8000TIP3   OH245414   0.568   4.218   0.970 -0.0909 -0.5467 -0.2810
 8000TIP3    H145415   0.653   4.239   1.008 -0.3215  0.7914 -0.4494
 8000TIP3    H245416   0.548   4.292   0.913 -1.8373 -0.3056  0.5813
 8001TIP3   OH245417   5.439   4.718  10.776 -0.4029  0.2741  0.1911
 8001TIP3    H145418   5.441   4.754  10.864  1.3210 -0.9283  0.6865
 8001TIP3    H245419   5.351   4.682  10.767 -0.5102  0.1547  1.5296
 8002TIP3   OH245420   2.286   4.276  16.940  0.5377  0.0224 -0.5051
 8002TIP3    H145421   2.296   4.337  16.867  0.5016  0.1254 -0.4262
 8002TIP3    H245422   2.198   4.293  16.973  0.4899 -0.1442 -0.5474
 8003TIP3   OH245423   4.797   1.116  13.321  0.2202  0.6942 -0.2396
 8003TIP3    H145424   4.832   1.066  13.247 -0.0833  1.5793 -0.9826
 8003TIP3    H245425   4.804   1.055  13.395  2.3073  0.4368 -0.5740
 8004TIP3   OH245426   3.918   1.677  15.157 -0.0123  0.4251 -0.4102
 8004TIP3    H145427   3.908   1.750  15.096 -0.1125  1.4461  0.8032
 8004TIP3    H245428   3.871   1.705  15.236 -1.3034 -1.5396 -0.4086
 8005TIP3   OH245429   1.751   4.111   3.841 -0.0312 -0.3641  0.5277
 8005TIP3    H145430   1.799   4.183   3.882 -0.5580 -0.4036  1.2275
 8005TIP3    H245431   1.695   4.154   3.776 -1.3947  0.0475  1.9099
 8006TIP3   OH245432   6.651   0.971  13.603  0.3119 -0.5533  0.4704
 8006TIP3    H145433   6.611   1.057  13.617 -0.5268 -0.7365 -0.6652
 8006TIP3    H245434   6.731   0.990  13.553 -0.1939 -0.4789 -0.3198
 8007TIP3   OH245435   1.441   0.438   3.393 -0.4110 -0.3332 -0.1188
 8007TIP3    H145436   1.466   0.497   3.464 -0.7957  0.8806 -0.9555
 8007TIP3    H245437   1.436   0.352   3.434  2.0660 -0.1548  0.7518
 8008TIP3   OH245438   2.362   0.714  11.447  0.2623  0.5409  0.3548
 8008TIP3    H145439   2.286   0.772  11.438  0.7162  0.8967 -1.7944
 8008TIP3    H245440   2.430   0.768  11.485  0.4295  1.2152 -0.8555
 8009TIP3   OH245441   6.000   0.859  15.450  0.2052 -0.5949 -0.1900
 8009TIP3    H145442   5.954   0.840  15.532  1.6891 -2.9298  0.1638
 8009TIP3    H245443   6.083   0.898  15.478 -0.2136  0.7499 -0.7221
 8010TIP3   OH245444   4.019   3.681   4.864 -0.6601 -0.6691 -0.0215
 8010TIP3    H145445   3.977   3.620   4.925 -0.3907  0.5062  1.4170
 8010TIP3    H245446   4.064   3.744   4.921 -1.2979  1.1448 -1.4301
 8011TIP3   OH245447   5.105   2.189   3.943 -0.4722  0.1918  0.3664
 8011TIP3    H145448   5.114   2.097   3.966  1.6385  0.5193  1.0132
 8011TIP3    H245449   5.069   2.189   3.855  1.6881 -1.3250 -0.5770
 8012TIP3   OH245450   4.878   3.419  16.823 -0.5707  0.1024 -0.3107
 8012TIP3    H145451   4.906   3.389  16.909  0.1078  0.3296 -0.4487
 8012TIP3    H245452   4.866   3.339  16.772 -0.3999 -0.0074 -0.1785
 8013TIP3   OH245453   2.742   5.934   4.253 -0.4456  0.2977 -0.3924
 8013TIP3    H145454   2.648   5.933   4.269 -0.5869  0.5671 -1.1421
 8013TIP3    H245455   2.771   6.021   4.280 -0.2175 -0.1534  0.8427
 8014TIP3   OH245456   1.130   0.612  17.166 -0.5773 -0.4041 -0.7957
 8014TIP3    H145457   1.178   0.625  17.084 -0.3410 -2.9682 -1.1513
 8014TIP3    H245458   1.182   0.546  17.213  0.2807  2.2481  2.2962
 8015TIP3   OH245459   2.897   2.445  16.486 -0.0576 -0.3216  0.0654
 8015TIP3    H145460   2.962   2.460  16.555  1.4465  1.9921 -1.6782
 8015TIP3    H245461   2.925   2.364  16.444  2.2721  0.9912 -1.1099
 8016TIP3   OH245462   1.552   2.231  12.540 -0.0733 -0.5631  0.5076
 8016TIP3    H145463   1.594   2.310  12.575 -0.3445  0.7262 -1.8683
 8016TIP3    H245464   1.461   2.236  12.571 -0.1624  0.2239  0.1375
 8017TIP3   OH245465   3.969   6.445  12.718  0.0242  0.1520  0.0061
 8017TIP3    H145466   4.044   6.504  12.709 -0.9777  1.7635  1.5346
 8017TIP3    H245467   3.996   6.383  12.786  0.2554  0.2508  0.0053
 8018TIP3   OH245468   2.392   3.184  16.694  0.4099 -0.1227  0.1702
 8018TIP3    H145469   2.484   3.179  16.721  0.3617  1.1950  0.6594
 8018TIP3    H245470   2.386   3.266  16.646 -0.1592 -1.0433 -1.3774
 8019TIP3   OH245471   6.616   5.032  12.174  0.3277 -0.5258 -0.0508
 8019TIP3    H145472   6.662   5.086  12.238 -0.2623 -2.0623  1.7511
 8019TIP3    H245473   6.556   5.093  12.130  0.7868  0.5813  0.8105
 8020TIP3   OH245474   0.444   3.916   0.415 -0.5745  0.1990  0.6008
 8020TIP3    H145475   0.396   3.995   0.439 -1.6171  0.0142 -0.7485
 8020TIP3    H245476   0.376   3.853   0.390  0.2967 -0.6751  0.3501
 8021TIP3   OH245477   4.935   5.557   0.168 -0.1637 -0.7108 -0.4783
 8021TIP3    H145478   4.943   5.471   0.209 -1.9793  1.0041  4.1882
 8021TIP3    H245479   4.854   5.551   0.116  1.3776 -2.5285 -2.8989
 8022TIP3   OH245480   6.577   2.295  13.358  0.0274 -0.6334 -0.1172
 8022TIP3    H145481   6.553   2.263  13.445 -0.2920 -0.7040 -0.2308
 8022TIP3    H245482   6.499   2.281  13.305 -0.2219  0.6137 -0.0967
 8023TIP3   OH245483   6.184   5.762   1.166  0.0059 -0.2464  0.1997
 8023TIP3    H145484   6.215   5.796   1.250 -1.3774 -1.7640  1.3882
 8023TIP3    H245485   6.158   5.672   1.184  0.0337 -0.7492 -1.9686
 8024TIP3   OH245486   6.497   0.140  12.877 -0.7881  0.4055  0.2690
 8024TIP3    H145487   6.530   0.229  12.861 -2.2581  1.2397  1.5738
 8024TIP3    H245488   6.561   0.083  12.834 -0.5133  2.1156 -1.8000
 8025TIP3   OH245489   5.634   0.379  15.744  0.1279 -0.3776  0.2573
 8025TIP3    H145490   5.556   0.412  15.787  1.4685  2.5246  0.6668
 8025TIP3    H245491   5.636   0.423  15.659  1.5754  0.0323  0.4727
 8026TIP3   OH245492   0.843   3.879   4.473  0.2665  0.0709 -0.7316
 8026TIP3    H145493   0.783   3.816   4.512  2.1762 -1.4425 -0.0855
 8026TIP3    H245494   0.899   3.907   4.545 -0.5502  2.6223 -0.9867
 8027TIP3   OH245495   0.993   1.952   1.306  0.3569 -0.1609 -0.5429
 8027TIP3    H145496   1.069   1.896   1.289  0.4128 -0.3765  0.3645
 8027TIP3    H245497   1.025   2.041   1.290  0.5144 -0.3190 -1.1360
 8028TIP3   OH245498   2.517   1.222   4.950  0.2651  0.0599 -0.0320
 8028TIP3    H145499   2.481   1.289   5.008 -0.4394 -1.6577  1.6079
 8028TIP3    H245500   2.612   1.238   4.951  0.1108  1.0524  0.2551
 8029TIP3   OH245501   1.696   5.078  14.063 -0.0306  0.5000  0.5819
 8029TIP3    H145502   1.745   4.996  14.062  0.5692  0.8500  0.6819
 8029TIP3    H245503   1.605   5.052  14.047  0.2364 -0.1248  0.0492
 8030TIP3   OH245504   2.072   6.549   1.842 -0.0139  0.1421  0.3370
 8030TIP3    H145505   2.095   6.641   1.834 -0.1080  0.2272  0.9422
 8030TIP3    H245506   2.095   6.527   1.932  0.6093 -0.6000 -0.0025
 8031TIP3   OH245507   0.471   5.463   3.137 -0.1344 -0.0242 -0.1065
 8031TIP3    H145508   0.396   5.404   3.145 -0.4481 -0.1021 -2.6335
 8031TIP3    H245509   0.544   5.406   3.114  0.4472  0.2041  1.0723
 8032TIP3   OH245510   2.698   3.519  12.110  0.0775 -0.4616  0.2529
 8032TIP3    H145511   2.663   3.460  12.043  1.8422 -1.0095 -0.2547
 8032TIP3    H245512   2.764   3.467  12.155 -0.7378  0.0522  2.1489
 8033TIP3   OH245513   1.311   3.999   5.126 -0.4943  0.7257 -0.0513
 8033TIP3    H145514   1.257   4.056   5.181 -0.5625  0.6357 -0.0238
 8033TIP3    H245515   1.277   3.911   5.143  0.3373  0.5420  0.7693
 8034TIP3   OH245516   2.450   6.204   1.471 -0.4034  0.2657  0.3427
 8034TIP3    H145517   2.454   6.130   1.410  0.6795  0.3007  0.3539
 8034TIP3    H245518   2.458   6.281   1.416  0.8584  0.2907  0.5228
 8035TIP3   OH245519   0.384   6.426   0.617  0.3355  0.0503  0.4845
 8035TIP3    H145520   0.434   6.386   0.546  0.5372 -1.1017  1.2597
 8035TIP3    H245521   0.321   6.483   0.572 -0.1203 -1.3068 -0.6709
 8036TIP3   OH245522   6.498   0.864  12.414  0.4174  0.1861 -0.6872
 8036TIP3    H145523   6.547   0.855  12.496 -1.3194 -1.1125  0.2569
 8036TIP3    H245524   6.476   0.958  12.410  0.8498  0.3326  0.1351
 8037TIP3   OH245525   6.403   5.156   5.041 -0.0444  0.4711 -0.5319
 8037TIP3    H145526   6.390   5.141   5.135 -1.5293  1.1490 -0.6056
 8037TIP3    H245527   6.398   5.251   5.031 -0.6245  0.3644 -1.3753
 8038TIP3   OH245528   5.551   6.696   4.526  0.2456 -0.0832  0.4858
 8038TIP3    H145529   5.471   6.646   4.542 -0.3375  0.9445  0.9346
 8038TIP3    H245530   5.527   6.786   4.549  0.6660  0.7529 -2.0663
 8039TIP3   OH245531   6.668   5.163   2.795 -0.0156  0.5086 -0.3738
 8039TIP3    H145532   6.761   5.184   2.786  0.5175 -1.4378  0.1689
 8039TIP3    H245533   6.656   5.087   2.739 -0.9564 -0.1213  0.6577
 8040TIP3   OH245534   1.485   1.947   1.766  0.0972 -0.2738 -0.4566
 8040TIP3    H145535   1.408   1.914   1.720  0.7021 -2.0719 -0.2680
 8040TIP3    H245536   1.476   2.042   1.763 -2.3009 -0.4448 -0.0818
 8041TIP3   OH245537   5.431   6.304  16.330 -0.3285 -0.8384  0.1365
 8041TIP3    H145538   5.525   6.323  16.335 -0.6785  2.2864 -2.1724
 8041TIP3    H245539   5.394   6.346  16.407  0.0588 -1.4974  0.6940
 8042TIP3   OH245540   2.654   1.826   3.489 -0.0552  0.1545 -0.3005
 8042TIP3    H145541   2.668   1.747   3.436  0.1321 -0.1776  0.2380
 8042TIP3    H245542   2.695   1.896   3.439  1.8880 -0.4697  0.3384
 8043TIP3   OH245543   4.868   1.742  10.587  0.2046  0.4909 -0.0153
 8043TIP3    H145544   4.940   1.731  10.525 -0.2892  0.0728 -0.5305
 8043TIP3    H245545   4.842   1.652  10.609  0.2823  0.6383  0.6955
 8044TIP3   OH245546   0.932   0.064   6.686 -0.1841 -0.0710 -0.1715
 8044TIP3    H145547   0.879   0.023   6.617  1.7626 -0.5889 -1.4618
 8044TIP3    H245548   0.907   0.019   6.766 -0.4867 -1.4941 -1.0347
 8045TIP3   OH245549   5.988   5.496   4.638 -0.0633 -0.2562 -0.1772
 8045TIP3    H145550   5.964   5.464   4.725  0.2795 -0.6349 -0.2161
 8045TIP3    H245551   6.022   5.418   4.593  1.5531  0.3115 -0.0025
 8046TIP3   OH245552   4.634   1.562   0.165  0.1234 -0.0223  0.2351
 8046TIP3    H145553   4.687   1.482   0.154 -0.6113 -0.6949  1.4120
 8046TIP3    H245554   4.694   1.633   0.143  1.2745 -0.8113  0.7235
 8047TIP3   OH245555   0.443   2.658  11.914  0.4765 -0.0669  0.0287
 8047TIP3    H145556   0.431   2.743  11.957  0.6344  0.6687 -1.3412
 8047TIP3    H245557   0.483   2.679  11.830 -1.5986 -1.2516 -1.3376
 8048TIP3   OH245558   4.673   0.526   5.389  0.1034 -0.5631  0.3699
 8048TIP3    H145559   4.760   0.510   5.426  1.1785 -0.1086 -1.8137
 8048TIP3    H245560   4.641   0.604   5.436  1.0209 -0.5175  0.9393
 8049TIP3   OH245561   3.950   6.137   4.624 -0.1796  0.3760 -0.0238
 8049TIP3    H145562   3.898   6.185   4.688  2.2432  0.0484  2.3835
 8049TIP3    H245563   3.961   6.199   4.551 -0.2300  2.0843  1.3461
 8050TIP3   OH245564   1.827   0.687  10.443 -0.1699 -0.7861 -0.4860
 8050TIP3    H145565   1.888   0.614  10.428  0.4316 -0.3173 -0.3438
 8050TIP3    H245566   1.878   0.752  10.489 -0.5314 -0.0100 -1.1607
 8051TIP3   OH245567   0.779   1.034   4.657 -0.4552  0.1946  0.9287
 8051TIP3    H145568   0.694   1.007   4.623 -0.8396  1.0217  1.2116
 8051TIP3    H245569   0.793   1.121   4.620  0.2974  0.0453  0.8443
 8052TIP3   OH245570   4.584   3.113   1.780 -0.6371 -0.2309  0.4457
 8052TIP3    H145571   4.565   3.197   1.737 -0.1257 -0.8074 -0.9736
 8052TIP3    H245572   4.570   3.130   1.873 -3.7748  0.5261 -0.0674
 8053TIP3   OH245573   4.518   4.771   1.367  0.1487  0.5082  0.2385
 8053TIP3    H145574   4.449   4.733   1.313 -1.0072  0.6241  1.5680
 8053TIP3    H245575   4.576   4.816   1.305 -1.4070  1.0931 -0.8363
 8054TIP3   OH245576   1.587   3.049   3.330 -0.1401  0.5213  0.2934
 8054TIP3    H145577   1.529   3.022   3.401  0.4019 -1.2015  0.1142
 8054TIP3    H245578   1.596   2.971   3.275  2.6378  0.6036  0.5180
 8055TIP3   OH245579   4.587   2.496   2.738  0.1211 -0.2537 -0.3030
 8055TIP3    H145580   4.569   2.476   2.830  0.8086  0.2561 -0.0515
 8055TIP3    H245581   4.674   2.535   2.739 -0.4304  1.0142 -1.0026
 8056TIP3   OH245582   1.426   1.820   2.379 -0.0613  0.2187 -0.3495
 8056TIP3    H145583   1.419   1.778   2.294  0.4303 -0.9544  0.1731
 8056TIP3    H245584   1.344   1.869   2.388  0.5781  1.7430 -2.1946
 8057TIP3   OH245585   5.864   0.671  14.728  0.1086 -0.0533 -0.5374
 8057TIP3    H145586   5.878   0.757  14.768 -2.6146  0.4733 -0.5375
 8057TIP3    H245587   5.770   0.656  14.736  0.5988 -3.5224  0.3509
 8058TIP3   OH245588   2.533   3.474  15.804 -0.1853  0.0104 -0.2673
 8058TIP3    H145589   2.523   3.391  15.851  0.8219  0.3638  0.6092
 8058TIP3    H245590   2.500   3.456  15.716 -0.8039 -1.0682  0.1735
 8059TIP3   OH245591   0.939   5.077  15.169  0.0453 -0.1882 -0.4747
 8059TIP3    H145592   0.860   5.096  15.219 -0.0628  1.1908 -1.1087
 8059TIP3    H245593   0.954   4.983  15.182 -1.7632 -0.5177 -0.4336
 8060TIP3   OH245594   1.754   0.666   1.295  0.3870  0.1394 -0.1709
 8060TIP3    H145595   1.669   0.704   1.318  1.2471  1.8392  0.3561
 8060TIP3    H245596   1.812   0.741   1.287  1.9783 -1.0229  0.0373
 8061TIP3   OH245597   2.458   2.491  16.820 -0.1751  0.3700  0.3922
 8061TIP3    H145598   2.503   2.516  16.900  0.8376  0.7266 -0.2702
 8061TIP3    H245599   2.527   2.456  16.764 -1.2464 -2.2274  0.5833
 8062TIP3   OH245600   4.204   3.560   6.019 -0.4652  0.1524  0.7465
 8062TIP3    H145601   4.168   3.477   5.989  1.2061 -0.5896  0.7044
 8062TIP3    H245602   4.142   3.590   6.086 -1.5137 -0.6998  0.1901
 8063TIP3   OH245603   3.631   1.124   5.707 -0.1456 -0.2225 -0.1118
 8063TIP3    H145604   3.681   1.204   5.722 -1.2271  0.3799  0.4387
 8063TIP3    H245605   3.680   1.077   5.640 -0.6301  1.9658 -2.1499
 8064TIP3   OH245606   3.525   1.020  16.119 -0.4782 -0.2499  0.2417
 8064TIP3    H145607   3.447   0.990  16.073  0.0376  2.5124 -2.7849
 8064TIP3    H245608   3.491   1.078  16.187 -1.1081  0.3665 -0.5776
 8065TIP3   OH245609   6.567   5.207   1.517  0.2532  0.1635  0.1219
 8065TIP3    H145610   6.533   5.158   1.443 -0.2276  0.1936  0.3228
 8065TIP3    H245611   6.584   5.141   1.584 -0.6919  0.2979  0.5062
 8066TIP3   OH245612   6.662   0.012   1.041 -0.2514  0.4091 -0.2302
 8066TIP3    H145613   6.733   0.065   1.004 -0.0755 -0.6333 -1.4849
 8066TIP3    H245614   6.631   0.062   1.117  1.6652  1.0125  0.2192
 8067TIP3   OH245615   4.434   1.945   6.670  0.0187 -0.7465  0.5088
 8067TIP3    H145616   4.448   1.948   6.575  1.1412 -0.1300  0.6780
 8067TIP3    H245617   4.343   1.916   6.680 -0.7760  1.1314 -0.7915
 8068TIP3   OH245618   4.242   4.758  12.535  0.4617  0.6748 -0.5281
 8068TIP3    H145619   4.312   4.726  12.592 -0.2316  1.9457  1.1415
 8068TIP3    H245620   4.199   4.679  12.502  2.1186 -0.1117 -0.8901
 8069TIP3   OH245621   5.563   6.293   4.110  0.0669  0.2866 -0.3707
 8069TIP3    H145622   5.655   6.265   4.107  0.8058  2.4000  0.5282
 8069TIP3    H245623   5.565   6.376   4.157 -2.0842  1.3388 -1.9804
 8070TIP3   OH245624   3.906   2.166  12.206 -0.5463 -0.5864 -0.1542
 8070TIP3    H145625   3.836   2.123  12.156 -0.6888 -0.8499  0.2672
 8070TIP3    H245626   3.987   2.129  12.170 -0.6613 -1.0896  0.0882
 8071TIP3   OH245627   5.158   0.389   3.760  0.0942 -0.0201  0.4286
 8071TIP3    H145628   5.244   0.352   3.784  0.0412 -1.5131 -1.4720
 8071TIP3    H245629   5.095   0.324   3.789 -0.2251 -0.0656 -0.3575
 8072TIP3   OH245630   5.826   0.693  11.801  0.3971  0.7958  0.3229
 8072TIP3    H145631   5.874   0.761  11.754  1.7609 -1.8492 -2.5078
 8072TIP3    H245632   5.834   0.717  11.893  2.9345  3.1329 -0.3752
 8073TIP3   OH245633   2.117   5.122   5.634  0.2296 -0.1549 -0.6648
 8073TIP3    H145634   2.104   5.126   5.539  1.1081  0.3642 -0.7723
 8073TIP3    H245635   2.187   5.058   5.646  0.7084  0.4034 -0.4390
 8074TIP3   OH245636   0.337   5.380  16.899  0.0275  0.2324 -0.3108
 8074TIP3    H145637   0.271   5.360  16.965  0.6861  0.3363  0.3937
 8074TIP3    H245638   0.369   5.467  16.922 -0.3299  0.6267 -1.2763
 8075TIP3   OH245639   3.633   0.503  16.069  0.0969  0.2793 -0.1326
 8075TIP3    H145640   3.579   0.425  16.085 -0.1859  0.4123 -0.4132
 8075TIP3    H245641   3.569   0.574  16.056  0.3397  0.4130 -0.6122
 8076TIP3   OH245642   3.673   3.928   1.081  0.4445 -0.0917  0.8732
 8076TIP3    H145643   3.667   3.999   1.017  1.4461 -0.6170  0.1792
 8076TIP3    H245644   3.599   3.944   1.141 -0.3839  0.5310 -0.2737
 8077TIP3   OH245645   2.652   1.830   2.487  0.4803  0.6276 -0.1734
 8077TIP3    H145646   2.710   1.786   2.425  1.9451 -1.0418  2.2264
 8077TIP3    H245647   2.710   1.862   2.556 -1.0850  2.2946  0.4553
 8078TIP3   OH245648   0.186   6.250   6.401  0.6588  0.0473  0.6006
 8078TIP3    H145649   0.101   6.225   6.437  1.7000 -3.0566  1.1930
 8078TIP3    H245650   0.213   6.324   6.455 -0.8550 -0.0850  1.6157
 8079TIP3   OH245651   1.317   4.483   0.715 -0.1513  0.3278  0.0448
 8079TIP3    H145652   1.289   4.406   0.765  1.5509  1.2239  2.5953
 8079TIP3    H245653   1.275   4.557   0.759 -0.2888  1.0274 -1.2086
 8080TIP3   OH245654   3.897   0.883  10.623 -0.6447 -0.1024  0.8756
 8080TIP3    H145655   3.976   0.899  10.676  1.6548 -3.0296 -1.3013
 8080TIP3    H245656   3.886   0.788  10.626 -3.9643  0.1854  0.7753
 8081TIP3   OH245657   6.288   6.004   5.098 -0.4700  0.0726  0.2202
 8081TIP3    H145658   6.198   6.026   5.121 -0.6138  1.3644 -1.3929
 8081TIP3    H245659   6.284   5.912   5.072 -1.2196 -0.0246  0.6462
 8082TIP3   OH245660   0.960   5.519   3.832  0.0601  0.2539 -0.0259
 8082TIP3    H145661   1.042   5.499   3.876  0.9773  0.9508 -1.3542
 8082TIP3    H245662   0.986   5.549   3.745 -1.6405 -0.1043 -0.6899
 8083TIP3   OH245663   2.463   4.323   2.413  0.3594  0.3294  0.4705
 8083TIP3    H145664   2.541   4.350   2.366  1.0721 -0.8313  0.9336
 8083TIP3    H245665   2.390   4.345   2.354  1.1356  0.1076 -0.6027
 8084TIP3   OH245666   2.808   4.952  14.576  0.6530  0.1179  0.0884
 8084TIP3    H145667   2.857   4.998  14.508  4.3459 -0.4741  2.1007
 8084TIP3    H245668   2.800   4.862  14.543  1.5862  0.0518  0.0207
 8085TIP3   OH245669   5.854   0.625  12.294 -0.7083  0.3697 -1.0321
 8085TIP3    H145670   5.773   0.598  12.336  0.0547 -0.0694  0.2249
 8085TIP3    H245671   5.922   0.571  12.335  0.7582  3.3858  0.8980
 8086TIP3   OH245672   1.794   2.271  11.708 -0.7331 -0.0777  0.2743
 8086TIP3    H145673   1.863   2.336  11.699 -2.4857  1.6810 -1.4219
 8086TIP3    H245674   1.824   2.214  11.779  1.8190  1.3504  0.4564
 8087TIP3   OH245675   3.380   3.492   3.529  0.1503  0.3956  0.1849
 8087TIP3    H145676   3.450   3.510   3.592  2.0621 -1.5013 -1.2744
 8087TIP3    H245677   3.343   3.578   3.510  2.0107  1.4758  1.1182
 8088TIP3   OH245678   4.391   6.178   3.527 -0.4745  0.1252  0.3675
 8088TIP3    H145679   4.374   6.095   3.484  1.1208 -1.4924  2.6473
 8088TIP3    H245680   4.415   6.238   3.456 -1.0550 -1.4936 -1.2537
 8089TIP3   OH245681   1.111   0.950   3.852  0.4043 -0.3677  0.3379
 8089TIP3    H145682   1.154   0.867   3.870  0.2686 -0.6935 -0.7818
 8089TIP3    H245683   1.106   0.994   3.937  1.8129 -0.8610  0.6943
 8090TIP3   OH245684   1.562   0.033   0.144  0.4477 -0.1155 -0.1842
 8090TIP3    H145685   1.610  -0.020   0.081 -0.5060 -0.7648 -0.3909
 8090TIP3    H245686   1.476   0.045   0.104  0.2569  0.5904  0.4044
 8091TIP3   OH245687   0.745   2.075   1.394 -0.5564  0.1282 -0.1955
 8091TIP3    H145688   0.711   1.993   1.358  1.6078 -0.9438  0.0479
 8091TIP3    H245689   0.824   2.093   1.344  0.0559  1.0259  1.0454
 8092TIP3   OH245690   0.159   0.248   2.417 -0.2455 -0.2802  0.1410
 8092TIP3    H145691   0.109   0.221   2.494 -0.0902  0.6099  0.5739
 8092TIP3    H245692   0.139   0.341   2.408 -0.4071 -0.4148 -1.0111
 8093TIP3   OH245693   3.681   0.848   3.977  0.1009 -0.0690  0.1920
 8093TIP3    H145694   3.693   0.942   3.992 -2.3851  0.2453  0.7377
 8093TIP3    H245695   3.590   0.840   3.947 -0.2740 -2.4487  1.6981
 8094TIP3   OH245696   3.228   0.362  14.473 -0.1100  0.5914 -0.3766
 8094TIP3    H145697   3.250   0.327  14.387  0.7751 -0.0638  0.0985
 8094TIP3    H245698   3.141   0.329  14.491  0.5926 -1.1922 -0.0575
 8095TIP3   OH245699   1.191   0.926  14.786  0.4286  0.0723 -0.1180
 8095TIP3    H145700   1.186   0.887  14.873  0.6742  0.8781  0.2710
 8095TIP3    H245701   1.103   0.960  14.770  0.6779  0.9808  0.3399
 8096TIP3   OH245702   1.305   5.152   2.175 -0.2154  0.0419  0.4928
 8096TIP3    H145703   1.332   5.233   2.132  1.7267 -0.3232  0.9658
 8096TIP3    H245704   1.382   5.122   2.223 -1.2567 -1.4505  1.3330
 8097TIP3   OH245705   6.131   6.433   1.909 -0.0021  0.3967 -0.1410
 8097TIP3    H145706   6.102   6.495   1.977 -1.1388 -1.1887  0.8930
 8097TIP3    H245707   6.222   6.457   1.892  0.8445 -0.0456  3.0633
 8098TIP3   OH245708   1.261   1.333   4.824 -0.3589 -0.4723  0.1486
 8098TIP3    H145709   1.228   1.309   4.738  2.2976 -1.2288 -0.7487
 8098TIP3    H245710   1.312   1.413   4.809  2.3205 -2.0052  0.3900
 8099TIP3   OH245711   2.945   5.656  13.549  0.0806  0.5343  0.0223
 8099TIP3    H145712   2.865   5.655  13.603 -1.9346  1.3891 -2.7251
 8099TIP3    H245713   2.966   5.749  13.540  0.9072  0.3498  0.0016
 8100TIP3   OH245714   2.639   2.865  15.257 -0.3209 -0.1310 -0.1702
 8100TIP3    H145715   2.682   2.815  15.326  0.1574 -2.2598 -1.8969
 8100TIP3    H245716   2.692   2.850  15.179 -2.4238 -0.2887 -1.6738
 8101TIP3   OH245717   2.379   0.671  15.715  0.6139  0.0813 -0.3284
 8101TIP3    H145718   2.311   0.714  15.663 -0.5598 -0.5327  0.6296
 8101TIP3    H245719   2.446   0.739  15.728  0.7207  0.3769 -2.1918
 8102TIP3   OH245720   4.658   4.637   0.854 -0.2263  0.1523  0.3829
 8102TIP3    H145721   4.600   4.593   0.915  0.7025 -2.0262 -0.1899
 8102TIP3    H245722   4.663   4.578   0.779  0.2552  1.7824 -0.9359
 8103TIP3   OH245723   0.744   4.221   2.360  0.5579  0.3798 -0.5418
 8103TIP3    H145724   0.836   4.242   2.377  0.4433  1.4997 -1.1896
 8103TIP3    H245725   0.696   4.260   2.432  0.4896  0.8545 -0.8429
 8104TIP3   OH245726   0.554   3.450   0.933  0.0779 -0.0978  0.0772
 8104TIP3    H145727   0.565   3.544   0.946  0.7331 -0.2399  0.5972
 8104TIP3    H245728   0.620   3.410   0.990 -0.6563 -0.8914  0.3873
 8105TIP3   OH245729   1.025   4.799  16.473 -0.9092  0.1685  0.4420
 8105TIP3    H145730   1.015   4.828  16.382  1.8109  0.8644  0.2800
 8105TIP3    H245731   0.997   4.874  16.526 -1.7750  0.0341  0.1900
 8106TIP3   OH245732   4.462   4.156   6.108  0.6323 -0.1547  0.4214
 8106TIP3    H145733   4.419   4.241   6.123  2.7731  1.1443 -0.3048
 8106TIP3    H245734   4.420   4.122   6.028 -1.1091 -0.4412  1.3981
 8107TIP3   OH245735   3.079   0.105   1.642  0.0875  0.5927  0.6311
 8107TIP3    H145736   3.092   0.031   1.583 -0.7357 -0.5750  1.8368
 8107TIP3    H245737   3.161   0.154   1.639  0.1962  0.3715 -1.1654
 8108TIP3   OH245738   1.853   4.578  11.237 -0.4327  0.2227  0.7054
 8108TIP3    H145739   1.868   4.630  11.316  0.1843 -0.3436  0.9671
 8108TIP3    H245740   1.931   4.523  11.229 -1.9088 -2.1472  1.5913
 8109TIP3   OH245741   4.802   3.848  13.791  0.0083 -0.2341 -0.4193
 8109TIP3    H145742   4.724   3.833  13.845 -0.2028 -0.5365 -0.8058
 8109TIP3    H245743   4.767   3.880  13.708  0.2044 -1.6621 -1.0717
 8110TIP3   OH245744   1.068   4.665   1.144 -0.2709  0.7107  0.0886
 8110TIP3    H145745   1.059   4.753   1.180 -0.5295  0.7293 -0.0226
 8110TIP3    H245746   0.979   4.628   1.147 -0.1490  0.4203  0.2218
 8111TIP3   OH245747   3.087   4.035   1.842  0.0484  0.2088  0.2236
 8111TIP3    H145748   3.056   4.123   1.864  0.0115  0.8379 -2.0550
 8111TIP3    H245749   3.038   3.977   1.899 -0.2586  1.6312  1.4667
 8112TIP3   OH245750   6.561   6.505  16.539 -0.3653  0.1390  0.0205
 8112TIP3    H145751   6.527   6.430  16.588 -1.0471  0.4315  0.0055
 8112TIP3    H245752   6.604   6.467  16.463 -0.0612 -0.2757  0.3998
 8113TIP3   OH245753   5.455   0.688  10.805 -0.3761 -0.3242 -0.1162
 8113TIP3    H145754   5.501   0.674  10.723  1.2367 -2.0082  1.0040
 8113TIP3    H245755   5.454   0.603  10.848 -1.0261  0.5203  1.6808
 8114TIP3   OH245756   5.493   1.768   5.824  0.1074  0.3535 -0.3704
 8114TIP3    H145757   5.500   1.713   5.746  1.3380  0.2658 -0.2161
 8114TIP3    H245758   5.495   1.707   5.897  1.6594  0.5732 -0.1912
 8115TIP3   OH245759   1.720   3.451   1.939  0.1701  0.4162  0.4391
 8115TIP3    H145760   1.658   3.472   2.009  0.4850 -0.2775  0.9299
 8115TIP3    H245761   1.799   3.422   1.984  0.2055 -0.5071 -0.2017
 8116TIP3   OH245762   2.930   1.562   5.447  0.2999 -0.0173 -0.2601
 8116TIP3    H145763   2.863   1.516   5.497 -0.1782 -0.4664 -1.2719
 8116TIP3    H245764   2.906   1.654   5.452 -1.6656 -0.3152 -2.3208
 8117TIP3   OH245765   2.605   2.809   4.905 -0.0930  0.4943 -0.3189
 8117TIP3    H145766   2.568   2.744   4.965  1.2810  0.6164  0.7131
 8117TIP3    H245767   2.663   2.759   4.848  1.1119  0.8022  0.5981
 8118TIP3   OH245768   4.512   4.055  11.713  0.2611  0.2392  0.2764
 8118TIP3    H145769   4.477   4.097  11.791  0.4592  0.4181  0.2689
 8118TIP3    H245770   4.539   3.968  11.743  1.0159  0.5699  0.5709
 8119TIP3   OH245771   0.613   5.015   5.992 -0.4520 -0.5042  0.5267
 8119TIP3    H145772   0.565   5.069   6.055  1.6251  2.7947 -0.4424
 8119TIP3    H245773   0.693   4.990   6.038 -0.8168 -1.7137  0.5312
 8120TIP3   OH245774   0.802   2.969  14.528 -0.2652  0.6239  0.3851
 8120TIP3    H145775   0.775   3.056  14.558 -0.6405  0.5090  0.3834
 8120TIP3    H245776   0.896   2.965  14.547 -0.1292  1.2433 -0.1281
 8121TIP3   OH245777   6.033   2.494   1.247 -0.3776  0.3507  0.1354
 8121TIP3    H145778   6.120   2.534   1.248 -0.1690  0.0349 -1.7173
 8121TIP3    H245779   5.973   2.569   1.247 -0.0324  0.6507 -1.1342
 8122TIP3   OH245780   0.291   0.751   5.624  0.1086  0.3316 -0.9168
 8122TIP3    H145781   0.368   0.807   5.625  1.1825 -1.0424 -2.0514
 8122TIP3    H245782   0.250   0.767   5.539  0.3317 -0.4510 -1.1818
 8123TIP3   OH245783   4.860   1.874   2.658  0.0229  0.0662 -0.0008
 8123TIP3    H145784   4.821   1.789   2.680  0.8355 -0.9194 -2.0667
 8123TIP3    H245785   4.955   1.858   2.663  0.1830  0.9473 -0.0617
 8124TIP3   OH245786   2.419   4.366  12.068  0.0418  0.0145 -0.3230
 8124TIP3    H145787   2.511   4.358  12.095 -0.2138  1.0260  0.9696
 8124TIP3    H245788   2.422   4.375  11.973  1.1960 -0.9460 -0.4091
 8125TIP3   OH245789   5.941   2.743   1.734 -0.6070  0.2021 -0.1277
 8125TIP3    H145790   5.947   2.839   1.731  0.8133  0.1303  0.1125
 8125TIP3    H245791   5.868   2.726   1.793 -0.7754  1.1326 -0.0493
 8126TIP3   OH245792   4.170   5.864   1.846  0.0250 -0.3242  0.4358
 8126TIP3    H145793   4.125   5.782   1.829 -0.8377  0.3516 -0.7449
 8126TIP3    H245794   4.099   5.928   1.859  0.6433  0.4583  0.0883
 8127TIP3   OH245795   3.735   3.953  14.394  0.2339 -0.7962 -0.3752
 8127TIP3    H145796   3.669   3.993  14.451 -1.3186 -2.4963 -0.8583
 8127TIP3    H245797   3.750   4.018  14.325  0.9137  0.6082  1.0582
 8128TIP3   OH245798   6.237   6.178  10.791 -0.2641 -0.4195 -0.1559
 8128TIP3    H145799   6.235   6.253  10.850  0.0292  0.0655 -0.7589
 8128TIP3    H245800   6.311   6.195  10.733 -0.6634 -0.8013 -0.7855
 8129TIP3   OH245801   1.675   0.597  11.375 -0.2637 -0.0593  0.6648
 8129TIP3    H145802   1.625   0.595  11.457  0.5900  2.5854  1.3505
 8129TIP3    H245803   1.760   0.632  11.400  0.0177  0.8131 -1.3503
 8130TIP3   OH245804   5.645   4.358   5.750  0.2906 -0.1537 -0.0810
 8130TIP3    H145805   5.716   4.404   5.795 -0.1149 -1.0251  1.5250
 8130TIP3    H245806   5.654   4.267   5.777 -0.8711 -0.4510 -0.6096
 8131TIP3   OH245807   6.661   5.229  15.089 -0.2306 -0.5381 -0.5337
 8131TIP3    H145808   6.652   5.140  15.123  0.6572 -0.2699  0.4909
 8131TIP3    H245809   6.581   5.244  15.039 -1.3688 -1.1763  0.9988
 8132TIP3   OH245810   0.397   1.644  15.394  0.9950  0.5013 -0.1609
 8132TIP3    H145811   0.308   1.610  15.384  0.7147  1.3358 -0.6367
 8132TIP3    H245812   0.420   1.678  15.307  0.6736  2.8329  0.5821
 8133TIP3   OH245813   2.440   0.169  15.736  0.0985 -0.3642 -0.2839
 8133TIP3    H145814   2.496   0.218  15.677  0.0609 -0.5603 -0.4845
 8133TIP3    H245815   2.438   0.081  15.699 -1.3664 -0.0494 -0.9974
 8134TIP3   OH245816   4.118   5.387   1.739  0.2028 -0.0457  0.0581
 8134TIP3    H145817   4.168   5.450   1.687 -0.8184  0.8253  0.1073
 8134TIP3    H245818   4.082   5.439   1.811 -0.5674 -0.7009  0.1554
 8135TIP3   OH245819   3.915   2.855  16.164 -0.0415  0.1949 -0.0092
 8135TIP3    H145820   3.850   2.860  16.094 -0.7297 -0.9364  0.5213
 8135TIP3    H245821   3.869   2.814  16.237  1.2851 -0.7485  0.3400
 8136TIP3   OH245822   0.952   0.638   4.960  0.3401 -0.1808  0.3783
 8136TIP3    H145823   0.970   0.546   4.941  0.0584 -0.1823  0.1068
 8136TIP3    H245824   0.908   0.671   4.881  3.0916  0.9677 -0.8021
 8137TIP3   OH245825   1.225   3.957   1.159 -0.2530  0.0691  0.2753
 8137TIP3    H145826   1.288   4.000   1.101 -0.9595  1.4063  0.4687
 8137TIP3    H245827   1.147   3.946   1.104 -1.2394  2.1564  1.1739
 8138TIP3   OH245828   2.921   5.824   3.038 -0.0279 -0.1472  0.4657
 8138TIP3    H145829   2.891   5.758   3.101 -0.8422 -0.2104  0.0355
 8138TIP3    H245830   2.876   5.801   2.956  0.0051  0.6823  0.2007
 8139TIP3   OH245831   1.242   0.598   1.934  0.2039  0.1809 -0.0321
 8139TIP3    H145832   1.288   0.641   1.863  0.3154 -2.1562 -1.4878
 8139TIP3    H245833   1.305   0.594   2.006  0.6059  1.2258 -0.3220
 8140TIP3   OH245834   3.432   2.325  15.155 -0.0717  0.1232  0.2430
 8140TIP3    H145835   3.376   2.401  15.167 -0.6729 -0.1428 -0.7179
 8140TIP3    H245836   3.416   2.298  15.064 -0.0747 -1.3065  0.6481
 8141TIP3   OH245837   1.745   5.650   0.040  0.1318 -0.4947  0.5187
 8141TIP3    H145838   1.745   5.634   0.134  0.3515 -2.6801  0.2183
 8141TIP3    H245839   1.715   5.567   0.002  1.7183 -0.2674 -1.3968
 8142TIP3   OH245840   0.955   2.864   2.047 -0.2493  0.3652  0.1478
 8142TIP3    H145841   0.950   2.771   2.071 -1.0798  0.3459 -0.0844
 8142TIP3    H245842   0.963   2.864   1.952  0.1326  0.5288  0.1762
 8143TIP3   OH245843   2.528   3.125  11.675 -0.3801 -0.4650 -0.6129
 8143TIP3    H145844   2.475   3.144  11.597  1.8453 -0.1929 -2.1301
 8143TIP3    H245845   2.588   3.056  11.648  0.9376  0.1400  0.6303
 8144TIP3   OH245846   4.555   0.052   3.016 -0.0569 -0.0081 -0.1426
 8144TIP3    H145847   4.643   0.014   3.019 -0.1255 -0.3026  3.7258
 8144TIP3    H245848   4.497  -0.020   3.041 -1.2332  0.6047 -1.0024
 8145TIP3   OH245849   2.328   3.923   3.381 -0.0153  0.3031 -0.6266
 8145TIP3    H145850   2.268   3.893   3.312 -1.0771 -0.3815  0.5645
 8145TIP3    H245851   2.365   4.005   3.346 -1.9009  0.9386 -1.2524
 8146TIP3   OH245852   1.709   0.212  16.347 -0.2915 -0.0861  0.0130
 8146TIP3    H145853   1.709   0.160  16.267  2.4570  1.3213 -1.0661
 8146TIP3    H245854   1.753   0.157  16.412  2.5353  0.6542 -1.0957
 8147TIP3   OH245855   2.019   2.325  10.995 -0.8461 -0.4388 -0.2713
 8147TIP3    H145856   2.032   2.417  10.970  0.4562 -0.3822  0.5294
 8147TIP3    H245857   2.093   2.279  10.954 -1.0092 -0.9893  0.0456
 8148TIP3   OH245858   3.392   0.232   1.797 -0.5241  0.4030  0.2076
 8148TIP3    H145859   3.335   0.268   1.865 -1.0921  1.7854 -0.9480
 8148TIP3    H245860   3.334   0.221   1.721 -0.2253 -2.4213  0.2870
 8149TIP3   OH245861   0.095   4.545   5.107 -0.2689  0.2762  0.0919
 8149TIP3    H145862   0.017   4.575   5.062 -0.4258  1.3454  1.0299
 8149TIP3    H245863   0.168   4.577   5.053 -0.4584  0.3062 -0.1484
 8150TIP3   OH245864   0.223   1.708  14.536  0.1860  0.3600  0.4363
 8150TIP3    H145865   0.275   1.786  14.518 -0.4920  1.1472  1.7784
 8150TIP3    H245866   0.223   1.701  14.631 -0.5749 -0.7276  0.3663
 8151TIP3   OH245867   4.247   5.777  13.411  0.5432  0.3191 -0.6017
 8151TIP3    H145868   4.271   5.819  13.328  0.5786 -1.3436 -1.4598
 8151TIP3    H245869   4.331   5.757  13.453  0.6335 -1.4244 -1.5255
 8152TIP3   OH245870   0.051   3.761  13.480 -0.6703  0.0769 -0.2439
 8152TIP3    H145871   0.105   3.805  13.545  0.3865  0.3366 -1.2763
 8152TIP3    H245872   0.025   3.678  13.522  0.0154  0.2278  0.4887
 8153TIP3   OH245873   2.147   5.041   5.294  0.1074 -0.2368 -0.3010
 8153TIP3    H145874   2.109   4.977   5.354 -0.4498  1.1095  0.8366
 8153TIP3    H245875   2.082   5.049   5.224 -1.5765  1.6405  1.3488
 8154TIP3   OH245876   2.085   0.974   3.893 -0.2222 -0.1637 -0.3446
 8154TIP3    H145877   2.088   0.880   3.875 -1.1151 -0.3189  0.2135
 8154TIP3    H245878   2.076   0.980   3.988 -1.7588  0.4121 -0.4878
 8155TIP3   OH245879   5.922   3.990  17.005  0.2313 -0.3340 -0.4112
 8155TIP3    H145880   5.889   4.071  17.044 -0.7443 -0.3096 -1.2553
 8155TIP3    H245881   6.017   3.997  17.012  0.1419  0.6582 -0.0301
 8156TIP3   OH245882   5.865   1.738  11.277  0.1516  0.3931 -0.4333
 8156TIP3    H145883   5.952   1.776  11.264 -0.0671  0.7270 -0.9946
 8156TIP3    H245884   5.871   1.691  11.360  0.4704  1.5520  0.2187
 8157TIP3   OH245885   1.928   3.460  13.292 -0.1747  0.4167  0.2963
 8157TIP3    H145886   2.017   3.465  13.257  0.1470  0.6952  1.1151
 8157TIP3    H245887   1.941   3.452  13.387 -0.8698 -4.3426  0.2321
 8158TIP3   OH245888   6.251   1.669  11.983 -0.5935  0.1822 -0.0224
 8158TIP3    H145889   6.210   1.753  12.006 -0.1634  0.1936  0.7461
 8158TIP3    H245890   6.197   1.634  11.913 -0.7169  1.1507 -0.4142
 8159TIP3   OH245891   6.762   4.338  14.380  0.2078 -0.2285 -0.3284
 8159TIP3    H145892   6.731   4.318  14.292  0.6554 -0.5430 -0.4159
 8159TIP3    H245893   6.855   4.357  14.369  0.1992  0.0342  0.0348
 8160TIP3   OH245894   3.981   1.194   5.649  0.6840  0.2972  0.5113
 8160TIP3    H145895   4.060   1.231   5.611  1.1858 -0.0840  1.1757
 8160TIP3    H245896   3.986   1.216   5.742 -0.1462  0.5399  0.5101
 8161TIP3   OH245897   6.583   0.458  15.817  0.0140 -0.9600  0.1162
 8161TIP3    H145898   6.676   0.477  15.812  0.0420 -1.3042 -1.1865
 8161TIP3    H245899   6.567   0.398  15.744 -1.6061  0.8096 -1.0824
 8162TIP3   OH245900   4.228   1.106   2.023  0.3262  0.2454 -0.4612
 8162TIP3    H145901   4.272   1.191   2.023 -0.3383  0.5963 -0.6428
 8162TIP3    H245902   4.228   1.079   2.115  1.6591 -0.1642 -0.5553
 8163TIP3   OH245903   4.059   5.314   3.072  0.2678  0.2703 -0.2303
 8163TIP3    H145904   4.152   5.293   3.071  0.1598 -0.1966 -0.5805
 8163TIP3    H245905   4.043   5.358   2.989 -0.5161 -2.7561 -1.8142
 8164TIP3   OH245906   4.875   4.591   6.076 -0.0296 -0.8101 -0.1583
 8164TIP3    H145907   4.966   4.619   6.084  0.1130 -1.0621 -0.8312
 8164TIP3    H245908   4.823   4.670   6.094  0.2861 -0.8999  1.2663
 8165TIP3   OH245909   4.727   0.847   3.850 -0.1107 -0.0202 -0.1215
 8165TIP3    H145910   4.773   0.827   3.768  1.0391  0.7463  0.3127
 8165TIP3    H245911   4.770   0.793   3.916 -1.2714 -0.9110 -0.0533
 8166TIP3   OH245912   4.471   1.774  16.470 -0.0867  0.1132 -0.4950
 8166TIP3    H145913   4.499   1.803  16.383 -0.9582  3.3843  0.1848
 8166TIP3    H245914   4.528   1.820  16.531 -2.0998  1.1514  0.7164
 8167TIP3   OH245915   1.687   6.606   2.006  1.0212  0.6268 -0.0204
 8167TIP3    H145916   1.723   6.528   1.965 -0.1534  0.3584 -0.5821
 8167TIP3    H245917   1.651   6.576   2.090 -0.3910  0.3284 -0.7073
 8168TIP3   OH245918   0.575   4.296   0.216  0.5565 -0.2937  0.6770
 8168TIP3    H145919   0.566   4.262   0.127 -0.2897  0.5247  0.4352
 8168TIP3    H245920   0.623   4.378   0.205  0.7076 -0.3402  1.0073
 8169TIP3   OH245921   3.606   6.688   1.505 -0.0283  0.1382  0.1786
 8169TIP3    H145922   3.693   6.665   1.540 -0.3708 -0.0421  0.9264
 8169TIP3    H245923   3.547   6.622   1.542 -0.6668  0.9194  0.5886
 8170TIP3   OH245924   4.419   4.669   4.087  0.4353  0.1849 -0.2660
 8170TIP3    H145925   4.423   4.689   3.993  1.4095 -0.0545 -0.2840
 8170TIP3    H245926   4.473   4.737   4.128 -0.0716  0.3499  0.1365
 8171TIP3   OH245927   3.210   0.547  11.741  0.3044  0.4040  0.1092
 8171TIP3    H145928   3.150   0.481  11.707  1.6928  0.2488 -2.2475
 8171TIP3    H245929   3.284   0.497  11.774  0.5101  0.7199  0.1278
 8172TIP3   OH245930   4.231   4.514   1.961  0.6079  0.2185  0.0975
 8172TIP3    H145931   4.309   4.518   1.906  2.0337  1.0027  2.0708
 8172TIP3    H245932   4.262   4.480   2.045 -1.1061  0.8704  1.0508
 8173TIP3   OH245933   6.480   5.051  12.773  0.2675 -0.4620 -0.0100
 8173TIP3    H145934   6.546   5.008  12.719  1.7207 -0.3075  1.5888
 8173TIP3    H245935   6.469   5.137  12.734  3.5932  0.8528  1.5814
 8174TIP3   OH245936   2.726   5.473  16.574  0.6595  0.0241  0.6556
 8174TIP3    H145937   2.694   5.410  16.638 -0.2346 -1.3144 -1.0226
 8174TIP3    H245938   2.798   5.428  16.529 -0.3075 -0.0522 -0.8926
 8175TIP3   OH245939   4.091   1.605  14.308 -0.2274 -0.0250  0.0734
 8175TIP3    H145940   4.114   1.641  14.222  1.0757  1.1945  0.8896
 8175TIP3    H245941   4.000   1.633  14.321  0.3224  1.9314  0.1079
 8176TIP3   OH245942   2.310   6.151  15.397  0.0284  0.2745 -0.4054
 8176TIP3    H145943   2.241   6.097  15.438  0.8337  0.1589  0.8606
 8176TIP3    H245944   2.386   6.093  15.392  0.7601  1.1157  0.5060
 8177TIP3   OH245945   3.135   3.985   3.970 -0.9923 -0.1269 -0.8816
 8177TIP3    H145946   3.172   4.044   4.037  3.0031 -2.3993 -0.7533
 8177TIP3    H245947   3.074   3.930   4.019 -0.5064  0.2736  0.2278
 8178TIP3   OH245948   5.954   4.274  14.583  0.6247  0.0293  0.3587
 8178TIP3    H145949   6.027   4.335  14.570  0.2508  1.1428  2.8560
 8178TIP3    H245950   5.948   4.264  14.678 -4.6953  2.8923  0.7035
 8179TIP3   OH245951   2.098   4.632   4.725  0.0261 -0.0497 -0.1690
 8179TIP3    H145952   2.081   4.582   4.805  0.0903  0.8448  0.4160
 8179TIP3    H245953   2.150   4.573   4.671  2.4722  0.2982  1.6360
 8180TIP3   OH245954   0.627   2.770   1.985  0.1002 -0.0195 -0.3436
 8180TIP3    H145955   0.544   2.721   1.977  0.2407 -0.3361  0.0906
 8180TIP3    H245956   0.694   2.702   1.986  0.2599  0.1244  0.9286
 8181TIP3   OH245957   5.287   1.295  11.223  0.3047  0.1424  0.9173
 8181TIP3    H145958   5.235   1.255  11.153  0.3004  1.2188  0.2801
 8181TIP3    H245959   5.366   1.241  11.228  0.7132  0.5364 -0.5509
 8182TIP3   OH245960   3.191   6.604  15.948  0.1943  1.1197  0.3877
 8182TIP3    H145961   3.210   6.693  15.978  0.7791  1.1543 -0.0502
 8182TIP3    H245962   3.131   6.569  16.013  1.0520  1.3508  1.3330
 8183TIP3   OH245963   2.794   3.733  13.264 -0.1248  0.3550 -0.6946
 8183TIP3    H145964   2.819   3.641  13.256  0.1377  0.4337 -0.8020
 8183TIP3    H245965   2.757   3.755  13.178  0.1256  0.4410 -0.7825
 8184TIP3   OH245966   1.741   6.792   4.622  0.3182  0.2189 -0.2533
 8184TIP3    H145967   1.664   6.793   4.679 -0.2468 -0.1610 -0.9849
 8184TIP3    H245968   1.815   6.783   4.682 -0.0677  2.1593  0.5816
 8185TIP3   OH245969   1.923   2.700   5.706  0.0694 -0.3329  0.5393
 8185TIP3    H145970   1.984   2.743   5.645 -0.2684  0.9014  1.0406
 8185TIP3    H245971   1.849   2.675   5.651 -0.0136  0.3299  0.3347
 8186TIP3   OH245972   3.771   0.156  13.405  0.0339  0.5882 -0.0749
 8186TIP3    H145973   3.858   0.168  13.365 -0.5946  1.1924 -1.3246
 8186TIP3    H245974   3.710   0.162  13.332 -1.2340  2.3283  1.0546
 8187TIP3   OH245975   2.564   2.640  11.509  0.1055 -0.0241 -0.0648
 8187TIP3    H145976   2.514   2.628  11.429 -1.5281 -0.1474  0.9266
 8187TIP3    H245977   2.522   2.581  11.572  0.6800  0.8376  1.1599
 8188TIP3   OH245978   3.075   1.799   0.857  0.0115  0.2367  0.3842
 8188TIP3    H145979   3.090   1.857   0.782  2.8066  0.1465  0.7513
 8188TIP3    H245980   3.107   1.850   0.932 -0.4048 -0.6174  1.1521
 8189TIP3   OH245981   5.996   2.101  14.730 -0.1453  0.0336 -0.8865
 8189TIP3    H145982   5.968   2.167  14.793 -1.0962 -0.5632 -0.6608
 8189TIP3    H245983   5.915   2.071  14.688 -0.0657 -2.5076  0.5406
 8190TIP3   OH245984   1.166   6.759   2.749 -0.0618  0.4010 -0.6222
 8190TIP3    H145985   1.140   6.840   2.794 -1.0215  0.3863 -1.1167
 8190TIP3    H245986   1.115   6.690   2.792  0.5154  0.0929 -0.4170
 8191TIP3   OH245987   5.315   4.265   0.627  0.4553  0.7900 -0.3419
 8191TIP3    H145988   5.224   4.242   0.645  0.3790  1.3103 -0.0772
 8191TIP3    H245989   5.366   4.206   0.682  0.2365  2.1447  1.3929
 8192TIP3   OH245990   3.131   4.077  11.237 -0.0930 -0.6383  0.1623
 8192TIP3    H145991   3.075   4.010  11.199  0.5521 -0.9713 -0.2117
 8192TIP3    H245992   3.143   4.141  11.166 -0.7585 -0.0802  0.5358
 8193TIP3   OH245993   4.678   3.132   1.167 -0.3625 -0.4691 -0.0832
 8193TIP3    H145994   4.640   3.205   1.118  2.4511  1.9525  1.0187
 8193TIP3    H245995   4.713   3.172   1.247  0.2159 -3.2837  1.2064
 8194TIP3   OH245996   3.895   6.288   0.623 -0.2323  0.1700  0.1617
 8194TIP3    H145997   3.951   6.355   0.661  2.3287 -1.6054 -0.2833
 8194TIP3    H245998   3.880   6.227   0.695 -2.6695  1.1689  0.6060
 8195TIP3   OH245999   5.472   2.787  16.641 -0.1487 -0.2287  0.1449
 8195TIP3    H146000   5.434   2.699  16.646  1.2144 -0.7901  1.3232
 8195TIP3    H246001   5.434   2.834  16.715 -1.8163  0.6098 -1.1831
 8196TIP3   OH246002   2.104   3.242   4.534  0.1098  0.0867  0.2653
 8196TIP3    H146003   2.180   3.291   4.565  0.2363  0.8922 -1.2041
 8196TIP3    H246004   2.032   3.306   4.537 -0.3123 -0.4117  0.8126
 8197TIP3   OH246005   3.606   3.483  14.878 -0.0568 -0.7711 -0.1828
 8197TIP3    H146006   3.639   3.510  14.963 -0.8854 -0.3654  0.0235
 8197TIP3    H246007   3.537   3.419  14.898 -0.9989  0.1185 -0.4815
 8198TIP3   OH246008   1.111   5.860   1.085  0.5275 -0.2602 -0.4279
 8198TIP3    H146009   1.048   5.865   1.157  0.5253 -1.7638 -0.2887
 8198TIP3    H246010   1.061   5.884   1.007  0.1435 -0.1098 -0.1348
 8199TIP3   OH246011   4.156   1.517   1.944  0.5775 -0.0635 -0.1832
 8199TIP3    H146012   4.200   1.541   1.862  0.3447 -0.7855 -0.5209
 8199TIP3    H246013   4.108   1.437   1.924 -0.6678  0.5405  0.2605
 8200TIP3   OH246014   6.673   0.835  15.472  0.2557  0.1580 -0.1420
 8200TIP3    H146015   6.695   0.745  15.448 -0.2911  0.1724 -0.7195
 8200TIP3    H246016   6.578   0.835  15.485  0.2405  0.6625 -0.2089
 8201TIP3   OH246017   3.959   6.176  15.409 -0.1313  0.1836 -0.0970
 8201TIP3    H146018   3.984   6.259  15.368 -1.3132  0.7000  0.1887
 8201TIP3    H246019   3.978   6.188  15.502 -0.0429  0.0303 -0.0952
 8202TIP3   OH246020   5.597   2.424  15.220 -0.0326 -0.2695  0.2594
 8202TIP3    H146021   5.653   2.348  15.200  1.4561 -0.1192  3.2653
 8202TIP3    H246022   5.659   2.493  15.243 -1.4350  0.9955  0.3520
 8203TIP3   OH246023   6.565   6.646  12.721 -0.2730 -0.3192  0.4486
 8203TIP3    H146024   6.493   6.686  12.671  0.3391 -0.3240 -0.4572
 8203TIP3    H246025   6.573   6.558  12.685  1.3822  0.2826 -0.7642
 8204TIP3   OH246026   1.146   4.037  15.562  0.7520 -0.6072 -0.5103
 8204TIP3    H146027   1.115   4.087  15.638 -2.3457 -1.0383 -1.3586
 8204TIP3    H246028   1.219   4.088  15.528 -0.4830  1.8624  0.2848
 8205TIP3   OH246029   5.761   1.598   0.994  0.4086  0.2412  0.3115
 8205TIP3    H146030   5.743   1.505   1.004  1.6105 -0.2019 -1.3147
 8205TIP3    H246031   5.855   1.606   1.005  0.2521  1.3787  1.0225
 8206TIP3   OH246032   4.006   4.093   0.323 -0.2132 -0.0891  0.1410
 8206TIP3    H146033   3.954   4.065   0.248 -0.1764  1.3692 -0.4599
 8206TIP3    H246034   3.942   4.126   0.386 -0.1583 -0.2106  0.2612
 8207TIP3   OH246035   2.091   6.475   4.735 -0.4821  0.0102  0.0215
 8207TIP3    H146036   2.003   6.450   4.761  0.1835 -2.4191  0.2055
 8207TIP3    H246037   2.104   6.433   4.650 -0.1220  1.9373 -0.9363
 8208TIP3   OH246038   3.961   5.244   0.071 -0.1930  0.3326 -0.4762
 8208TIP3    H146039   3.941   5.235  -0.023 -1.5417  1.3903 -0.3176
 8208TIP3    H246040   3.927   5.331   0.094 -1.8753 -0.7608  1.4675
 8209TIP3   OH246041   4.202   5.280  11.643 -0.6280  0.3371  0.0180
 8209TIP3    H146042   4.235   5.370  11.651  1.3361 -0.3991  0.9026
 8209TIP3    H246043   4.107   5.289  11.644 -0.6010  2.6829 -3.2653
 8210TIP3   OH246044   3.205   6.625  12.218  0.0284  0.2393 -0.1616
 8210TIP3    H146045   3.206   6.651  12.126 -0.5121 -0.7003 -0.4349
 8210TIP3    H246046   3.281   6.567  12.228  0.4514  0.8292  0.1401
 8211TIP3   OH246047   6.102   1.371  14.938  0.5457  0.4397 -0.3574
 8211TIP3    H146048   6.016   1.413  14.937  0.1139 -0.3860  0.2479
 8211TIP3    H246049   6.156   1.424  14.879 -0.1687  1.3976 -0.1763
 8212TIP3   OH246050   1.292   2.342   0.837 -0.4658 -0.1553  0.1770
 8212TIP3    H146051   1.375   2.385   0.817 -0.6180  0.5254  1.0085
 8212TIP3    H246052   1.309   2.291   0.916 -0.4793 -1.1023 -0.4066
 8213TIP3   OH246053   4.926   0.756   4.494 -0.1937  0.4879 -0.4812
 8213TIP3    H146054   4.983   0.758   4.571  0.5167  0.2844 -0.9876
 8213TIP3    H246055   4.944   0.838   4.449  2.7316 -1.1753 -2.7377
 8214TIP3   OH246056   3.457   1.065   3.811 -0.3036 -0.3054  0.3341
 8214TIP3    H146057   3.440   1.074   3.905  1.9637 -0.6383  0.8178
 8214TIP3    H246058   3.376   1.095   3.769 -0.1829  3.2382  2.2628
 8215TIP3   OH246059   2.673   3.819  17.049 -0.0759 -0.0545 -0.0826
 8215TIP3    H146060   2.710   3.775  16.973 -1.4087 -2.2551  0.4350
 8215TIP3    H246061   2.635   3.900  17.015  1.4207  0.1739 -1.3018
 8216TIP3   OH246062   3.378   3.099   4.959  0.1758  0.1451  0.3853
 8216TIP3    H146063   3.353   3.020   4.911 -2.1194  0.5697  0.7892
 8216TIP3    H246064   3.333   3.170   4.914  1.0061  1.0434  0.9373
 8217TIP3   OH246065   6.381   3.803  12.721  0.1235  0.0108 -0.0572
 8217TIP3    H146066   6.470   3.774  12.742  0.8417  0.6298 -2.0123
 8217TIP3    H246067   6.368   3.882  12.774  0.7362 -0.1118  0.2775
 8218TIP3   OH246068   3.001   4.714   2.062 -0.7982  0.4608 -0.3025
 8218TIP3    H146069   2.973   4.748   1.977  1.4108 -0.8729 -1.6597
 8218TIP3    H246070   3.084   4.759   2.080  0.1342 -1.1936 -0.2098
 8219TIP3   OH246071   2.892   1.774  12.706 -0.1156  0.3162  0.4731
 8219TIP3    H146072   2.988   1.774  12.712 -0.1715  0.5782  1.5380
 8219TIP3    H246073   2.873   1.720  12.629  0.8875  0.3443  0.1919
 8220TIP3   OH246074   1.372   5.932   5.897 -0.2860  0.1504  0.3399
 8220TIP3    H146075   1.307   5.991   5.859  0.4810  1.8892  1.5615
 8220TIP3    H246076   1.456   5.969   5.871  0.2689 -1.6077 -0.5489
 8221TIP3   OH246077   0.175   3.585   3.760 -0.0321 -0.2138 -0.5159
 8221TIP3    H146078   0.269   3.581   3.776 -0.1705  2.9844  2.3700
 8221TIP3    H246079   0.164   3.654   3.695 -0.3733  1.2297  0.9894
 8222TIP3   OH246080   0.388   3.879   1.601  0.5710  0.3267 -0.2525
 8222TIP3    H146081   0.363   3.835   1.519  1.0534  0.8739 -0.7078
 8222TIP3    H246082   0.369   3.971   1.585 -1.5968  0.1835  1.1388
 8223TIP3   OH246083   5.185   4.540   2.155  0.5745  0.0691 -0.4968
 8223TIP3    H146084   5.136   4.457   2.161 -0.3120  0.6682  1.6071
 8223TIP3    H246085   5.243   4.539   2.231  1.0999  1.0350 -0.8747
 8224TIP3   OH246086   0.442   3.488  12.728  0.1377  0.3468  0.0334
 8224TIP3    H146087   0.535   3.476  12.751  0.2317 -0.3816 -0.6771
 8224TIP3    H246088   0.409   3.398  12.719 -0.6843  0.6038  0.4650
 8225TIP3   OH246089   2.180   2.451   3.639  0.0813  0.2803  0.3326
 8225TIP3    H146090   2.266   2.412   3.655 -0.7505 -1.4104  0.9164
 8225TIP3    H246091   2.181   2.533   3.688  1.5080  0.5091 -0.0441
 8226TIP3   OH246092   1.755   6.075   3.761  0.1164  0.6874  0.2534
 8226TIP3    H146093   1.702   6.083   3.682 -1.6591  1.6346  1.4542
 8226TIP3    H246094   1.830   6.021   3.735 -0.2826  1.1493 -2.0952
 8227TIP3   OH246095   0.923   1.172  14.076  0.1392 -0.3278 -0.2760
 8227TIP3    H146096   1.008   1.134  14.099  0.1384 -0.5267 -0.5991
 8227TIP3    H246097   0.883   1.108  14.017 -1.6822 -1.9207  2.4537
 8228TIP3   OH246098   0.128   6.336   0.339  0.3518  0.9567 -0.2128
 8228TIP3    H146099   0.179   6.379   0.408  0.2192  1.6639 -0.5475
 8228TIP3    H246100   0.106   6.251   0.376  0.9785  1.0066  0.3016
 8229TIP3   OH246101   0.667   5.786  14.227 -0.5967  0.6494  0.2346
 8229TIP3    H146102   0.740   5.824  14.178 -0.2110  0.4500  0.6485
 8229TIP3    H246103   0.670   5.829  14.312 -0.7545  0.3862  0.3740
 8230TIP3   OH246104   1.878   5.813  14.437  0.4958  0.8932  0.3045
 8230TIP3    H146105   1.812   5.818  14.507  0.7354 -0.3192  0.6367
 8230TIP3    H246106   1.903   5.721  14.434  0.5459  0.9379 -1.3528
 8231TIP3   OH246107   6.534   1.244   2.204 -0.8215  0.4371  0.2701
 8231TIP3    H146108   6.533   1.151   2.226 -0.5442  0.7425  1.6805
 8231TIP3    H246109   6.488   1.286   2.276 -1.2917  1.3694 -0.5480
 8232TIP3   OH246110   1.780   4.596  10.976  0.5881  0.3644  0.5275
 8232TIP3    H146111   1.833   4.608  11.054 -0.4388 -1.7142  1.5988
 8232TIP3    H246112   1.735   4.513  10.988 -2.5900  1.7405 -0.5081
 8233TIP3   OH246113   4.185   1.219   4.462 -0.1589 -0.0709 -0.0763
 8233TIP3    H146114   4.272   1.248   4.434 -0.3253  0.8668  0.3276
 8233TIP3    H246115   4.202   1.159   4.535  0.1417  0.6930  0.5030
 8234TIP3   OH246116   1.655   4.603  16.860 -0.0374 -0.0226 -0.3483
 8234TIP3    H146117   1.619   4.691  16.868 -2.8125 -0.9020 -1.8331
 8234TIP3    H246118   1.620   4.556  16.936 -0.9642 -0.5361 -1.0717
 8235TIP3   OH246119   3.364   2.173   3.808  0.1821  0.3796 -0.1123
 8235TIP3    H146120   3.378   2.127   3.725 -0.1345 -0.2039  0.1521
 8235TIP3    H246121   3.326   2.107   3.866 -0.3482  0.9956  0.2537
 8236TIP3   OH246122   4.784   2.361  14.668  0.4858  0.3614  0.1562
 8236TIP3    H146123   4.762   2.392  14.756 -1.4188  1.1070 -0.5250
 8236TIP3    H246124   4.878   2.376  14.660  0.1051  3.9300  0.7301
 8237TIP3   OH246125   2.127   3.169  11.388  0.0121 -0.0135  0.7131
 8237TIP3    H146126   2.129   3.110  11.313 -0.9362 -0.1372  0.7629
 8237TIP3    H246127   2.171   3.248  11.358  0.2208 -0.3067  0.2419
 8238TIP3   OH246128   4.026   6.008   2.421  0.1400  0.3803  0.5373
 8238TIP3    H146129   4.033   6.042   2.332 -0.8389  1.9822  1.0270
 8238TIP3    H246130   4.085   6.063   2.472  0.5224 -0.3837  0.9318
 8239TIP3   OH246131   0.180   5.975  16.595 -0.1782  0.0895 -0.1116
 8239TIP3    H146132   0.183   5.946  16.686  0.0728 -0.0227 -0.1572
 8239TIP3    H246133   0.088   6.000  16.581 -0.1160  0.5809  0.3178
 8240TIP3   OH246134   0.980   2.737  16.055  0.1450 -0.4421 -0.1663
 8240TIP3    H146135   0.981   2.774  16.143 -0.2422 -1.2542  0.1805
 8240TIP3    H246136   0.984   2.642  16.068 -1.5377 -0.6426 -0.9585
 8241TIP3   OH246137   5.765   5.239   5.636  0.1156  0.0744 -0.5938
 8241TIP3    H146138   5.835   5.291   5.597 -0.2235  0.6491 -0.4337
 8241TIP3    H246139   5.755   5.272   5.725  0.1629 -0.5268 -0.3567
 8242TIP3   OH246140   0.224   0.262   1.287  0.3228 -0.0084  0.3026
 8242TIP3    H146141   0.131   0.286   1.282  0.7297  1.5315 -0.6570
 8242TIP3    H246142   0.265   0.336   1.331  1.2418 -0.2170 -0.1924
 8243TIP3   OH246143   2.920   2.344   1.649 -0.1134  0.0782 -0.0923
 8243TIP3    H146144   2.963   2.325   1.566 -1.5071 -1.9102 -0.4261
 8243TIP3    H246145   2.882   2.431   1.637 -1.2162 -0.6164 -1.9492
 8244TIP3   OH246146   6.293   4.883  15.639  0.0132 -0.0575  0.3785
 8244TIP3    H146147   6.245   4.953  15.682  0.2210  1.0663 -1.1465
 8244TIP3    H246148   6.347   4.844  15.708  1.4897  2.6619  0.8741
 8245TIP3   OH246149   6.541   2.728  15.882 -0.5345  0.7282  0.3210
 8245TIP3    H146150   6.550   2.749  15.789  1.0923  0.2348  0.3337
 8245TIP3    H246151   6.621   2.680  15.904 -1.6229 -0.5906  1.6085
 8246TIP3   OH246152   3.633   5.818   6.274  0.3448  0.2863  0.1823
 8246TIP3    H146153   3.547   5.806   6.313 -1.3185  0.8658 -3.0022
 8246TIP3    H246154   3.656   5.733   6.238  1.4834 -0.0260  1.5082
 8247TIP3   OH246155   1.878   0.104   1.684  0.0907 -0.9814  0.8098
 8247TIP3    H146156   1.903   0.125   1.774  3.9553 -2.6557  0.3227
 8247TIP3    H246157   1.850   0.013   1.686  1.9749 -1.6193  0.1301
 8248TIP3   OH246158   3.319   4.125   5.894  0.1922  0.2132  0.4280
 8248TIP3    H146159   3.293   4.137   5.802 -1.5630  0.0724  0.8830
 8248TIP3    H246160   3.334   4.031   5.902  1.2321  0.3350  0.0860
 8249TIP3   OH246161   0.378   0.896   2.290 -0.1395 -0.3081 -0.7209
 8249TIP3    H146162   0.294   0.851   2.276 -0.3546  0.3925 -1.7745
 8249TIP3    H246163   0.414   0.906   2.202 -1.5594  4.3590 -1.0237
 8250TIP3   OH246164   6.524   2.566   3.832  0.0137 -1.0312 -0.2700
 8250TIP3    H146165   6.452   2.629   3.822  0.2676 -0.8424 -0.9072
 8250TIP3    H246166   6.547   2.541   3.743  1.2909 -0.4761 -0.1050
 8251TIP3   OH246167   3.653   3.264  12.776 -0.0092  0.3638  0.1672
 8251TIP3    H146168   3.604   3.264  12.694 -1.1966 -2.2627  0.7793
 8251TIP3    H246169   3.592   3.300  12.840  0.8588  2.2562 -0.0064
 8252TIP3   OH246170   3.642   0.615   4.153 -0.2571  0.5052  0.0304
 8252TIP3    H146171   3.617   0.696   4.109 -0.7929  0.6380  0.5527
 8252TIP3    H246172   3.587   0.547   4.113 -0.3851  0.5396  0.1475
 8253TIP3   OH246173   4.666   1.623   5.227  0.1675  0.3675 -0.1024
 8253TIP3    H146174   4.740   1.564   5.245  1.4921  1.4645 -1.6127
 8253TIP3    H246175   4.653   1.670   5.309  1.6490  0.6322  0.0158
 8254TIP3   OH246176   2.615   3.377   3.364 -0.1813  0.2438 -0.4379
 8254TIP3    H146177   2.620   3.359   3.458  0.6920  0.5158 -0.4246
 8254TIP3    H246178   2.586   3.468   3.359 -0.5243  0.1357 -0.4399
 8255TIP3   OH246179   4.262   2.154   2.027  0.4653  0.6297 -0.2876
 8255TIP3    H146180   4.249   2.226   2.088  1.2733  0.5730 -0.0377
 8255TIP3    H246181   4.199   2.087   2.055  1.1740  0.3970  0.8238
 8256TIP3   OH246182   0.989   1.172   3.710 -0.0747 -0.2032  0.1868
 8256TIP3    H146183   1.039   1.100   3.749  0.4088 -0.0603 -0.1618
 8256TIP3    H246184   0.913   1.181   3.766  0.1668 -0.5914  0.5838
 8257TIP3   OH246185   4.307   5.005  16.397  0.0851  0.1882 -0.3686
 8257TIP3    H146186   4.387   5.046  16.429  0.3607  0.0827 -0.9060
 8257TIP3    H246187   4.261   5.074  16.350 -0.8692  0.6457  1.1888
 8258TIP3   OH246188   4.881   3.259  17.079  0.0384 -0.6847 -0.1745
 8258TIP3    H146189   4.952   3.196  17.069 -0.7389 -1.2580 -2.8893
 8258TIP3    H246190   4.801   3.207  17.076 -0.5804  0.1436  0.9243
 8259TIP3   OH246191   2.825   2.783   0.553 -0.5231  0.4579 -0.3926
 8259TIP3    H146192   2.919   2.783   0.572  0.3004 -2.3085 -3.5089
 8259TIP3    H246193   2.794   2.700   0.591 -0.7280 -0.6385 -2.7713
 8260TIP3   OH246194   5.815   2.934  12.051 -0.6389  0.6390  0.4965
 8260TIP3    H146195   5.872   2.919  11.976 -2.3844 -1.1597 -0.5954
 8260TIP3    H246196   5.845   2.871  12.117 -1.1799 -0.1594  0.0022
 8261TIP3   OH246197   0.336   0.457   1.427 -0.0734 -0.2332 -0.0603
 8261TIP3    H146198   0.398   0.498   1.368  0.7934 -0.2501  0.8116
 8261TIP3    H246199   0.275   0.527   1.450  0.7381  0.2999  0.5428
 8262TIP3   OH246200   4.057   3.711   0.591 -0.0715  0.0544 -0.0749
 8262TIP3    H146201   4.012   3.686   0.510  1.9084 -1.1650 -0.8569
 8262TIP3    H246202   3.986   3.730   0.653 -1.6512  1.4613 -2.1718
 8263TIP3   OH246203   6.277   2.808  16.819 -1.0119 -0.2237  0.2108
 8263TIP3    H146204   6.291   2.901  16.803  1.1358 -0.4695  0.2760
 8263TIP3    H246205   6.193   2.803  16.865 -2.4096  1.4038 -1.9963
 8264TIP3   OH246206   3.597   3.896   6.286  0.2961 -0.1972 -0.1171
 8264TIP3    H146207   3.661   3.964   6.267  0.2356 -0.7479 -2.6436
 8264TIP3    H246208   3.649   3.817   6.298  0.2288 -0.1926  0.1990
 8265TIP3   OH246209   1.601   6.419  15.093  0.4670 -0.1334  0.1237
 8265TIP3    H146210   1.695   6.438  15.102  1.1016 -1.8531 -1.9115
 8265TIP3    H246211   1.560   6.504  15.079  1.8955  0.5423 -0.1239
 8266TIP3   OH246212   2.503   6.674   0.196 -0.0621  0.1852  0.0055
 8266TIP3    H146213   2.476   6.595   0.243  2.3089 -0.9806 -0.4374
 8266TIP3    H246214   2.483   6.746   0.256 -2.9387 -0.5977  0.1416
 8267TIP3   OH246215   4.275   0.297  15.842 -0.3722  0.5449  0.2830
 8267TIP3    H146216   4.215   0.332  15.907  1.0140  0.5559  1.5972
 8267TIP3    H246217   4.242   0.208  15.825  0.1502 -0.0596  2.2279
 8268TIP3   OH246218   5.902   2.121  13.166  0.2203  0.4128  0.3226
 8268TIP3    H146219   5.840   2.174  13.115  0.7199  0.6694 -0.0290
 8268TIP3    H246220   5.847   2.068  13.224 -0.4215 -0.5620 -1.1187
 8269TIP3   OH246221   4.383   6.438   3.394  0.0391 -0.4546 -0.2537
 8269TIP3    H146222   4.461   6.481   3.430 -0.5586  1.1177 -0.7841
 8269TIP3    H246223   4.358   6.491   3.319 -2.2172 -0.2296  0.5742
 8270TIP3   OH246224   2.693   4.068   0.131 -0.0680 -0.5215  0.0129
 8270TIP3    H146225   2.681   3.973   0.133 -0.1379 -0.5249 -0.4279
 8270TIP3    H246226   2.615   4.101   0.088 -0.1378 -0.2418  0.3488
 8271TIP3   OH246227   2.229   2.648  15.444 -0.7936  0.5613 -0.0089
 8271TIP3    H146228   2.167   2.575  15.436  0.6921 -0.7378 -0.1909
 8271TIP3    H246229   2.228   2.670  15.537 -0.9765  0.0557  0.1137
 8272TIP3   OH246230   6.692   6.751   1.480 -0.2281  0.0092  0.1974
 8272TIP3    H146231   6.651   6.803   1.411 -0.1335 -1.6222 -1.1614
 8272TIP3    H246232   6.762   6.807   1.514 -1.2170  1.4118  0.0090
 8273TIP3   OH246233   5.043   6.536   5.655  0.5293  0.3080 -0.4597
 8273TIP3    H146234   4.979   6.475   5.620  0.7790  0.7091 -1.6596
 8273TIP3    H246235   5.080   6.579   5.578  0.0375  2.3023  0.3525
 8274TIP3   OH246236   6.474   2.672   3.353  0.0689  0.5293 -0.1949
 8274TIP3    H146237   6.497   2.762   3.329 -0.5486  1.7047  3.1766
 8274TIP3    H246238   6.378   2.671   3.353  0.0049 -0.8013 -2.0894
 8275TIP3   OH246239   0.575   3.426   4.182  0.6931 -0.0036  0.0012
 8275TIP3    H146240   0.534   3.509   4.207  1.9681  1.0701 -1.2797
 8275TIP3    H246241   0.635   3.407   4.254  1.1435  0.7447 -0.1647
 8276TIP3   OH246242   4.541   5.607   0.668 -0.0589  0.4933 -0.0293
 8276TIP3    H146243   4.565   5.699   0.677  0.3667  0.2492  1.9542
 8276TIP3    H246244   4.453   5.608   0.631 -0.1058  1.7122  0.0881
 8277TIP3   OH246245   2.437   5.538  13.946  0.7766  0.5736 -0.0025
 8277TIP3    H146246   2.531   5.522  13.955  0.5186  0.3280  3.8865
 8277TIP3    H246247   2.410   5.573  14.031 -2.3571  2.5387 -1.5984
 8278TIP3   OH246248   1.753   0.242  15.226 -0.5353  0.2812  0.3078
 8278TIP3    H146249   1.741   0.189  15.305 -0.2975  0.3876  0.4201
 8278TIP3    H246250   1.792   0.182  15.162 -1.3260  0.0311  0.0596
 8279TIP3   OH246251   4.177   5.792   1.555  0.5053 -0.0299 -0.0396
 8279TIP3    H146252   4.085   5.796   1.529  0.5021 -0.5639 -0.1038
 8279TIP3    H246253   4.177   5.821   1.647 -0.1431 -2.9331  0.9813
 8280TIP3   OH246254   0.522   0.534   1.259 -0.0264  0.6386 -0.0499
 8280TIP3    H146255   0.617   0.530   1.244 -0.1510 -0.1215 -0.6470
 8280TIP3    H246256   0.483   0.506   1.177 -0.7751  0.8097  0.2421
 8281TIP3   OH246257   0.594   1.264  14.531  0.1947 -0.1397  1.0739
 8281TIP3    H146258   0.558   1.303  14.451  1.0429 -1.6652 -0.0909
 8281TIP3    H246259   0.529   1.199  14.557  0.1314  0.0503  1.4077
 8282TIP3   OH246260   6.733   2.962   0.440 -0.0283 -0.1610  0.0903
 8282TIP3    H146261   6.810   2.974   0.385  0.9718 -2.6363  0.7999
 8282TIP3    H246262   6.664   2.932   0.380 -0.1729  1.0621 -0.3831
 8283TIP3   OH246263   5.493   5.532   2.553  0.1425  0.2383 -0.0099
 8283TIP3    H146264   5.526   5.610   2.508 -1.0422 -0.2483 -1.8088
 8283TIP3    H246265   5.447   5.482   2.486 -0.3583 -1.3290  1.4131
 8284TIP3   OH246266   1.159   1.423  12.600 -0.1764 -0.1347 -0.6189
 8284TIP3    H146267   1.155   1.347  12.542 -0.0306 -0.5047 -0.1457
 8284TIP3    H246268   1.093   1.483  12.565  1.1405  0.4259 -2.2476
 8285TIP3   OH246269   1.620   1.945   0.043 -0.2667  0.8157 -0.1742
 8285TIP3    H146270   1.676   1.966  -0.031 -0.4659  0.5917 -0.3877
 8285TIP3    H246271   1.644   2.009   0.110 -2.2621  3.0979 -1.4938
 8286TIP3   OH246272   6.006   0.848  12.439  0.0151 -0.9214  0.2160
 8286TIP3    H146273   6.038   0.889  12.358  0.4038 -0.9984  0.3292
 8286TIP3    H246274   5.968   0.765  12.410 -0.1786 -0.7831  0.0678
 8287TIP3   OH246275   0.616   0.464   2.003  0.3108 -0.1180 -0.4613
 8287TIP3    H146276   0.561   0.503   2.072  0.4853  1.7578 -1.3102
 8287TIP3    H246277   0.571   0.382   1.980  0.2442 -0.7859  1.8269
 8288TIP3   OH246278   2.778   5.339   0.267  0.2987 -0.2505 -0.2967
 8288TIP3    H146279   2.827   5.272   0.315 -1.1088 -2.5733 -1.8723
 8288TIP3    H246280   2.763   5.300   0.181 -1.1006  1.8874 -1.1001
 8289TIP3   OH246281   6.108   5.050  15.725 -0.5405 -0.0927  0.0959
 8289TIP3    H146282   6.054   5.079  15.651  0.0949 -0.1382 -0.4003
 8289TIP3    H246283   6.046   5.015  15.788 -1.0148 -1.3293 -1.0105
 8290TIP3   OH246284   1.218   5.417  16.420 -0.5490  0.4338 -0.6721
 8290TIP3    H146285   1.171   5.411  16.503 -0.1593  0.3032 -0.4634
 8290TIP3    H246286   1.229   5.511  16.405 -1.1928  0.4801 -0.9025
 8291TIP3   OH246287   0.553   3.721   2.084 -0.1914  0.1106 -0.4636
 8291TIP3    H146288   0.602   3.657   2.134  0.5244 -0.2611 -1.5900
 8291TIP3    H246289   0.505   3.670   2.019 -2.7657  0.3907  1.1088
 8292TIP3   OH246290   2.931   5.143   0.981 -0.0865 -0.1328 -0.0117
 8292TIP3    H146291   2.899   5.219   0.932 -0.4346 -0.4091 -0.2134
 8292TIP3    H246292   3.014   5.120   0.939  0.4301  0.6281  0.5545
 8293TIP3   OH246293   6.520   5.723  12.148 -0.2759 -0.3201 -0.5074
 8293TIP3    H146294   6.577   5.800  12.150  0.3640 -0.7241 -1.7154
 8293TIP3    H246295   6.508   5.705  12.054 -1.0173 -1.2484 -0.2488
 8294TIP3   OH246296   0.219   1.709  12.927  0.0565  0.4705 -0.1258
 8294TIP3    H146297   0.304   1.674  12.896  0.5641  0.9858  0.6606
 8294TIP3    H246298   0.200   1.659  13.006 -0.4784  0.2340 -0.3968
 8295TIP3   OH246299   2.976   5.291  16.795 -0.4408  0.1708 -0.3024
 8295TIP3    H146300   3.053   5.286  16.851  0.0065  1.6057 -0.7680
 8295TIP3    H246301   2.904   5.313  16.854 -0.1688  0.5893 -0.1257
 8296TIP3   OH246302   5.012   0.142   0.138 -0.2474 -0.0532  0.1727
 8296TIP3    H146303   4.977   0.086   0.208 -2.0622  1.1342  0.2918
 8296TIP3    H246304   4.980   0.229   0.160 -1.1534  0.3009 -2.3105
 8297TIP3   OH246305   3.509   4.672  12.421  0.7886  0.3995  0.5028
 8297TIP3    H146306   3.531   4.594  12.369  1.0156  0.1738  0.9374
 8297TIP3    H246307   3.487   4.738  12.355 -0.5348 -0.3511  0.1542
 8298TIP3   OH246308   4.047   3.745   2.291  0.1321 -0.4695 -0.0402
 8298TIP3    H146309   4.105   3.774   2.221  1.5641 -1.7345  0.5528
 8298TIP3    H246310   4.014   3.660   2.261 -2.7818  0.8854 -1.0814
 8299TIP3   OH246311   3.061   3.866  14.465  0.4126  0.0861 -0.2152
 8299TIP3    H146312   3.029   3.956  14.473 -0.6619 -0.3416  0.5712
 8299TIP3    H246313   2.985   3.812  14.486  1.2235 -1.0084 -0.0107
 8300TIP3   OH246314   4.601   0.144   2.751  0.2397  0.2830 -0.0031
 8300TIP3    H146315   4.579   0.129   2.843 -1.3415  0.1344 -0.3763
 8300TIP3    H246316   4.696   0.135   2.748  0.2652 -0.3686  1.5011
 8301TIP3   OH246317   3.577   4.081  14.206 -0.3389 -0.1606 -0.0112
 8301TIP3    H146318   3.529   4.046  14.131 -1.3134  0.8115  0.1306
 8301TIP3    H246319   3.667   4.052  14.192 -0.4583  0.1350 -1.6640
 8302TIP3   OH246320   2.791   4.410   1.356 -0.5739 -0.1070 -0.2866
 8302TIP3    H146321   2.844   4.481   1.321  0.3536  0.4255  2.0178
 8302TIP3    H246322   2.813   4.407   1.449 -1.0328 -3.0440 -0.1724
 8303TIP3   OH246323   3.099   5.957   0.278 -0.1583 -0.0376  0.2941
 8303TIP3    H146324   3.036   5.905   0.328 -2.3934  1.5419 -0.6729
 8303TIP3    H246325   3.055   6.041   0.265  1.4669  0.5696 -1.9082
 8304TIP3   OH246326   4.732   0.830   2.590  1.0688 -0.6199 -0.0377
 8304TIP3    H146327   4.795   0.890   2.630 -0.4398  1.9338 -1.2687
 8304TIP3    H246328   4.714   0.765   2.659  0.7426  1.8987  2.4558
 8305TIP3   OH246329   3.011   6.796   2.427 -0.0261  0.4183 -0.3336
 8305TIP3    H146330   3.088   6.742   2.443 -0.4251 -0.2345 -0.5520
 8305TIP3    H246331   3.018   6.821   2.335  0.5330  1.3584 -0.0464
 8306TIP3   OH246332   5.919   6.396   3.718  0.0168 -0.1579  0.2549
 8306TIP3    H146333   5.879   6.310   3.704  0.1566 -0.1092 -0.4825
 8306TIP3    H246334   5.965   6.387   3.802  0.2156 -0.8695  0.0828
 8307TIP3   OH246335   5.909   4.575   0.170  0.1486 -0.4549 -0.4984
 8307TIP3    H146336   5.924   4.500   0.226 -0.4008 -0.1271  0.0897
 8307TIP3    H246337   5.818   4.567   0.141  0.3051 -0.4056 -1.0169
 8308TIP3   OH246338   4.556   2.047  15.403 -0.1103  0.0898  0.7807
 8308TIP3    H146339   4.547   1.958  15.370 -0.5803  0.1669  0.6980
 8308TIP3    H246340   4.482   2.094  15.365  0.9662  0.8806 -0.4205
 8309TIP3   OH246341   0.996   0.188   3.798 -0.5055 -0.3231 -0.5370
 8309TIP3    H146342   0.954   0.224   3.875 -3.1879  1.0467 -2.4595
 8309TIP3    H246343   0.946   0.109   3.778 -0.3711 -0.2301 -1.2900
 8310TIP3   OH246344   3.139   6.654   4.595 -0.3351  0.3964 -0.0375
 8310TIP3    H146345   3.164   6.694   4.511  0.9787 -0.6267 -0.1631
 8310TIP3    H246346   3.221   6.648   4.644 -0.9715  0.3046  1.0353
 8311TIP3   OH246347   0.865   1.281  11.957 -0.0341 -0.0309 -0.0023
 8311TIP3    H146348   0.956   1.254  11.969  0.2511  1.4568  1.7470
 8311TIP3    H246349   0.818   1.240  12.030 -0.5051  0.2828 -0.1230
 8312TIP3   OH246350   2.047   4.522  15.553  0.0309  0.0665 -0.7115
 8312TIP3    H146351   2.130   4.492  15.589  0.2348  1.9506  0.5150
 8312TIP3    H246352   2.039   4.476  15.469  0.7304 -2.5903  0.5688
 8313TIP3   OH246353   6.409   6.231   2.270 -0.1732  0.3423 -0.3356
 8313TIP3    H146354   6.433   6.150   2.315  0.9983  0.0727 -1.3568
 8313TIP3    H246355   6.346   6.274   2.328  1.2243  0.0143  1.5164
 8314TIP3   OH246356   1.580   1.076  17.087  0.2710  0.0852  0.6513
 8314TIP3    H146357   1.671   1.098  17.107  0.0460  0.0266  1.7527
 8314TIP3    H246358   1.538   1.161  17.075  0.5562  0.1047 -0.3076
 8315TIP3   OH246359   5.649   4.951  14.549 -0.4215  0.2109  0.2335
 8315TIP3    H146360   5.720   5.014  14.537 -0.7282  0.3587 -0.9014
 8315TIP3    H246361   5.577   4.985  14.496 -1.8150  0.7226  2.3103
 8316TIP3   OH246362   6.653   5.209   2.278 -0.0824  0.4017  0.1808
 8316TIP3    H146363   6.618   5.257   2.353 -0.8665  0.5121 -0.2425
 8316TIP3    H246364   6.590   5.226   2.207  0.6928  0.3766 -0.5280
 8317TIP3   OH246365   5.761   4.612  11.236  0.2036 -0.0132  0.3284
 8317TIP3    H146366   5.795   4.553  11.303 -0.0153 -0.4965  0.0267
 8317TIP3    H246367   5.701   4.557  11.185  0.1950  0.4063 -0.1207
 8318TIP3   OH246368   1.436   4.727  13.495 -0.4529  0.1101 -0.0747
 8318TIP3    H146369   1.411   4.656  13.554 -0.1064 -0.4285 -0.5683
 8318TIP3    H246370   1.521   4.757  13.527 -0.2542 -0.1979 -0.3099
 8319TIP3   OH246371   2.305   1.301  14.823  0.7133 -0.2803  0.2936
 8319TIP3    H146372   2.213   1.289  14.846  0.8384 -0.7553  0.5402
 8319TIP3    H246373   2.341   1.213  14.818  1.9373 -0.0529  3.3612
 8320TIP3   OH246374   5.052   4.045   3.794  0.1039  0.1961 -0.2029
 8320TIP3    H146375   5.090   4.061   3.707  1.0774 -1.0399 -0.0467
 8320TIP3    H246376   5.013   3.957   3.786 -1.3164  0.7721  0.1346
 8321TIP3   OH246377   2.036   1.450   2.576  0.7126  0.0503 -0.2546
 8321TIP3    H146378   1.951   1.493   2.574  1.1627  1.1233  1.3889
 8321TIP3    H246379   2.019   1.366   2.617  0.5472  0.5999  0.8446
 8322TIP3   OH246380   4.291   1.941   0.920  0.3009  0.4425 -0.0126
 8322TIP3    H146381   4.207   1.980   0.942 -0.7444 -1.5647 -0.1714
 8322TIP3    H246382   4.342   2.012   0.881 -2.3050  1.1297 -2.4948
 8323TIP3   OH246383   2.292   3.681  14.457  0.4601  0.0484 -0.2354
 8323TIP3    H146384   2.285   3.776  14.468 -4.3005 -0.1579  1.0902
 8323TIP3    H246385   2.330   3.651  14.539  1.8022  0.7562 -0.5747
 8324TIP3   OH246386   0.668   4.132   5.139 -0.1574  0.0857 -0.0425
 8324TIP3    H146387   0.578   4.112   5.166 -0.5738  3.3556  1.4133
 8324TIP3    H246388   0.671   4.228   5.132  3.6648  0.2646  1.6601
 8325TIP3   OH246389   0.444   1.164   4.514  0.5045  0.2836  0.4276
 8325TIP3    H146390   0.424   1.217   4.437 -1.0347  1.7655  1.7602
 8325TIP3    H246391   0.358   1.138   4.548  1.0843  0.6516  2.2695
 8326TIP3   OH246392   6.021   5.508  15.981 -0.0613 -0.2204  0.2962
 8326TIP3    H146393   6.050   5.419  16.003 -2.7984 -1.5329 -0.8595
 8326TIP3    H246394   6.060   5.525  15.895  1.9457  0.5275  1.2891
 8327TIP3   OH246395   2.810   0.401  16.931 -0.5101 -0.3945  0.5923
 8327TIP3    H146396   2.752   0.424  17.004  0.1549  1.2920  0.6295
 8327TIP3    H246397   2.753   0.403  16.854 -0.6923  0.3706  0.7434
 8328TIP3   OH246398   2.240   6.710   0.115  0.5187 -0.3272  0.3833
 8328TIP3    H146399   2.236   6.621   0.079 -0.6686 -1.3265  2.7312
 8328TIP3    H246400   2.333   6.724   0.134  0.8065 -0.7973 -0.6388
 8329TIP3   OH246401   2.149   5.234  16.482 -0.1964 -0.2546  0.1410
 8329TIP3    H146402   2.207   5.276  16.545  0.7883  0.3237 -1.0869
 8329TIP3    H246403   2.073   5.292  16.476 -0.8284 -0.8843  1.5745
 8330TIP3   OH246404   0.960   1.257   3.319 -0.0901  0.5745 -0.8451
 8330TIP3    H146405   1.052   1.249   3.345 -0.4338 -0.3118  0.1492
 8330TIP3    H246406   0.964   1.278   3.226  1.1052 -1.7240 -1.3780
 8331TIP3   OH246407   5.582   6.231  15.685  0.2627 -0.1442  0.2517
 8331TIP3    H146408   5.677   6.223  15.696  0.4397 -1.5198 -1.7811
 8331TIP3    H246409   5.571   6.310  15.632  0.1608  0.7027  1.5099
 8332TIP3   OH246410   2.842   0.159   3.493 -0.1181  0.0194  0.3077
 8332TIP3    H146411   2.812   0.091   3.434  1.5729 -1.7820  1.3962
 8332TIP3    H246412   2.905   0.210   3.441  0.2001 -0.5820  0.1027
 8333TIP3   OH246413   0.355   5.880   5.640 -0.1836 -0.1765  0.6632
 8333TIP3    H146414   0.371   5.941   5.711  1.8635 -0.1356  0.2312
 8333TIP3    H246415   0.384   5.926   5.561 -0.9716 -0.7818  0.0002
 8334TIP3   OH246416   0.110   5.625  16.915  0.3503  0.6157 -0.3531
 8334TIP3    H146417   0.150   5.590  16.995  0.3986  0.2395 -0.5383
 8334TIP3    H246418   0.085   5.548  16.865 -0.9472  0.8490 -0.0872
 8335TIP3   OH246419   6.587   0.531   3.761 -0.3750 -0.5156 -0.0020
 8335TIP3    H146420   6.578   0.593   3.689  0.9362 -0.3107 -0.0143
 8335TIP3    H246421   6.669   0.555   3.804 -0.5036 -1.4220  0.8012
 8336TIP3   OH246422   0.827   4.534  11.365  0.4942 -0.5424 -0.1257
 8336TIP3    H146423   0.788   4.539  11.452  0.5078 -0.6713 -0.1115
 8336TIP3    H246424   0.777   4.596  11.312 -0.3801 -1.4250 -0.3648
 8337TIP3   OH246425   0.553   3.749   3.241  0.1301  0.3369  0.3260
 8337TIP3    H146426   0.615   3.678   3.227 -0.8333 -0.2232 -1.4749
 8337TIP3    H246427   0.561   3.803   3.162  0.0816  1.6698  1.1884
 8338TIP3   OH246428   5.680   0.480   3.926  0.1838 -0.0687  0.3962
 8338TIP3    H146429   5.660   0.573   3.940  1.5782  0.1877  0.9058
 8338TIP3    H246430   5.599   0.434   3.946  0.2727  0.8083  3.2923
 8339TIP3   OH246431   0.716   4.851  12.102 -0.1719  0.4096 -0.1105
 8339TIP3    H146432   0.748   4.820  12.187  1.3700 -1.1854 -1.2180
 8339TIP3    H246433   0.795   4.872  12.052 -0.8061 -1.8225 -2.2590
 8340TIP3   OH246434   0.354   4.501   2.230  0.1386  0.2809  0.0900
 8340TIP3    H146435   0.305   4.517   2.149  0.7534  3.4937  0.2306
 8340TIP3    H246436   0.438   4.545   2.216  1.0409 -0.7659  1.7861
 8341TIP3   OH246437   4.057   4.601  12.259  0.0815  0.2100 -0.0495
 8341TIP3    H146438   4.130   4.561  12.212 -0.3031 -0.2146 -0.2956
 8341TIP3    H246439   4.054   4.556  12.343  0.6459  0.8341  0.3192
 8342TIP3   OH246440   2.243   5.307   5.346  0.2337  0.2482 -0.1560
 8342TIP3    H146441   2.259   5.359   5.267  0.7398  0.9400  0.4006
 8342TIP3    H246442   2.246   5.216   5.315  0.6438  0.5090 -0.8951
 8343TIP3   OH246443   1.850   6.118  17.163 -0.2095  0.4873 -0.0547
 8343TIP3    H146444   1.864   6.175  17.087 -0.0095 -1.6359 -1.7118
 8343TIP3    H246445   1.938   6.085  17.183 -0.3747  0.4706  0.6507
 8344TIP3   OH246446   6.672   1.956  13.744  0.3749  0.3501  0.2719
 8344TIP3    H146447   6.717   1.983  13.825 -0.2855  1.4970  0.2754
 8344TIP3    H246448   6.729   1.888  13.707  1.3709  0.7500  1.0168
 8345TIP3   OH246449   4.703   0.292   1.093  0.2434  0.3176  0.0431
 8345TIP3    H146450   4.690   0.263   1.183  1.1650  1.1294  0.4514
 8345TIP3    H246451   4.749   0.220   1.051 -1.0341 -0.4670 -0.0565
 8346TIP3   OH246452   3.587   6.636   3.575 -0.3770 -0.1386  0.1164
 8346TIP3    H146453   3.663   6.638   3.518 -0.8899 -1.0189 -0.6195
 8346TIP3    H246454   3.516   6.673   3.523 -0.9346 -1.2869  0.0270
 8347TIP3   OH246455   1.547   3.981   1.567  0.7893 -0.0886  0.0541
 8347TIP3    H146456   1.452   3.993   1.577  1.0145  0.8924  1.2200
 8347TIP3    H246457   1.556   3.925   1.490 -0.7143  0.2781 -0.4196
 8348TIP3   OH246458   2.737   4.975  11.054  0.4853  0.3323  0.2734
 8348TIP3    H146459   2.797   5.049  11.043  0.6952  0.0101 -0.9171
 8348TIP3    H246460   2.650   5.015  11.055  0.6674  0.7256  1.1919
 8349TIP3   OH246461   4.643   1.689  11.327  0.0696 -0.4857  0.2295
 8349TIP3    H146462   4.579   1.753  11.295 -1.8121 -1.5027  1.7935
 8349TIP3    H246463   4.725   1.739  11.333 -0.4716  0.8283 -1.9203
 8350TIP3   OH246464   6.150   1.127   4.162 -0.6783  0.2386 -0.0825
 8350TIP3    H146465   6.178   1.184   4.090 -1.8118 -1.6103 -2.1216
 8350TIP3    H246466   6.221   1.133   4.226  0.7820  1.3793 -1.7041
 8351TIP3   OH246467   1.390   1.557  17.176  0.6695  0.4290  0.1066
 8351TIP3    H146468   1.388   1.563  17.271  0.6178  2.5860  0.0054
 8351TIP3    H246469   1.386   1.648  17.145 -1.1561 -0.2766 -1.9894
 8352TIP3   OH246470   3.939   5.503  16.673 -0.2318  0.6259  0.1367
 8352TIP3    H146471   3.960   5.596  16.685 -2.0038  1.1350 -0.4111
 8352TIP3    H246472   4.024   5.459  16.674  0.9562  2.5894 -2.4864
 8353TIP3   OH246473   5.848   6.783   3.263  0.1255  0.6359  0.2775
 8353TIP3    H146474   5.913   6.731   3.311 -0.2557 -0.6209 -0.5183
 8353TIP3    H246475   5.767   6.772   3.313 -0.8822 -2.6745 -1.8062
 8354TIP3   OH246476   0.598   0.442  14.967  0.6274 -0.9513  0.0582
 8354TIP3    H146477   0.578   0.533  14.945  3.8571 -0.2069 -0.2174
 8354TIP3    H246478   0.565   0.392  14.892 -0.2748  0.0866 -0.2618
 8355TIP3   OH246479   1.308   6.737   4.271 -0.2837  0.4020 -0.1694
 8355TIP3    H146480   1.296   6.689   4.354  0.8032 -1.3966 -0.9878
 8355TIP3    H246481   1.301   6.829   4.295 -1.7499 -0.1276  1.6213
 8356TIP3   OH246482   4.828   3.984   3.158  0.4075  0.2489 -0.5695
 8356TIP3    H146483   4.918   3.950   3.161 -0.7551 -3.3212  2.3334
 8356TIP3    H246484   4.782   3.924   3.099 -0.0159  2.6799 -2.8804
 8357TIP3   OH246485   5.595   0.036  11.007 -0.2979  0.0128  0.2677
 8357TIP3    H146486   5.530   0.060  11.074  0.3049  1.3996  0.3778
 8357TIP3    H246487   5.547  -0.021  10.947 -1.7566  1.3597  0.0986
 8358TIP3   OH246488   2.371   4.664   3.467  0.5893 -0.4554 -0.2450
 8358TIP3    H146489   2.355   4.743   3.416  1.1585 -0.3464 -0.2633
 8358TIP3    H246490   2.292   4.653   3.519  1.4301  1.5713  1.6440
 8359TIP3   OH246491   4.438   1.548   6.015  0.5730  0.9499  0.3264
 8359TIP3    H146492   4.513   1.604   6.034  1.0706  1.2875 -2.2970
 8359TIP3    H246493   4.473   1.459   6.015  0.7913  1.0342 -0.0077
 8360TIP3   OH246494   1.802   1.987  14.543  0.1935  0.3645  0.5665
 8360TIP3    H146495   1.816   1.936  14.623  2.3381  1.4709  0.9753
 8360TIP3    H246496   1.736   2.052  14.567  0.2670  0.2032  1.2173
 8361TIP3   OH246497   1.000   4.146  16.337  0.1207  1.0019  0.0297
 8361TIP3    H146498   0.976   4.099  16.257  2.2667  1.2426 -0.8146
 8361TIP3    H246499   0.926   4.132  16.396 -0.1234 -1.9387 -0.8093
 8362TIP3   OH246500   3.645   0.140   3.613 -0.3126 -0.4610 -0.1694
 8362TIP3    H146501   3.689   0.081   3.552  2.7037 -0.6008  1.9417
 8362TIP3    H246502   3.559   0.101   3.627 -0.0604 -1.8634 -2.2279
 8363TIP3   OH246503   3.720   1.849  13.936  0.1839  0.0067  0.5516
 8363TIP3    H146504   3.649   1.785  13.934 -0.3250  0.4609  2.2223
 8363TIP3    H246505   3.676   1.934  13.940  0.7084  0.2550  2.9811
 8364TIP3   OH246506   0.659   1.469   2.050 -0.6618  0.8403  0.4911
 8364TIP3    H146507   0.752   1.486   2.061  0.3544 -1.8700 -2.2899
 8364TIP3    H246508   0.640   1.496   1.960 -1.9514 -0.6487  0.2677
 8365TIP3   OH246509   3.335   0.714   0.510 -0.1372 -0.1174  0.4302
 8365TIP3    H146510   3.286   0.690   0.431  1.4338  1.1134 -0.9812
 8365TIP3    H246511   3.276   0.692   0.582 -1.7956 -0.8912 -1.0870
 8366TIP3   OH246512   1.432   6.059   2.484  0.2963  0.2315 -0.3228
 8366TIP3    H146513   1.414   5.981   2.432 -1.2582  0.2780  0.1073
 8366TIP3    H246514   1.500   6.106   2.434 -0.6392 -0.0776 -1.9512
 8367TIP3   OH246515   5.022   4.067   5.696 -0.1894  0.9039 -0.0447
 8367TIP3    H146516   4.955   4.034   5.638 -1.0857  2.5592 -0.0172
 8367TIP3    H246517   4.985   4.059   5.784  0.0037  0.9987  0.0484
 8368TIP3   OH246518   2.240   6.508  15.723  0.2662  0.1520 -0.0503
 8368TIP3    H146519   2.163   6.504  15.666  1.1757  1.7931 -1.5197
 8368TIP3    H246520   2.239   6.426  15.771 -0.4084 -1.5164 -2.7089
 8369TIP3   OH246521   1.240   4.853   0.074 -0.2929  0.5563  0.4314
 8369TIP3    H146522   1.328   4.883   0.097 -0.2740  1.4789 -0.7312
 8369TIP3    H246523   1.245   4.758   0.079  1.4650  0.4420 -1.8484
 8370TIP3   OH246524   3.897   6.660   3.232 -0.8527 -0.2870  0.1261
 8370TIP3    H146525   3.804   6.637   3.231 -1.0992  0.6319  0.7885
 8370TIP3    H246526   3.901   6.740   3.284  0.0187  0.9570 -1.7387
 8371TIP3   OH246527   2.034   1.668  17.148  0.3676 -0.6251  0.1507
 8371TIP3    H146528   2.109   1.711  17.188  1.8738 -2.3693 -0.6836
 8371TIP3    H246529   1.960   1.692  17.204  1.0433  3.0273 -0.2928
 8372TIP3   OH246530   0.778   3.539  13.495 -0.7185 -0.1861  0.0572
 8372TIP3    H146531   0.689   3.570  13.511 -0.5145 -0.1581  1.2283
 8372TIP3    H246532   0.795   3.561  13.404 -1.7035  0.3231 -0.0165
 8373TIP3   OH246533   1.843   5.537  12.464  0.0182 -0.0780  0.3223
 8373TIP3    H146534   1.932   5.565  12.446  0.6961 -0.9669  2.0317
 8373TIP3    H246535   1.801   5.613  12.503 -0.3915  0.7293 -1.5788
 8374TIP3   OH246536   1.403   0.224   5.436  0.0948 -0.4269  0.1109
 8374TIP3    H146537   1.471   0.285   5.408 -0.3351  0.2412  0.4987
 8374TIP3    H246538   1.401   0.232   5.531  0.1886 -1.2226  0.1888
 8375TIP3   OH246539   4.573   2.159  12.222 -0.1868  0.0508 -0.0463
 8375TIP3    H146540   4.653   2.192  12.263 -1.1611  1.0539  1.1312
 8375TIP3    H246541   4.587   2.064  12.215  1.4831  0.3144 -0.7719
 8376TIP3   OH246542   5.437   2.783  14.294 -0.0960 -0.3692 -0.2202
 8376TIP3    H146543   5.359   2.838  14.285 -0.6138 -1.3340 -2.2187
 8376TIP3    H246544   5.459   2.789  14.387 -0.5991  2.5182 -0.1710
 8377TIP3   OH246545   6.247   1.929   3.986 -0.9698 -0.0670 -0.1687
 8377TIP3    H146546   6.313   1.918   3.917 -0.1764 -0.8705  0.6948
 8377TIP3    H246547   6.276   1.872   4.056 -1.7473  0.7726  0.8657
 8378TIP3   OH246548   4.813   6.774   3.057  0.0604 -0.4801 -0.4636
 8378TIP3    H146549   4.837   6.683   3.074  0.2176 -0.3922 -0.1994
 8378TIP3    H246550   4.873   6.825   3.113  0.3765 -0.1951 -1.0470
 8379TIP3   OH246551   3.519   3.513  13.678  0.6943  0.5378 -0.0806
 8379TIP3    H146552   3.430   3.503  13.713  1.4280  0.7111  2.0003
 8379TIP3    H246553   3.546   3.424  13.657  0.6087  0.2777  0.8649
 8380TIP3   OH246554   2.282   1.763   1.888  0.3328  0.4195 -0.5538
 8380TIP3    H146555   2.343   1.700   1.928 -1.7103 -0.9704  0.5954
 8380TIP3    H246556   2.309   1.848   1.923  0.6519 -0.3585  1.2358
 8381TIP3   OH246557   5.416   1.444   2.495  0.3252  0.7641  0.3866
 8381TIP3    H146558   5.459   1.452   2.410  0.3685  0.1786  0.3480
 8381TIP3    H246559   5.416   1.350   2.513 -2.8474  0.4568 -0.6252
 8382TIP3   OH246560   6.464   3.880  10.761  0.1343 -0.2399 -0.2249
 8382TIP3    H146561   6.386   3.850  10.807  0.5901 -1.9417 -0.4991
 8382TIP3    H246562   6.534   3.873  10.826  0.8803 -3.1452 -1.1978
 8383TIP3   OH246563   2.143   2.105   0.772 -0.4480  0.1694  0.1292
 8383TIP3    H146564   2.173   2.148   0.691 -0.1060  0.6888  0.5215
 8383TIP3    H246565   2.070   2.159   0.802 -0.0221  0.4954  0.6198
 8384TIP3   OH246566   6.076   1.853  16.496 -0.1091 -0.3574  0.4663
 8384TIP3    H146567   6.171   1.847  16.503  0.0101  2.3047  3.0022
 8384TIP3    H246568   6.061   1.898  16.412  0.8444 -0.7562  0.0712
 8385TIP3   OH246569   4.961   3.602   2.743 -0.2660  0.9118 -0.1698
 8385TIP3    H146570   4.903   3.625   2.670 -0.8485  0.8210  0.2603
 8385TIP3    H246571   5.012   3.527   2.710 -0.6032  0.7996 -0.4391
 8386TIP3   OH246572   6.435   3.196   2.844 -0.0100 -0.1228  0.5354
 8386TIP3    H146573   6.423   3.118   2.791 -0.9104  0.8214 -0.7106
 8386TIP3    H246574   6.352   3.207   2.890 -0.2601  0.6454 -0.0792
 8387TIP3   OH246575   4.291   6.350   0.814  0.0198 -0.0955  0.2793
 8387TIP3    H146576   4.318   6.361   0.723 -1.0071 -0.7341 -0.1212
 8387TIP3    H246577   4.289   6.440   0.849 -1.9067  0.4619 -1.0457
 8388TIP3   OH246578   5.172   1.424  14.223 -0.1004  0.1228  0.5448
 8388TIP3    H146579   5.261   1.459  14.223 -0.9236  2.5379 -1.6794
 8388TIP3    H246580   5.133   1.456  14.305  0.0967  2.0533 -0.0636
 8389TIP3   OH246581   2.105   5.094  16.125 -0.0130  0.3075  0.1282
 8389TIP3    H146582   2.156   5.048  16.191  1.7892  1.1358 -0.6272
 8389TIP3    H246583   2.060   5.024  16.077 -0.0566 -0.3995  1.1738
 8390TIP3   OH246584   3.378   1.936   0.664  0.5615  0.2733  0.0150
 8390TIP3    H146585   3.429   1.894   0.733 -0.5464 -0.4504  0.4159
 8390TIP3    H246586   3.293   1.893   0.667  0.5951 -0.0243 -2.0621
 8391TIP3   OH246587   3.274   1.856   6.807  0.1911 -0.1385 -0.2579
 8391TIP3    H146588   3.188   1.857   6.765  0.0167 -1.0468  0.0581
 8391TIP3    H246589   3.284   1.944   6.844 -0.5979 -0.0231 -0.3070
 8392TIP3   OH246590   3.305   6.154  16.210 -0.0653 -0.4335 -0.0584
 8392TIP3    H146591   3.289   6.195  16.125 -0.9744 -1.7817 -0.5754
 8392TIP3    H246592   3.238   6.086  16.216  0.3475 -0.7248  1.4967
 8393TIP3   OH246593   4.590   2.216  14.547 -0.2062 -0.5126  0.3673
 8393TIP3    H146594   4.627   2.133  14.577 -0.7494 -0.9273 -0.1014
 8393TIP3    H246595   4.652   2.282  14.579 -1.0340 -0.8613  2.9599
 8394TIP3   OH246596   0.204   3.626   4.237 -0.4699 -0.1452 -0.5517
 8394TIP3    H146597   0.151   3.705   4.246  1.3710  1.2075 -0.9281
 8394TIP3    H246598   0.172   3.567   4.305 -1.2348  1.3140  0.3893
 8395TIP3   OH246599   4.126   6.381   4.144 -0.3400 -0.3891  0.1232
 8395TIP3    H146600   4.094   6.326   4.215  1.1179  0.3172  1.4073
 8395TIP3    H246601   4.056   6.382   4.079 -1.7689 -0.9767  1.6124
 8396TIP3   OH246602   3.230   4.768  14.802  0.0304  0.1613  0.3464
 8396TIP3    H146603   3.272   4.757  14.888 -0.1041  1.8451  0.6486
 8396TIP3    H246604   3.138   4.747  14.818  0.3719 -1.8134  0.0607
 8397TIP3   OH246605   6.354   2.208   5.618 -0.3141 -0.3390 -0.0606
 8397TIP3    H146606   6.295   2.214   5.543  0.2740 -0.6218 -0.5527
 8397TIP3    H246607   6.441   2.198   5.580  0.3334  2.0132  0.5823
 8398TIP3   OH246608   3.258   5.093  14.443  0.5367 -0.0954 -0.2585
 8398TIP3    H146609   3.265   5.006  14.482  0.9653  1.0488  2.4391
 8398TIP3    H246610   3.253   5.077  14.348 -0.7863 -3.0911  0.2151
 8399TIP3   OH246611   2.769   6.045   1.751 -0.1671 -0.5783 -0.0490
 8399TIP3    H146612   2.700   6.111   1.756  0.8439  0.6090 -1.2663
 8399TIP3    H246613   2.765   6.000   1.836 -2.1288 -0.2728  0.0683
 8400TIP3   OH246614   5.985   4.861   4.724  0.5892 -0.0105 -0.3522
 8400TIP3    H146615   5.907   4.806   4.720  0.2025  0.2355  2.1161
 8400TIP3    H246616   5.997   4.892   4.634 -2.0136 -0.2473 -0.8757
 8401TIP3   OH246617   3.432   5.013   2.313  0.4230  0.6949  0.1194
 8401TIP3    H146618   3.390   5.092   2.278  1.3917  1.2326  0.1314
 8401TIP3    H246619   3.490   4.984   2.242 -1.6784 -1.4452 -0.8658
 8402TIP3   OH246620   4.012   3.494   3.432 -1.0580  0.2958  0.0634
 8402TIP3    H146621   3.992   3.446   3.352 -0.4611  1.1990 -0.6595
 8402TIP3    H246622   4.096   3.458   3.461 -1.2020  0.0712  0.2055
 8403TIP3   OH246623   0.710   0.339   2.525 -0.5121  0.0790 -0.6757
 8403TIP3    H146624   0.720   0.247   2.500  1.0155 -0.3251  1.1965
 8403TIP3    H246625   0.675   0.335   2.614 -0.8362  1.3272 -0.7416
 8404TIP3   OH246626   2.233   0.662   0.770  0.2553  0.1192 -0.1156
 8404TIP3    H146627   2.165   0.686   0.707  0.2894 -0.0602 -0.2210
 8404TIP3    H246628   2.310   0.642   0.716 -0.3255 -2.2226 -0.1973
 8405TIP3   OH246629   2.283   5.023   3.377  0.0064  0.2843  0.3694
 8405TIP3    H146630   2.259   5.099   3.324 -0.5458 -0.1255  0.0137
 8405TIP3    H246631   2.348   4.976   3.325 -1.7498 -1.0225 -0.7714
 8406TIP3   OH246632   1.655   0.571  13.557  0.1777 -0.1614  0.2644
 8406TIP3    H146633   1.714   0.535  13.623  1.3743  1.5925  0.2111
 8406TIP3    H246634   1.709   0.579  13.478  0.6511  3.4591  0.7592
 8407TIP3   OH246635   0.122   6.050   5.769  0.2583 -0.1200  0.4154
 8407TIP3    H146636   0.053   5.985   5.782  1.1128 -0.9276  1.1947
 8407TIP3    H246637   0.185   6.031   5.839  2.2422 -0.7182 -1.4083
 8408TIP3   OH246638   0.829   0.170   1.223  0.0106  0.1889  0.0484
 8408TIP3    H146639   0.843   0.263   1.207  0.3309 -0.1401 -1.8728
 8408TIP3    H246640   0.811   0.133   1.136 -1.1488 -1.3745  0.8968
 8409TIP3   OH246641   4.815   3.827   4.300  0.0564 -0.7699  0.0467
 8409TIP3    H146642   4.728   3.838   4.339 -0.3635 -1.1856 -0.7481
 8409TIP3    H246643   4.806   3.750   4.244  1.3475 -1.7278  1.0935
 8410TIP3   OH246644   1.757   2.109  14.064 -0.2424 -0.7070  0.3722
 8410TIP3    H146645   1.800   2.145  14.141  2.5801 -0.9914 -0.9490
 8410TIP3    H246646   1.694   2.177  14.038  0.3328  0.3565  1.6418
 8411TIP3   OH246647   3.831   4.293   2.595 -0.1736 -0.0590  0.2101
 8411TIP3    H146648   3.816   4.387   2.586 -0.0636  0.0062  0.6486
 8411TIP3    H246649   3.918   4.287   2.634  0.1252 -0.3679 -0.5014
 8412TIP3   OH246650   4.902   5.323   0.477 -0.2394  0.4056  0.1466
 8412TIP3    H146651   4.943   5.299   0.394 -2.1404 -0.5362 -0.5722
 8412TIP3    H246652   4.952   5.275   0.543  0.4108  0.0476 -0.5883
 8413TIP3   OH246653   4.885   3.898   1.589  0.3578  0.7138  0.1854
 8413TIP3    H146654   4.803   3.852   1.572 -0.3550  1.8064  0.5694
 8413TIP3    H246655   4.943   3.871   1.518 -1.3809  2.4033 -2.0052
 8414TIP3   OH246656   2.865   2.941  16.842  0.5855 -0.6974 -0.1955
 8414TIP3    H146657   2.919   2.930  16.764 -0.0463  0.7680 -0.8863
 8414TIP3    H246658   2.797   2.873  16.834  0.7443 -0.7977 -0.7299
 8415TIP3   OH246659   2.535   6.201   5.529  0.5966  0.1596 -0.2456
 8415TIP3    H146660   2.539   6.232   5.438 -0.3657 -1.4270 -0.8882
 8415TIP3    H246661   2.468   6.132   5.527  0.8537 -0.1847  1.5938
 8416TIP3   OH246662   4.077   1.300  14.173  0.4206 -0.1978 -0.0895
 8416TIP3    H146663   4.029   1.348  14.240  0.7056  0.6389 -0.4720
 8416TIP3    H246664   4.168   1.305  14.200  0.5589  0.3012 -0.6258
 8417TIP3   OH246665   4.957   3.614  13.663 -0.5899 -0.5444  0.0273
 8417TIP3    H146666   4.948   3.709  13.668  0.6199 -0.4747  1.6635
 8417TIP3    H246667   4.976   3.597  13.571 -1.1026  0.7585 -0.3405
 8418TIP3   OH246668   5.259   5.197   0.784 -0.0042 -0.5712 -0.1778
 8418TIP3    H146669   5.275   5.220   0.875 -0.3734 -0.1986 -0.2056
 8418TIP3    H246670   5.240   5.280   0.741 -2.3734 -1.0007 -0.0698
 8419TIP3   OH246671   2.059   4.083   5.991  0.2556  0.4928  0.2322
 8419TIP3    H146672   2.060   4.062   6.085  1.0374 -1.5251 -0.1893
 8419TIP3    H246673   1.966   4.075   5.967 -0.2198  2.5780  1.0892
 8420TIP3   OH246674   2.119   4.747   1.624 -0.1051  0.3737  0.2066
 8420TIP3    H146675   2.177   4.819   1.649  1.0150 -0.4921  0.2065
 8420TIP3    H246676   2.128   4.741   1.529 -1.6698  1.4272 -0.0435
 8421TIP3   OH246677   2.767   4.526   5.963 -0.0781  0.1214  0.4058
 8421TIP3    H146678   2.756   4.576   6.043 -0.9790  0.4075  0.1127
 8421TIP3    H246679   2.721   4.576   5.896 -1.1423 -1.1490  0.1279
 8422TIP3   OH246680   5.276   6.383  11.508  0.3478  0.2289  0.0899
 8422TIP3    H146681   5.308   6.350  11.592  3.1868 -1.5981 -1.5564
 8422TIP3    H246682   5.185   6.409  11.526  0.6294 -0.6763  3.5341
 8423TIP3   OH246683   1.975   3.640  16.477  0.3491 -0.0057  0.4681
 8423TIP3    H146684   2.007   3.553  16.452  0.4711 -0.8505  3.2157
 8423TIP3    H246685   1.885   3.626  16.505  1.1037  0.1469  3.3317
 8424TIP3   OH246686   1.121   3.361   5.052  0.8710 -0.1990  0.5158
 8424TIP3    H146687   1.117   3.282   4.998 -1.7979  0.3315 -0.2044
 8424TIP3    H246688   1.160   3.331   5.134  0.7663 -2.0713 -0.0562
 8425TIP3   OH246689   0.740   5.244   0.158 -0.2072 -0.3848  0.0653
 8425TIP3    H146690   0.752   5.211   0.247  0.7296 -0.6491 -0.1550
 8425TIP3    H246691   0.667   5.306   0.165 -0.7125 -1.0534  0.8464
 8426TIP3   OH246692   4.171   4.466   4.276 -0.1885 -0.0851 -0.3715
 8426TIP3    H146693   4.078   4.448   4.262 -0.8373  0.6983  2.2421
 8426TIP3    H246694   4.181   4.560   4.257 -0.3903  0.2576  1.0880
 8427TIP3   OH246695   1.644   0.554   4.909 -0.2673  0.0652  0.0064
 8427TIP3    H146696   1.623   0.486   4.844  1.5956  0.5670 -1.1845
 8427TIP3    H246697   1.723   0.522   4.952  2.1632  2.4991 -2.3137
 8428TIP3   OH246698   1.287   4.589  10.954 -0.2754  0.1693  0.0906
 8428TIP3    H146699   1.281   4.510  11.008  0.4357  0.7701  1.0830
 8428TIP3    H246700   1.288   4.556  10.864 -3.2189 -0.7624  0.3085
 8429TIP3   OH246701   6.247   0.376   4.779  0.0365  0.1258 -0.2292
 8429TIP3    H146702   6.221   0.388   4.688 -2.1250  3.4503  0.6376
 8429TIP3    H246703   6.194   0.302   4.810 -1.7986  1.1367 -0.8447
 8430TIP3   OH246704   1.704   1.255   5.236  0.6454  0.3921  0.6936
 8430TIP3    H146705   1.617   1.256   5.275  1.0358 -1.3671  1.7208
 8430TIP3    H246706   1.759   1.212   5.301  1.6964 -1.1161 -1.0858
 8431TIP3   OH246707   3.741   5.560   3.208 -0.2346 -0.9316  0.3147
 8431TIP3    H146708   3.711   5.617   3.137  0.1710 -0.7773  0.2666
 8431TIP3    H246709   3.678   5.575   3.279 -0.6980 -1.1607 -0.0454
 8432TIP3   OH246710   2.884   6.162  10.340 -0.0616  0.4051 -0.1847
 8432TIP3    H146711   2.852   6.249  10.317 -1.9279 -0.5537 -1.4277
 8432TIP3    H246712   2.966   6.153  10.290  0.3054  1.5293  0.1862
 8433TIP3   OH246713   5.942   4.786   5.405 -0.1900  0.0463  0.0331
 8433TIP3    H146714   5.882   4.856   5.381  0.2768  0.1506 -0.8847
 8433TIP3    H246715   6.026   4.814   5.369  0.1854 -0.5846  0.4067
 8434TIP3   OH246716   2.286   4.497   0.909  0.2232 -0.0599  0.6565
 8434TIP3    H146717   2.204   4.449   0.922 -1.5481  2.5387 -0.2137
 8434TIP3    H246718   2.269   4.584   0.944  1.1517  1.8169 -2.9827
 8435TIP3   OH246719   0.621   5.277   3.009 -0.1868 -0.0573  0.3808
 8435TIP3    H146720   0.705   5.324   3.012 -0.5667  0.6549  0.0677
 8435TIP3    H246721   0.587   5.295   2.921 -2.2138  2.4347  1.5582
 8436TIP3   OH246722   0.442   0.285   5.830  0.2531  0.1933 -0.1389
 8436TIP3    H146723   0.488   0.304   5.912  0.7174 -1.4325  0.0163
 8436TIP3    H246724   0.350   0.280   5.856  0.4884 -1.2391  0.4981
 8437TIP3   OH246725   1.774   0.723   0.508 -0.2728  0.0677 -0.6465
 8437TIP3    H146726   1.737   0.686   0.589 -1.7325 -0.3616 -1.4715
 8437TIP3    H246727   1.732   0.808   0.500  0.1717  0.2784 -0.7551
 8438TIP3   OH246728   4.009   4.924  17.060 -0.2155 -0.0168  0.3453
 8438TIP3    H146729   4.071   4.940  16.989  0.0725 -1.3473  0.2808
 8438TIP3    H246730   4.062   4.925  17.140 -0.5249  1.3817  0.5635
 8439TIP3   OH246731   5.954   3.045   4.076 -0.0753  0.0858 -0.3929
 8439TIP3    H146732   5.912   2.960   4.067 -0.4438  0.2676 -0.4167
 8439TIP3    H246733   6.045   3.025   4.098 -0.2040 -0.3109 -0.2109
 8440TIP3   OH246734   1.606   0.341   0.156  0.3106  0.4708  0.5542
 8440TIP3    H146735   1.643   0.350   0.243 -0.8541 -1.0487  1.2533
 8440TIP3    H246736   1.591   0.247   0.145 -0.3467  0.7102 -0.9431
 8441TIP3   OH246737   2.583   3.944   4.444 -0.1512  0.3535 -0.2249
 8441TIP3    H146738   2.643   4.018   4.431 -0.3347  0.6569  0.6013
 8441TIP3    H246739   2.562   3.915   4.355  0.5574  0.7815 -0.5419
 8442TIP3   OH246740   5.756   5.944  13.557  0.1302 -0.1149 -0.1157
 8442TIP3    H146741   5.818   6.014  13.580  1.2782 -0.7392 -1.2708
 8442TIP3    H246742   5.724   5.968  13.470  0.9194 -1.2825 -0.7404
 8443TIP3   OH246743   3.909   4.894   0.950 -0.2014  0.0931  0.1511
 8443TIP3    H146744   3.925   4.862   1.039 -1.9253 -0.3361  0.3279
 8443TIP3    H246745   3.903   4.989   0.960  0.4700  0.1248  0.3372
 8444TIP3   OH246746   1.672   3.917   0.581 -0.3040 -0.2353 -0.4175
 8444TIP3    H146747   1.716   4.002   0.592  0.2941 -0.6125  0.2092
 8444TIP3    H246748   1.608   3.932   0.512  0.2675  0.5530 -0.7997
 8445TIP3   OH246749   3.192   1.506   3.536 -0.4511  0.3910 -0.4034
 8445TIP3    H146750   3.279   1.493   3.497 -0.0527 -0.7709  0.8073
 8445TIP3    H246751   3.185   1.601   3.547 -0.5604  0.7920 -3.1534
 8446TIP3   OH246752   1.058   5.067  14.428 -0.1951  0.2586 -0.1715
 8446TIP3    H146753   0.991   5.098  14.488 -0.6473 -1.6715  0.3713
 8446TIP3    H246754   1.059   5.132  14.358 -1.9409  0.8360  0.2921
 8447TIP3   OH246755   6.583   6.021  12.610  0.3363 -0.3341 -0.1253
 8447TIP3    H146756   6.572   5.981  12.524  2.2505  0.2093 -0.6742
 8447TIP3    H246757   6.652   5.970  12.651 -1.6332 -1.6277  1.8260
 8448TIP3   OH246758   4.342   4.711  14.688 -0.4030 -0.0477 -0.6008
 8448TIP3    H146759   4.271   4.646  14.684  0.2284 -0.7031 -1.2665
 8448TIP3    H246760   4.300   4.788  14.726 -0.6276 -1.5581  2.5413
 8449TIP3   OH246761   4.391   6.126  16.672 -0.3110  0.3638 -0.6133
 8449TIP3    H146762   4.395   6.177  16.753 -0.7231  0.8024 -0.8587
 8449TIP3    H246763   4.482   6.120  16.643  0.0258 -0.9830  0.5854
 8450TIP3   OH246764   1.896   5.164  13.884 -0.6374 -0.6148  0.3462
 8450TIP3    H146765   1.829   5.158  13.953 -0.6949 -0.0839  0.3382
 8450TIP3    H246766   1.957   5.231  13.916 -0.5556 -0.5097 -0.0265
 8451TIP3   OH246767   1.407   3.178   3.973  0.6394  0.5058 -0.0685
 8451TIP3    H146768   1.381   3.088   3.989 -1.0835  0.7533 -1.2273
 8451TIP3    H246769   1.503   3.175   3.969  0.7393 -0.9005  1.8518
 8452TIP3   OH246770   2.542   4.068   5.876 -0.3506 -0.3039  0.8858
 8452TIP3    H146771   2.533   4.005   5.805 -0.5281  0.2808  0.3844
 8452TIP3    H246772   2.454   4.102   5.889 -0.2636 -0.1966  1.1928
 8453TIP3   OH246773   2.708   0.018  13.302 -0.6478  0.2751  0.8015
 8453TIP3    H146774   2.741   0.098  13.260 -1.6484  0.8459  1.0710
 8453TIP3    H246775   2.634  -0.009  13.247 -0.7677 -0.0644  1.1280
 8454TIP3   OH246776   1.934   5.107   3.861  0.2779 -0.2109  0.0063
 8454TIP3    H146777   1.950   5.160   3.783 -0.3947  2.8315  1.7653
 8454TIP3    H246778   2.021   5.097   3.900  0.4778 -0.8946 -0.5911
 8455TIP3   OH246779   3.992   2.629   2.222  0.0464  0.3630  0.6044
 8455TIP3    H146780   4.084   2.606   2.207 -0.4670 -0.6311 -1.3188
 8455TIP3    H246781   3.978   2.610   2.314  0.9605 -2.5945  0.2398
 8456TIP3   OH246782   5.018   3.062  16.478  0.1682 -0.0849 -0.1477
 8456TIP3    H146783   5.053   3.065  16.389 -2.1540 -0.1845 -1.1361
 8456TIP3    H246784   5.039   2.974  16.510  0.7869 -0.1351 -0.6814
 8457TIP3   OH246785   0.133   3.170   1.465 -0.4898 -0.0831  0.1885
 8457TIP3    H146786   0.063   3.105   1.471 -0.0157 -0.5077  1.2856
 8457TIP3    H246787   0.152   3.176   1.371 -1.2293 -0.7846 -0.0137
 8458TIP3   OH246788   3.757   1.662  16.098  0.4376 -0.8279  0.5180
 8458TIP3    H146789   3.742   1.719  16.174  0.9034  0.2802 -0.1963
 8458TIP3    H246790   3.675   1.668  16.049  1.4035  1.5588 -1.0104
 8459TIP3   OH246791   5.587   5.514  14.307 -0.0529  0.0526  0.6653
 8459TIP3    H146792   5.610   5.492  14.398 -0.9029  2.2308  1.4730
 8459TIP3    H246793   5.513   5.457  14.286 -1.4988  1.2256  2.2930
 8460TIP3   OH246794   1.536   0.594  16.455 -0.0454 -0.8076  0.2472
 8460TIP3    H146795   1.626   0.584  16.487  0.1227 -0.4028 -0.0739
 8460TIP3    H246796   1.540   0.672  16.399 -0.6465 -0.6594  0.4049
 8461TIP3   OH246797   3.144   5.406   0.133 -0.0160 -0.5366  0.1011
 8461TIP3    H146798   3.136   5.436   0.043  1.7290 -0.9122 -0.2016
 8461TIP3    H246799   3.238   5.392   0.147 -0.2251 -0.4106  2.0021
 8462TIP3   OH246800   1.522   1.657   4.360  0.0747  0.4117  0.0704
 8462TIP3    H146801   1.570   1.709   4.424  1.5389 -1.3267  0.4575
 8462TIP3    H246802   1.577   1.657   4.282 -1.1490  1.5441 -0.8481
 8463TIP3   OH246803   5.729   5.933   4.996 -0.6480  0.4778 -0.5224
 8463TIP3    H146804   5.711   5.907   4.906 -1.2672 -0.2686 -0.1994
 8463TIP3    H246805   5.686   6.018   5.005 -1.5585  0.0379 -0.6118
 8464TIP3   OH246806   1.348   3.573   5.359  0.0614 -0.0808 -0.7655
 8464TIP3    H146807   1.400   3.574   5.279 -0.2983  0.8059 -0.9904
 8464TIP3    H246808   1.313   3.483   5.363  1.4277 -0.6324 -0.7120
 8465TIP3   OH246809   3.212   6.332   4.115 -0.4389  0.2582  0.3857
 8465TIP3    H146810   3.157   6.410   4.115 -0.1224  0.4969 -0.5508
 8465TIP3    H246811   3.211   6.301   4.206 -2.8610 -0.2789  0.2561
 8466TIP3   OH246812   3.730   0.795   5.104 -0.1966  0.0861  0.3727
 8466TIP3    H146813   3.754   0.703   5.096 -0.3566  0.0420  0.3957
 8466TIP3    H246814   3.735   0.830   5.015  1.7654  0.5360  0.6073
 8467TIP3   OH246815   5.948   6.192  16.566 -0.3832 -0.1410  0.4756
 8467TIP3    H146816   5.864   6.200  16.612  0.0387 -2.1664  1.7213
 8467TIP3    H246817   5.959   6.098  16.553  2.0499  0.0304  0.9983
 8468TIP3   OH246818   5.112   3.479   0.000 -0.3493 -0.0809 -0.2981
 8468TIP3    H146819   5.103   3.431   0.083 -0.7502  0.1696 -0.1905
 8468TIP3    H246820   5.084   3.416  -0.067 -0.1453 -0.2435 -0.2315
 8469TIP3   OH246821   1.383   3.808   2.764  0.3796  0.2005  0.5280
 8469TIP3    H146822   1.375   3.903   2.776 -1.2367  0.0699  0.7249
 8469TIP3    H246823   1.368   3.794   2.671 -0.7983  0.0342  0.7297
 8470TIP3   OH246824   1.619   4.068  13.991 -0.3270 -0.3254  0.6560
 8470TIP3    H146825   1.668   4.079  13.910  0.7216 -3.3666  0.7447
 8470TIP3    H246826   1.643   4.144  14.044  2.4487 -0.4591 -0.2254
 8471TIP3   OH246827   0.695   4.848  12.545  0.4206 -0.4769  0.5117
 8471TIP3    H146828   0.714   4.811  12.631  1.5343 -1.7513 -0.2511
 8471TIP3    H246829   0.771   4.903  12.524  0.5097 -0.7851  0.0102
 8472TIP3   OH246830   2.271   6.776  13.791  0.0785  0.0656  0.5263
 8472TIP3    H146831   2.281   6.691  13.834  1.3258  0.6151  1.3870
 8472TIP3    H246832   2.209   6.824  13.845 -1.3243 -0.5864 -0.4569
 8473TIP3   OH246833   6.598   4.991   6.328 -0.2566 -0.4142 -0.1479
 8473TIP3    H146834   6.545   5.056   6.374 -1.2742  0.4485 -2.3988
 8473TIP3    H246835   6.534   4.932   6.288  0.6337 -2.1114  0.8657
 8474TIP3   OH246836   2.730   2.601  13.571  0.6628 -0.4564  0.3876
 8474TIP3    H146837   2.676   2.654  13.513  2.3886  0.0691 -0.8022
 8474TIP3    H246838   2.706   2.630  13.659  0.3691  1.1269 -0.1880
 8475TIP3   OH246839   4.130   2.052  15.657 -0.4629  0.1291  0.1367
 8475TIP3    H146840   4.091   2.061  15.744 -1.1119 -0.3233 -0.1030
 8475TIP3    H246841   4.086   1.976  15.618  0.5536 -0.3204 -0.1948
 8476TIP3   OH246842   2.777   2.480   4.224 -0.2332 -0.6099 -0.8137
 8476TIP3    H146843   2.832   2.557   4.207 -0.9593 -0.6269 -3.7602
 8476TIP3    H246844   2.833   2.422   4.275  1.1648  0.9007 -0.5401
 8477TIP3   OH246845   5.457   3.275  17.118  0.3125 -0.7068  0.4173
 8477TIP3    H146846   5.457   3.361  17.075  0.1513 -0.9399 -0.0551
 8477TIP3    H246847   5.374   3.235  17.092  1.0222 -1.5830 -0.5408
 8478TIP3   OH246848   4.006   5.854  11.933  0.4081 -0.0666 -0.3539
 8478TIP3    H146849   4.094   5.830  11.962 -0.3187 -3.1149 -0.3060
 8478TIP3    H246850   3.947   5.814  11.997 -1.0724  1.6403 -0.5465
 8479TIP3   OH246851   2.945   6.179  15.709  0.5866  0.2579 -0.0668
 8479TIP3    H146852   2.861   6.151  15.672  1.5764  0.0659 -2.3241
 8479TIP3    H246853   2.948   6.273  15.694  0.9633  0.1899 -0.4483
 8480TIP3   OH246854   1.680   0.099   3.389  0.2217 -0.0155  0.4729
 8480TIP3    H146855   1.725   0.053   3.460 -1.7994 -1.2098  1.0780
 8480TIP3    H246856   1.594   0.120   3.425 -0.3083  0.7199 -1.1328
 8481TIP3   OH246857   5.108   3.678   2.302 -0.3582 -0.2433  0.4233
 8481TIP3    H146858   5.031   3.728   2.330 -0.5524 -0.0748 -0.3807
 8481TIP3    H246859   5.178   3.709   2.359 -0.1704  1.8966 -0.8297
 8482TIP3   OH246860   3.710   4.426  10.642 -0.2041  0.6473 -0.9344
 8482TIP3    H146861   3.666   4.345  10.665  0.3784 -0.2743 -2.8293
 8482TIP3    H246862   3.804   4.405  10.647 -0.0497  0.9361 -2.1729
 8483TIP3   OH246863   6.277   2.233  15.265  0.1374 -0.1682 -0.4349
 8483TIP3    H146864   6.268   2.175  15.340 -0.1245 -0.6593 -0.8367
 8483TIP3    H246865   6.284   2.174  15.190  1.1457  0.3051 -0.7228
 8484TIP3   OH246866   0.141   5.455   1.195 -0.5196 -0.6056  0.5066
 8484TIP3    H146867   0.176   5.480   1.110 -1.3810 -2.1319 -0.3350
 8484TIP3    H246868   0.151   5.360   1.199  0.0583 -0.5154  2.3812
 8485TIP3   OH246869   2.414   6.655   3.331 -0.4739  0.0302 -0.0809
 8485TIP3    H146870   2.326   6.692   3.323  0.4602  2.8833  1.4249
 8485TIP3    H246871   2.423   6.633   3.423  0.6184  0.4503 -0.0726
 8486TIP3   OH246872   2.705   5.977  11.052 -0.1593  0.0631 -0.7188
 8486TIP3    H146873   2.783   5.936  11.091 -1.9415 -0.6451  2.4711
 8486TIP3    H246874   2.693   5.933  10.969  0.8053 -2.4278  0.3710
 8487TIP3   OH246875   2.644   1.188  12.036 -0.2646  0.3264 -0.3215
 8487TIP3    H146876   2.618   1.272  11.999 -0.2556  1.1387  1.3884
 8487TIP3    H246877   2.722   1.163  11.987  0.1515  1.6815 -0.4049
 8488TIP3   OH246878   4.117   2.110   3.296 -0.1180  0.1862 -0.0622
 8488TIP3    H146879   4.101   2.017   3.282  0.4802  0.3883 -2.4244
 8488TIP3    H246880   4.030   2.150   3.297 -0.2826 -0.0553 -2.0759
 8489TIP3   OH246881   5.849   1.438   3.898  0.3472 -0.3350  0.3239
 8489TIP3    H146882   5.780   1.396   3.846 -0.7382  1.0785  0.5714
 8489TIP3    H246883   5.906   1.365   3.925 -0.6048 -1.4353 -0.5339
 8490TIP3   OH246884   2.428   1.731   3.626 -0.2138 -0.2340 -0.4879
 8490TIP3    H146885   2.385   1.808   3.589  2.0519  0.7467 -1.2603
 8490TIP3    H246886   2.521   1.746   3.611  0.4657 -2.0600  1.4363
 8491TIP3   OH246887   2.004   5.068  16.678 -0.5235  0.5086  0.2360
 8491TIP3    H146888   2.066   5.123  16.631 -0.9185 -0.4364 -1.4828
 8491TIP3    H246889   1.935   5.049  16.614 -2.5193  1.3586  1.9917
 8492TIP3   OH246890   2.046   0.042   0.605 -0.0717  0.2332 -0.1438
 8492TIP3    H146891   2.073   0.125   0.643  2.3324 -0.0288 -1.1149
 8492TIP3    H246892   1.974   0.012   0.660  0.9888  1.5148  2.0555
 8493TIP3   OH246893   1.836   5.008   0.568  0.5647  0.1881  0.0410
 8493TIP3    H146894   1.766   5.040   0.625 -0.4369  0.4342 -1.2722
 8493TIP3    H246895   1.822   4.913   0.564 -0.5167  0.3846 -1.2430
 8494TIP3   OH246896   0.077   5.240   0.936 -0.0382 -0.2398  0.4327
 8494TIP3    H146897   0.130   5.200   1.005  1.5780  1.0935  0.0229
 8494TIP3    H246898   0.121   5.216   0.855 -1.2157 -0.7467 -0.0829
 8495TIP3   OH246899   3.326   4.537  12.664 -0.1810  0.2482  0.4977
 8495TIP3    H146900   3.314   4.526  12.758  0.7619 -0.5379  0.5422
 8495TIP3    H246901   3.320   4.632  12.650  2.6594  0.7272  1.8225
 8496TIP3   OH246902   3.303   3.339  11.910  0.2982 -0.3858 -0.4350
 8496TIP3    H146903   3.342   3.259  11.876  0.2842 -0.3077 -0.6342
 8496TIP3    H246904   3.211   3.316  11.926 -0.1950  0.1092 -2.2805
 8497TIP3   OH246905   4.211   6.103   5.582 -0.1940  0.6858  0.2099
 8497TIP3    H146906   4.121   6.125   5.557 -0.5675 -0.8372  0.0962
 8497TIP3    H246907   4.227   6.153   5.662 -0.5050  2.3176 -0.7136
 8498TIP3   OH246908   4.923   2.081  14.701 -0.4308 -0.4424  0.1900
 8498TIP3    H146909   4.879   2.166  14.697 -0.5268 -0.4429  1.0738
 8498TIP3    H246910   4.901   2.047  14.788  1.1462 -0.5334  0.5827
 8499TIP3   OH246911   0.091   4.353   4.846 -0.0030 -0.1741 -0.2199
 8499TIP3    H146912   0.048   4.438   4.861 -1.7281 -1.0860  0.1870
 8499TIP3    H246913   0.066   4.300   4.921  0.6137 -1.2372 -0.7466
 8500TIP3   OH246914   1.974   3.604  16.110 -0.3106 -0.1313  0.1163
 8500TIP3    H146915   1.914   3.553  16.164  0.5914  1.3108  2.6789
 8500TIP3    H246916   2.056   3.554  16.111  1.0822  1.7419  3.9477
 8501TIP3   OH246917   2.637   1.688  15.779  0.1125 -0.2743 -0.1425
 8501TIP3    H146918   2.673   1.602  15.799 -0.1851 -0.3327  0.1377
 8501TIP3    H246919   2.640   1.693  15.683  0.9554 -0.2383 -0.1211
 8502TIP3   OH246920   0.989   6.598  12.939  0.5212  0.4729 -0.2605
 8502TIP3    H146921   1.040   6.566  12.865  1.9194  0.0357  0.8541
 8502TIP3    H246922   1.053   6.615  13.007 -0.8542 -0.5660  1.3776
 8503TIP3   OH246923   1.796   6.007   6.365 -0.5490 -0.2687 -0.3390
 8503TIP3    H146924   1.714   6.007   6.414 -1.0910  0.2776 -1.2322
 8503TIP3    H246925   1.778   6.059   6.287  0.5403 -0.4482 -0.7282
 8504TIP3   OH246926   2.534   2.752   3.797 -0.2325  0.2197 -0.7696
 8504TIP3    H146927   2.606   2.778   3.854 -1.2144  0.5215  0.3618
 8504TIP3    H246928   2.497   2.834   3.765 -1.2020  0.1379  0.1025
 8505TIP3   OH246929   4.607   5.461  13.386  0.3121  0.2456  0.3409
 8505TIP3    H146930   4.693   5.425  13.362  1.2641  2.3144  0.4129
 8505TIP3    H246931   4.561   5.388  13.429  1.7480 -1.1105 -0.3237
 8506TIP3   OH246932   0.758   1.150   6.531 -0.2513  0.1840  0.0692
 8506TIP3    H146933   0.682   1.174   6.583  0.6794  0.7085  1.2327
 8506TIP3    H246934   0.723   1.093   6.463 -1.6728  0.3752  0.6035
 8507TIP3   OH246935   5.211   3.469  15.243 -0.1228 -0.4659 -0.9186
 8507TIP3    H146936   5.232   3.403  15.310 -0.6723  0.6840  0.4347
 8507TIP3    H246937   5.274   3.539  15.260 -1.2834  0.5189 -0.5524
 8508TIP3   OH246938   3.265   0.473   5.913  0.1650 -0.1887  0.5101
 8508TIP3    H146939   3.234   0.540   5.852  0.9128  0.9345  1.3105
 8508TIP3    H246940   3.342   0.512   5.954  0.0761 -1.1749  1.6810
 8509TIP3   OH246941   5.676   5.276  14.826  0.2300 -0.5918  0.1201
 8509TIP3    H146942   5.736   5.217  14.780  0.3083 -0.9512  0.6807
 8509TIP3    H246943   5.595   5.226  14.836 -0.2508 -0.0371 -0.8202
 8510TIP3   OH246944   3.762   5.347  14.002 -0.7347 -0.1261 -0.2603
 8510TIP3    H146945   3.851   5.313  13.994 -0.1134  1.4724 -0.5599
 8510TIP3    H246946   3.746   5.352  14.096 -0.2818  0.1275 -0.1943
 8511TIP3   OH246947   3.401   0.053   3.704  0.0049 -0.7919  0.8437
 8511TIP3    H146948   3.321   0.002   3.712 -0.1859 -0.6520  0.0166
 8511TIP3    H246949   3.371   0.139   3.674  0.5667 -1.2675 -1.2566
 8512TIP3   OH246950   5.593   2.634   6.036 -0.0624 -0.2315  0.5689
 8512TIP3    H146951   5.560   2.592   6.116 -1.7032  1.0353  0.6039
 8512TIP3    H246952   5.568   2.726   6.045  2.2852  0.5518 -0.1052
 8513TIP3   OH246953   3.444   1.898   0.374 -0.3049 -0.0263  0.4029
 8513TIP3    H146954   3.359   1.939   0.357  0.2600  1.5700  1.2203
 8513TIP3    H246955   3.458   1.910   0.468  1.1701  0.4709  0.1484
 8514TIP3   OH246956   4.100   2.582  15.765  0.5107  0.5981  0.1354
 8514TIP3    H146957   4.028   2.605  15.825  0.2686  0.6327 -0.1670
 8514TIP3    H246958   4.124   2.493  15.790  0.0481  0.4121 -0.0720
 8515TIP3   OH246959   4.711   0.430   1.599 -0.4232  0.0518  0.1363
 8515TIP3    H146960   4.804   0.410   1.585 -0.6813 -0.3917 -1.0583
 8515TIP3    H246961   4.704   0.524   1.583 -0.4706 -0.2153 -1.5515
 8516TIP3   OH246962   0.486   1.660   6.224 -0.1139  0.0330  0.1638
 8516TIP3    H146963   0.509   1.572   6.196 -1.5162 -0.7219  1.2844
 8516TIP3    H246964   0.504   1.715   6.148 -0.1710 -1.3664 -0.8952
 8517TIP3   OH246965   1.541   4.658   1.828  0.0913 -0.7176 -0.0144
 8517TIP3    H146966   1.628   4.670   1.790 -0.5645  0.8176 -1.1876
 8517TIP3    H246967   1.536   4.724   1.897 -0.3519 -0.3802 -0.3665
 8518TIP3   OH246968   4.226   4.675   0.730 -0.4540 -0.0479 -0.2638
 8518TIP3    H146969   4.279   4.599   0.707  0.5822  0.2781  0.9324
 8518TIP3    H246970   4.290   4.744   0.750 -1.3606  0.8539 -0.4053
 8519TIP3   OH246971   2.801   3.257  12.041 -0.3038 -0.0243 -0.3437
 8519TIP3    H146972   2.744   3.273  11.965 -1.0735  1.2476  0.4524
 8519TIP3    H246973   2.783   3.166  12.066  1.4544 -1.1869 -2.8359
 8520TIP3   OH246974   2.145   5.506  12.570  0.0245 -0.1452  0.1455
 8520TIP3    H146975   2.065   5.528  12.618  0.0685  1.4026 -0.4372
 8520TIP3    H246976   2.215   5.549  12.619  0.5865 -1.7386  0.8252
 8521TIP3   OH246977   0.172   3.218   5.723 -0.5064  0.3552 -0.5009
 8521TIP3    H146978   0.193   3.156   5.792 -3.7075 -2.4104 -1.7301
 8521TIP3    H246979   0.223   3.189   5.647  1.3914  2.1063  0.0120
 8522TIP3   OH246980   3.973   5.951   2.801 -0.0869 -0.0139  0.3444
 8522TIP3    H146981   3.924   5.933   2.721  0.5712  0.9519 -0.3001
 8522TIP3    H246982   3.934   6.032   2.836  1.4530  1.1697 -0.5615
 8523TIP3   OH246983   1.799   5.095   2.457 -0.3770  0.2896  0.4890
 8523TIP3    H146984   1.759   5.085   2.543  0.2513  1.4400  0.9383
 8523TIP3    H246985   1.827   5.007   2.433 -3.3672 -0.6273  0.0085
 8524TIP3   OH246986   2.031   6.027  14.011 -0.7643  0.0700 -0.0686
 8524TIP3    H146987   2.114   5.987  14.038 -0.7476  0.3855  0.3633
 8524TIP3    H246988   1.975   6.020  14.088 -1.1242 -0.0958 -0.3432
 8525TIP3   OH246989   5.363   2.762   0.656 -0.2906 -0.3721  0.3906
 8525TIP3    H146990   5.378   2.689   0.716 -1.1691 -0.3707  0.6206
 8525TIP3    H246991   5.371   2.840   0.711 -2.8501 -0.4150  0.9481
 8526TIP3   OH246992   5.944   0.534   4.080 -0.6111 -0.4583 -0.1546
 8526TIP3    H146993   5.915   0.620   4.049 -2.3413 -0.4440  1.3061
 8526TIP3    H246994   5.871   0.476   4.062 -0.4781 -1.0678  1.1045
 8527TIP3   OH246995   6.608   5.790  14.588  0.3800 -0.1620 -0.7944
 8527TIP3    H146996   6.664   5.867  14.571 -0.3557 -0.0636 -3.0554
 8527TIP3    H246997   6.582   5.760  14.502 -0.8564 -1.8844  0.1248
 8528TIP3   OH246998   5.281   1.509  15.343 -0.5206 -0.4496  0.7811
 8528TIP3    H146999   5.286   1.436  15.281 -0.2589  0.0938  0.1509
 8528TIP3    H247000   5.333   1.480  15.418  2.1346  0.2521 -0.6732
 8529TIP3   OH247001   1.748   3.209  16.565  0.2036  0.3293 -0.5346
 8529TIP3    H147002   1.730   3.195  16.658 -0.7097  1.5621 -0.4981
 8529TIP3    H247003   1.806   3.285  16.563 -0.9272  1.2085 -1.0047
 8530TIP3   OH247004   2.294   6.654  12.204 -0.1182  0.1665 -0.4821
 8530TIP3    H147005   2.296   6.559  12.188 -1.8920  0.1918 -1.1279
 8530TIP3    H247006   2.367   6.689  12.154  1.2370 -0.9405  0.6146
 8531TIP3   OH247007   2.726   5.629   1.544 -0.3912  0.4737 -0.0324
 8531TIP3    H147008   2.642   5.660   1.511 -0.8288 -0.1228  0.4960
 8531TIP3    H247009   2.704   5.584   1.626  0.4466  0.3597  0.1335
 8532TIP3   OH247010   3.832   0.092   0.575 -0.0039 -0.5407 -0.0529
 8532TIP3    H147011   3.872   0.179   0.565 -1.1174 -0.1176 -1.0776
 8532TIP3    H247012   3.874   0.055   0.652  1.4064  0.4087 -0.3201
 8533TIP3   OH247013   1.857   6.671  15.438  0.3428  0.5476 -0.1854
 8533TIP3    H147014   1.925   6.610  15.467  0.2906  0.5834  0.0130
 8533TIP3    H247015   1.904   6.736  15.385  0.3060 -0.0053 -0.9140
 8534TIP3   OH247016   3.812   4.229   5.414 -0.1902 -0.0124 -0.1767
 8534TIP3    H147017   3.886   4.217   5.474 -1.2206 -1.7705  0.8181
 8534TIP3    H247018   3.741   4.262   5.470 -1.0550 -1.3205 -0.4612
 8535TIP3   OH247019   6.724   3.203  15.537  0.3385 -0.7612 -0.1230
 8535TIP3    H147020   6.786   3.201  15.464 -0.3649  0.7556 -0.8253
 8535TIP3    H247021   6.777   3.195  15.615  1.3738  0.0178 -0.7229
 8536TIP3   OH247022   2.776   4.919  14.874 -0.0697  0.0456 -0.1145
 8536TIP3    H147023   2.741   5.001  14.910  3.7196  2.4777 -1.3785
 8536TIP3    H247024   2.783   4.935  14.780  3.2150 -0.5421 -0.0834
 8537TIP3   OH247025   4.788   1.536   4.117 -0.6318  0.1200 -0.3239
 8537TIP3    H147026   4.742   1.618   4.138 -0.6380  0.2189 -0.7259
 8537TIP3    H247027   4.726   1.468   4.141 -0.5460  0.2240  0.2149
 8538TIP3   OH247028   3.967   6.469   3.499  0.1306 -0.4943  0.7710
 8538TIP3    H147029   3.990   6.496   3.410  1.5371 -2.3933  0.5036
 8538TIP3    H247030   3.921   6.545   3.536  0.7668  0.8627 -1.0824
 8539TIP3   OH247031   4.474   3.469  14.980 -0.2140  0.1449 -0.5457
 8539TIP3    H147032   4.520   3.511  15.053  3.1385 -1.5476 -1.5199
 8539TIP3    H247033   4.512   3.509  14.902 -1.4884 -0.3080 -1.4253
 8540TIP3   OH247034   4.529   5.269  14.543  0.0092 -0.0055 -0.6481
 8540TIP3    H147035   4.585   5.232  14.475 -0.9647 -0.4197 -1.2486
 8540TIP3    H247036   4.566   5.237  14.625  1.2227  0.5206 -0.9616
 8541TIP3   OH247037   3.999   3.679  13.739 -0.1058  0.1019  0.3815
 8541TIP3    H147038   4.013   3.589  13.708  0.7707  0.6604 -0.9050
 8541TIP3    H247039   3.907   3.697  13.720  0.6264  0.8431 -3.2629
 8542TIP3   OH247040   6.662   2.638   2.042  0.0860 -0.1441  0.1521
 8542TIP3    H147041   6.713   2.707   1.999 -1.0924 -0.0118 -1.1012
 8542TIP3    H247042   6.661   2.566   1.979 -1.2029 -0.1588  0.1516
 8543TIP3   OH247043   2.625   2.017   4.061  0.2786  0.4863 -0.1537
 8543TIP3    H147044   2.660   2.079   3.997 -0.9496  0.1367 -1.2167
 8543TIP3    H247045   2.590   2.071   4.131  0.7892  0.9158 -0.2222
 8544TIP3   OH247046   3.520   0.063   2.009  0.4908 -0.2644 -0.1655
 8544TIP3    H147047   3.490   0.116   1.935 -0.3554 -1.4980 -0.7258
 8544TIP3    H247048   3.491  -0.025   1.989  2.5228 -1.1207  0.3804
 8545TIP3   OH247049   0.144   2.757  11.900  0.7399  0.3997 -0.3187
 8545TIP3    H147050   0.224   2.731  11.855  1.1925  1.2362 -0.0130
 8545TIP3    H247051   0.173   2.776  11.990  0.0582 -0.0637  0.0127
 8546TIP3   OH247052   6.345   3.654  12.493 -0.1624  0.4404 -0.5182
 8546TIP3    H147053   6.343   3.713  12.569  3.4412 -0.1886  0.2731
 8546TIP3    H247054   6.429   3.609  12.501 -1.0892 -2.0417 -3.1863
 8547TIP3   OH247055   2.906   3.445  14.510 -0.3603 -0.1825 -0.0083
 8547TIP3    H147056   2.982   3.422  14.457 -0.3426  1.2674 -0.6517
 8547TIP3    H247057   2.913   3.388  14.587  1.3299 -0.1296 -0.0857
 8548TIP3   OH247058   5.354   1.187  11.697 -0.5027 -0.1249  0.2329
 8548TIP3    H147059   5.395   1.101  11.694 -0.0879  0.1040 -2.0280
 8548TIP3    H247060   5.261   1.170  11.681 -0.5967 -0.2479  0.9052
 8549TIP3   OH247061   1.675   3.012  15.587 -0.2239  0.4523 -0.3602
 8549TIP3    H147062   1.588   2.973  15.591 -0.4602  1.0581  0.7020
 8549TIP3    H247063   1.665   3.091  15.534 -0.1988  0.2177 -0.7143
 8550TIP3   OH247064   3.741   6.387   0.373  0.7691 -0.2120 -0.1078
 8550TIP3    H147065   3.648   6.409   0.371  1.0684  1.1659 -0.2171
 8550TIP3    H247066   3.764   6.388   0.466  0.7822  0.0234 -0.1109
 8551TIP3   OH247067   2.270   5.999  15.734 -0.7620  0.1473 -0.5359
 8551TIP3    H147068   2.188   6.042  15.758 -0.9288 -1.0870  1.3365
 8551TIP3    H247069   2.319   5.995  15.817  0.1084 -1.4083 -1.0971
 8552TIP3   OH247070   6.261   0.071  16.088 -0.5187  0.2821  0.4312
 8552TIP3    H147071   6.351   0.098  16.109 -1.1451  1.4143  1.7375
 8552TIP3    H247072   6.229   0.030  16.168 -0.2336 -2.8613 -0.9080
 8553TIP3   OH247073   3.354   6.237   3.883 -0.6602  0.3047 -0.7110
 8553TIP3    H147074   3.373   6.313   3.828 -1.7918  0.9287 -0.2784
 8553TIP3    H247075   3.314   6.274   3.962 -1.8124 -0.7647 -0.7508
 8554TIP3   OH247076   4.926   5.317   2.511  0.0110 -0.5019 -0.3964
 8554TIP3    H147077   4.912   5.342   2.603  2.8488 -0.9860  0.2470
 8554TIP3    H247078   4.973   5.234   2.516 -1.2689 -1.4212 -2.3777
 8555TIP3   OH247079   3.878   0.899   5.305 -0.4252  0.6746  0.0173
 8555TIP3    H147080   3.799   0.857   5.271 -0.4043 -0.1872  0.9687
 8555TIP3    H247081   3.940   0.895   5.233 -0.6560 -0.3166 -0.1371
 8556TIP3   OH247082   5.832   2.173  12.349 -0.1630  0.5247 -0.0149
 8556TIP3    H147083   5.918   2.158  12.310 -0.3576 -0.7027  0.0040
 8556TIP3    H247084   5.841   2.257  12.395  0.6896  0.9512 -0.9229
 8557TIP3   OH247085   1.791   5.745  15.651 -0.1522  0.0638 -0.7334
 8557TIP3    H147086   1.805   5.837  15.674 -1.0951  0.1277 -0.4070
 8557TIP3    H247087   1.765   5.747  15.560  0.1265  0.0891 -0.8150
 8558TIP3   OH247088   0.824   6.280  11.553  0.0160  0.1393 -0.0676
 8558TIP3    H147089   0.765   6.222  11.506 -0.6111 -0.1332  1.0232
 8558TIP3    H247090   0.782   6.294  11.638  1.2097  0.4408  0.4993
 8559TIP3   OH247091   3.471   1.051  15.825 -0.2431 -0.5248 -1.1404
 8559TIP3    H147092   3.478   0.980  15.761 -0.2895 -0.5682 -1.0977
 8559TIP3    H247093   3.537   1.030  15.891 -0.2771 -0.5438 -1.1125
 8560TIP3   OH247094   3.259   1.461   2.114 -0.2138  0.2809 -0.1962
 8560TIP3    H147095   3.169   1.490   2.129  0.1509  1.9889 -1.0280
 8560TIP3    H247096   3.302   1.473   2.198 -0.6567 -0.1755  0.1039
 8561TIP3   OH247097   2.244   4.006   2.509 -0.4183  0.0251  0.2808
 8561TIP3    H147098   2.181   3.935   2.518 -0.2538 -0.7253 -3.0588
 8561TIP3    H247099   2.223   4.045   2.424  1.0006  2.4726  0.9821
 8562TIP3   OH247100   3.832   5.893   4.599  0.4827 -0.1821 -0.2006
 8562TIP3    H147101   3.868   5.836   4.667 -0.3978 -0.0100  0.4331
 8562TIP3    H247102   3.875   5.977   4.612  1.4912 -0.5783 -0.8835
 8563TIP3   OH247103   2.410   5.427   0.818  0.3841 -0.2728 -0.9306
 8563TIP3    H147104   2.389   5.373   0.894 -0.2313  1.6226  0.3297
 8563TIP3    H247105   2.369   5.382   0.745 -0.2840 -1.4062  0.0959
 8564TIP3   OH247106   0.208   5.614   2.969 -0.5718  0.7454  0.6077
 8564TIP3    H147107   0.162   5.676   3.025  1.8695  1.1994  2.2588
 8564TIP3    H247108   0.293   5.655   2.953 -1.2842  0.9624 -4.0676
 8565TIP3   OH247109   3.547   2.542   0.327 -0.0957 -0.0801  0.0761
 8565TIP3    H147110   3.598   2.561   0.406 -0.2211 -0.7330  0.3162
 8565TIP3    H247111   3.518   2.628   0.297  1.8418  0.3884 -0.5588
 8566TIP3   OH247112   0.435   2.371   0.014 -0.0534  0.3904  0.3503
 8566TIP3    H147113   0.510   2.320   0.043  0.8515 -0.5642 -3.1235
 8566TIP3    H247114   0.366   2.307  -0.004  0.4257  0.4847 -2.1751
 8567TIP3   OH247115   0.606   0.029  11.462 -0.2102 -0.7155  0.7334
 8567TIP3    H147116   0.516   0.043  11.490 -1.2167 -2.0629 -1.5591
 8567TIP3    H247117   0.615  -0.066  11.459  0.5012 -0.6143 -1.3413
 8568TIP3   OH247118   2.567   5.110   5.302 -0.1845  0.2525 -0.1959
 8568TIP3    H147119   2.522   5.047   5.245 -1.0212 -0.6334  1.3613
 8568TIP3    H247120   2.638   5.059   5.342 -0.4937  0.4342  0.6184
 8569TIP3   OH247121   3.014   6.105  13.064 -0.3328  0.6309 -0.5573
 8569TIP3    H147122   2.995   6.030  13.008 -0.1859  0.4333 -0.3474
 8569TIP3    H247123   3.047   6.173  13.005  1.7597 -0.2497 -0.4860
 8570TIP3   OH247124   3.162   1.258  11.041 -0.9235 -0.1878 -0.3433
 8570TIP3    H147125   3.169   1.172  11.082 -1.5062 -0.3713 -0.6193
 8570TIP3    H247126   3.164   1.240  10.947 -0.3647  0.1640 -0.4040
 8571TIP3   OH247127   1.336   1.936   2.139 -0.1419  0.9177  0.2993
 8571TIP3    H147128   1.317   2.019   2.095  1.3697  2.1462  1.8059
 8571TIP3    H247129   1.271   1.931   2.210  0.1511  1.1277  0.5840
 8572TIP3   OH247130   3.976   3.609  16.571 -0.7193 -0.7043  0.3747
 8572TIP3    H147131   4.035   3.684  16.561 -1.3519  0.0672  2.0396
 8572TIP3    H247132   4.026   3.535  16.537 -0.4922  0.5706 -2.4079
 8573TIP3   OH247133   4.124   2.697  14.718  0.6710 -0.6086 -0.2169
 8573TIP3    H147134   4.119   2.789  14.746  0.6919 -0.4066 -0.8581
 8573TIP3    H247135   4.193   2.696  14.652  2.1145 -1.4793  1.2530
 8574TIP3   OH247136   3.929   1.628  14.074 -0.4735  0.2580 -0.0631
 8574TIP3    H147137   3.921   1.535  14.053  0.5906 -0.2965  1.7411
 8574TIP3    H247138   3.859   1.644  14.138 -0.0912  0.4499  0.3144
 8575TIP3   OH247139   6.360   2.262  13.214  0.1363 -0.3666 -0.3403
 8575TIP3    H147140   6.399   2.185  13.171 -0.0173  0.7652 -2.6879
 8575TIP3    H247141   6.274   2.232  13.242  0.4766 -1.3350 -0.2897
 8576TIP3   OH247142   1.215   4.876  11.889 -0.3750 -0.0078 -0.2332
 8576TIP3    H147143   1.249   4.841  11.972 -0.1324 -0.2705 -0.4411
 8576TIP3    H247144   1.270   4.836  11.822  0.5567  1.5077 -0.4392
 8577TIP3   OH247145   1.961   2.599  15.671 -1.0509  0.2035  0.3712
 8577TIP3    H147146   1.972   2.518  15.621 -0.2036 -0.1067  1.0439
 8577TIP3    H247147   2.041   2.607  15.723 -1.5325  0.9804  1.0209
 8578TIP3   OH247148   1.647   2.445   2.840  0.3749 -0.1806  0.2724
 8578TIP3    H147149   1.686   2.384   2.778  0.5715  0.3670 -0.1506
 8578TIP3    H247150   1.565   2.403   2.867  0.5465 -0.6627  0.0407
 8579TIP3   OH247151   6.349   3.368   2.117 -0.1735  0.2163 -0.1121
 8579TIP3    H147152   6.373   3.364   2.210 -2.4134  0.2059  0.5347
 8579TIP3    H247153   6.386   3.450   2.086  0.8638  0.0810  0.6960
 8580TIP3   OH247154   4.143   0.196  13.843  0.0553  0.9619  0.2106
 8580TIP3    H147155   4.124   0.105  13.819  3.7946 -0.4323  1.8062
 8580TIP3    H247156   4.198   0.229  13.773  0.0418  1.4462  0.4247
 8581TIP3   OH247157   2.864   0.623  14.275 -0.1891 -0.6591  0.2036
 8581TIP3    H147158   2.893   0.570  14.349 -0.4228 -1.5009 -0.2924
 8581TIP3    H247159   2.769   0.617  14.278 -0.4847  2.5552  2.1691
 8582TIP3   OH247160   1.377   1.833  17.190 -0.0283  0.0888  0.4204
 8582TIP3    H147161   1.351   1.862  17.102 -1.7530  0.4690  1.0045
 8582TIP3    H247162   1.455   1.884  17.210 -0.1601  0.7034 -0.5292
 8583TIP3   OH247163   0.855   2.367  13.245 -0.3859  0.0392 -0.2413
 8583TIP3    H147164   0.884   2.362  13.337  1.0104 -0.7802 -0.6859
 8583TIP3    H247165   0.827   2.278  13.225  1.6927 -0.4536 -1.2934
 8584TIP3   OH247166   3.697   1.639   1.654 -0.4841  0.4937  0.1660
 8584TIP3    H147167   3.621   1.635   1.713 -0.3702  2.7474  0.5596
 8584TIP3    H247168   3.750   1.562   1.678 -2.2038 -0.6602  0.4482
 8585TIP3   OH247169   1.666   5.737  14.006  0.0510  0.1810  0.4226
 8585TIP3    H147170   1.697   5.815  13.960 -1.3228  0.9240  0.7052
 8585TIP3    H247171   1.623   5.770  14.084 -1.1031 -0.8101  0.2417
 8586TIP3   OH247172   6.439   1.741  12.251  0.3325 -0.1901 -0.3574
 8586TIP3    H147173   6.531   1.718  12.258  0.5574  0.5633 -0.7121
 8586TIP3    H247174   6.424   1.754  12.158  1.1436  4.4743 -0.1119
 8587TIP3   OH247175   6.496   4.577  13.351 -0.4517  0.5557 -0.0099
 8587TIP3    H147176   6.459   4.549  13.267  0.7557  1.0391 -0.7309
 8587TIP3    H247177   6.474   4.506  13.411 -1.4930  0.2767 -0.6834
 8588TIP3   OH247178   3.625   2.964   4.521  0.0126 -0.2118 -0.0050
 8588TIP3    H147179   3.631   3.036   4.584  0.5410 -0.2043 -0.0615
 8588TIP3    H247180   3.567   2.900   4.563 -0.6630  0.3535 -0.0659
 8589TIP3   OH247181   1.021   1.000   0.431  0.0336  0.6569  0.0598
 8589TIP3    H147182   1.044   0.908   0.440  0.2613  0.7005 -0.0587
 8589TIP3    H247183   0.975   1.005   0.347  3.7016  1.3195 -2.0870
 8590TIP3   OH247184   4.088   3.961  11.366  0.3246 -0.0443 -0.2488
 8590TIP3    H147185   4.034   3.930  11.438  0.0586  3.2211  1.1194
 8590TIP3    H247186   4.176   3.968  11.402  0.7208 -0.7622 -1.0308
 8591TIP3   OH247187   4.449   0.804   1.200 -0.1467 -0.6177 -0.5187
 8591TIP3    H147188   4.420   0.888   1.165  0.6872  0.2122  0.7038
 8591TIP3    H247189   4.379   0.743   1.177 -0.0965  0.0689 -2.7123
 8592TIP3   OH247190   0.921   4.874   7.010  0.2713  0.3707 -0.1974
 8592TIP3    H147191   0.828   4.889   7.028  0.3508 -0.3072  0.9258
 8592TIP3    H247192   0.923   4.794   6.957  0.1737  0.9073 -1.0235
 8593TIP3   OH247193   3.478   0.960  14.939 -0.1805 -0.0733  0.3006
 8593TIP3    H147194   3.530   1.040  14.928 -1.1784  0.5075 -0.3583
 8593TIP3    H247195   3.438   0.946  14.853 -2.5811  0.5560  1.2326
 8594TIP3   OH247196   0.217   3.108  10.282 -0.0871  0.0883 -0.1035
 8594TIP3    H147197   0.226   3.155  10.366  0.0021  1.8063 -1.0151
 8594TIP3    H247198   0.307   3.092  10.254 -0.1045  0.2512 -0.2536
 8595TIP3   OH247199   4.747   4.399  14.876 -0.3361 -0.0963  0.2346
 8595TIP3    H147200   4.681   4.456  14.916 -3.1665 -1.3082 -2.2796
 8595TIP3    H247201   4.746   4.422  14.783  0.2719 -2.4852 -0.4396
 8596TIP3   OH247202   5.676   3.545  13.144 -0.4551 -0.1032  0.0871
 8596TIP3    H147203   5.745   3.540  13.077 -0.1757  0.6349  0.3141
 8596TIP3    H247204   5.610   3.602  13.107 -0.8708 -0.6635 -0.0515
 8597TIP3   OH247205   1.160   1.861   0.327 -0.1373 -0.2169 -0.2274
 8597TIP3    H147206   1.141   1.772   0.358 -0.1926 -0.6452 -1.4069
 8597TIP3    H247207   1.130   1.861   0.236  0.7034  0.7274 -0.5244
 8598TIP3   OH247208   6.634   1.806   4.291 -0.4929 -0.3162  0.3491
 8598TIP3    H147209   6.548   1.824   4.252 -0.3454 -0.5564 -0.1004
 8598TIP3    H247210   6.631   1.712   4.310 -0.7277 -0.1198  1.3412
 8599TIP3   OH247211   4.917   5.955   4.402 -0.1230  0.5879  0.1989
 8599TIP3    H147212   4.883   6.031   4.449  1.1409  1.1061  0.3198
 8599TIP3    H247213   4.926   5.985   4.311  0.0516  0.4775  0.1779
 8600TIP3   OH247214   1.884   1.519  14.356 -0.3301 -0.3260  0.4218
 8600TIP3    H147215   1.909   1.612  14.355  1.0238 -0.6570 -0.9544
 8600TIP3    H247216   1.789   1.519  14.360 -0.3240  1.1075  1.1200
 8601TIP3   OH247217   3.395   2.503   3.672 -0.4882 -0.1125  0.3335
 8601TIP3    H147218   3.370   2.590   3.641  1.1195  0.3960  0.3930
 8601TIP3    H247219   3.436   2.461   3.597 -0.6078 -0.5696  0.5144
 8602TIP3   OH247220   3.120   3.178   4.551 -0.3278 -0.2981  0.2070
 8602TIP3    H147221   3.034   3.144   4.575  0.4461 -0.8839  2.3461
 8602TIP3    H247222   3.119   3.270   4.579 -0.8620  0.2355 -1.4668
 8603TIP3   OH247223   1.354   6.550   2.304  0.0702  0.6373 -0.3667
 8603TIP3    H147224   1.299   6.589   2.373  0.8715  1.6863 -0.3002
 8603TIP3    H247225   1.296   6.544   2.228 -0.7183 -0.1900  0.2897
 8604TIP3   OH247226   3.608   6.425  16.499  0.2220  0.3280 -0.2131
 8604TIP3    H147227   3.659   6.431  16.579  0.9834  2.0707 -0.7950
 8604TIP3    H247228   3.670   6.444  16.429 -1.1628  2.5067 -0.9527
 8605TIP3   OH247229   5.982   5.547  13.871  0.3179 -0.2111  0.5540
 8605TIP3    H147230   5.981   5.455  13.844  1.4259 -0.2616  0.6571
 8605TIP3    H247231   5.932   5.593  13.803  1.4239 -0.6105 -0.5465
 8606TIP3   OH247232   6.223   0.003   2.799 -0.1598 -0.3731 -0.3185
 8606TIP3    H147233   6.247  -0.062   2.865 -2.7564  0.8005  1.9858
 8606TIP3    H247234   6.203  -0.048   2.721  1.4217 -1.9504  0.2257
 8607TIP3   OH247235   0.184   0.291  11.865 -0.5290  0.1914  0.0960
 8607TIP3    H147236   0.260   0.258  11.819  0.3085  1.2595  0.6679
 8607TIP3    H247237   0.211   0.294  11.957 -1.1342  0.8909  0.2631
 8608TIP3   OH247238   5.072   4.268   3.922  0.1671  0.7936  0.5532
 8608TIP3    H147239   5.038   4.259   4.012 -1.7858  0.1122 -0.2021
 8608TIP3    H247240   5.075   4.179   3.888  0.4925  1.0839 -0.2013
 8609TIP3   OH247241   0.998   3.619   1.910 -0.1643 -0.2881 -0.2362
 8609TIP3    H147242   0.924   3.679   1.899  0.6143  0.8377  0.3248
 8609TIP3    H247243   0.975   3.567   1.987 -0.0055  0.6953  0.5108
 8610TIP3   OH247244   4.819   3.958  17.070  0.1335 -0.1461 -1.0331
 8610TIP3    H147245   4.773   3.993  16.993  0.1067  1.1523 -0.4541
 8610TIP3    H247246   4.907   3.939  17.039 -0.4019 -1.4224 -1.8372
 8611TIP3   OH247247   2.389   1.816  16.610 -0.6619 -0.0526 -0.0202
 8611TIP3    H147248   2.397   1.896  16.558  1.0263 -0.5424 -0.5622
 8611TIP3    H247249   2.474   1.805  16.651 -1.1327 -1.1458  0.7118
 8612TIP3   OH247250   0.142   3.669  14.602  0.2414 -0.0803 -0.3625
 8612TIP3    H147251   0.114   3.703  14.687 -0.5991 -1.2094 -0.1665
 8612TIP3    H247252   0.220   3.616  14.621 -0.1591 -0.6318 -0.2270
 8613TIP3   OH247253   6.733   2.564  12.240 -0.0620 -0.2010 -0.5442
 8613TIP3    H147254   6.651   2.550  12.288  1.0919 -1.3736  1.1910
 8613TIP3    H247255   6.779   2.632  12.289  0.9502 -1.1149 -0.1855
 8614TIP3   OH247256   6.155   3.388   0.588  0.3014  0.1146 -0.6003
 8614TIP3    H147257   6.194   3.338   0.659 -0.7146  2.3528  1.7050
 8614TIP3    H247258   6.207   3.469   0.585 -2.8258  2.3970  1.3606
 8615TIP3   OH247259   3.906   4.477   0.330  0.3747  0.2314  0.5706
 8615TIP3    H147260   3.847   4.427   0.274  0.6800 -0.8015  1.1390
 8615TIP3    H247261   3.855   4.554   0.356 -0.3531 -0.1197  0.2214
 8616TIP3   OH247262   1.436   3.643   1.584  0.1633 -0.4822  0.1381
 8616TIP3    H147263   1.445   3.549   1.595  2.3191 -0.3243  0.1937
 8616TIP3    H247264   1.361   3.667   1.638 -0.1794 -2.0988  0.4142
 8617TIP3   OH247265   0.176   1.973   2.453  0.0314  0.2556 -0.3319
 8617TIP3    H147266   0.102   1.995   2.397 -0.0509  1.1172  0.0999
 8617TIP3    H247267   0.138   1.960   2.540  0.3554  0.4975 -0.1500
 8618TIP3   OH247268   6.229   2.802   5.934  0.0276 -0.3745 -0.0877
 8618TIP3    H147269   6.302   2.758   5.889  0.3211 -1.4040  1.3381
 8618TIP3    H247270   6.255   2.804   6.026 -0.6197  1.5721  0.0985
 8619TIP3   OH247271   3.561   5.433  10.619  0.1561 -0.0463  0.3885
 8619TIP3    H147272   3.655   5.425  10.634 -0.0829 -0.2180  2.0303
 8619TIP3    H247273   3.521   5.372  10.681 -1.0830  1.3256  1.0141
 8620TIP3   OH247274   0.986   2.816  17.089  0.0914  0.0514  0.0571
 8620TIP3    H147275   1.004   2.902  17.051  0.4602 -0.2665 -0.4937
 8620TIP3    H247276   0.891   2.813  17.098  0.1909  1.3034  1.9436
 8621TIP3   OH247277   4.156   4.434  13.022 -0.2588 -0.0248  0.5718
 8621TIP3    H147278   4.116   4.426  12.935  0.2760 -1.3822  0.4272
 8621TIP3    H247279   4.083   4.426  13.083 -0.3685 -1.4349  0.2866
 8622TIP3   OH247280   5.843   1.138   2.430 -0.1288  0.1874 -0.2592
 8622TIP3    H147281   5.877   1.049   2.441 -2.3719 -0.8595 -1.1771
 8622TIP3    H247282   5.785   1.133   2.355 -0.7775  2.3111  0.0257
 8623TIP3   OH247283   6.243   6.497  16.131  0.0185  0.1017  0.3174
 8623TIP3    H147284   6.216   6.426  16.072 -1.4735  0.0852  1.0047
 8623TIP3    H247285   6.169   6.510  16.190  0.7448  1.4214  0.9835
 8624TIP3   OH247286   5.493   1.172   5.540 -0.3029 -0.9809  0.1228
 8624TIP3    H147287   5.401   1.183   5.560 -0.3706 -1.1827 -0.0657
 8624TIP3    H247288   5.512   1.239   5.474 -0.1995 -0.6343  0.5076
 8625TIP3   OH247289   1.025   6.445   5.861  0.0843  0.6977 -0.2591
 8625TIP3    H147290   1.073   6.419   5.782  2.1677 -0.2562  1.2436
 8625TIP3    H247291   1.082   6.509   5.904  0.5974 -1.1851  2.0851
 8626TIP3   OH247292   2.659   6.468  15.852  0.0192 -0.0083  0.0359
 8626TIP3    H147293   2.653   6.504  15.941 -1.1678  1.5135 -0.6053
 8626TIP3    H247294   2.638   6.375  15.862  0.8279 -0.0736  1.4518
 8627TIP3   OH247295   0.123   1.646   2.876 -0.3625 -0.3118  0.0720
 8627TIP3    H147296   0.099   1.570   2.824  1.2868 -0.6392 -0.2699
 8627TIP3    H247297   0.040   1.689   2.896 -1.1457 -0.9903 -1.5687
 8628TIP3   OH247298   1.902   4.699  11.467 -0.2820 -0.3963  0.3845
 8628TIP3    H147299   1.866   4.763  11.528  1.5410  0.4692  0.6056
 8628TIP3    H247300   1.932   4.627  11.523 -0.6853 -0.6306  0.3002
 8629TIP3   OH247301   4.107   1.049  12.974 -0.1787 -0.0365  0.4480
 8629TIP3    H147302   4.129   1.141  12.962 -1.2858 -0.0895 -3.0243
 8629TIP3    H247303   4.014   1.049  12.997 -0.1847 -0.2919  0.4236
 8630TIP3   OH247304   0.330   0.122  10.654  0.4579 -0.3506 -0.1792
 8630TIP3    H147305   0.422   0.135  10.629  0.4590  0.0756  0.0324
 8630TIP3    H247306   0.281   0.176  10.593  0.1766 -2.1430 -1.6246
 8631TIP3   OH247307   5.105   4.541   4.001 -0.4312  0.3576 -0.4459
 8631TIP3    H147308   5.120   4.459   3.953  0.5403  1.3360 -1.9084
 8631TIP3    H247309   5.071   4.601   3.935 -1.7643  0.9783  0.7565
 8632TIP3   OH247310   5.340   5.346   4.934  0.0991  0.4705 -0.3693
 8632TIP3    H147311   5.285   5.355   4.856  0.9655  0.8583 -0.9606
 8632TIP3    H247312   5.286   5.376   5.006 -1.1084 -0.9334 -0.6466
 8633TIP3   OH247313   1.736   6.559   4.301  0.1185  0.1758  0.1034
 8633TIP3    H147314   1.805   6.514   4.349 -1.8835  0.6826  3.8802
 8633TIP3    H247315   1.666   6.493   4.293 -0.9591  1.1067  1.3158
 8634TIP3   OH247316   5.655   3.998   4.040 -0.6484  0.1032  0.1513
 8634TIP3    H147317   5.735   4.050   4.033 -0.1988 -0.2613  2.0422
 8634TIP3    H247318   5.593   4.055   4.085 -0.9562 -0.1402  0.0396
 8635TIP3   OH247319   1.283   5.341   3.482 -0.0502  0.5924  0.0330
 8635TIP3    H147320   1.303   5.305   3.396 -1.2060  1.7653 -0.7605
 8635TIP3    H247321   1.188   5.342   3.487 -0.0064  0.8193  1.2024
 8636TIP3   OH247322   1.755   5.007   4.616 -0.2573  0.0655 -0.2938
 8636TIP3    H147323   1.707   5.088   4.599 -0.5352  0.3206  1.5080
 8636TIP3    H247324   1.692   4.938   4.597 -1.3924  0.3934  1.9259
 8637TIP3   OH247325   6.154   3.656   2.560 -0.0443  0.5186  0.2229
 8637TIP3    H147326   6.085   3.690   2.617 -0.5159 -1.4757  0.9191
 8637TIP3    H247327   6.138   3.562   2.556  0.4402  0.4686 -2.6282
 8638TIP3   OH247328   2.797   2.831   5.240 -0.4761 -0.4150 -0.6642
 8638TIP3    H147329   2.875   2.777   5.227  0.0651  0.7088 -2.3407
 8638TIP3    H247330   2.830   2.915   5.272 -1.0578 -0.1641 -0.6965
 8639TIP3   OH247331   0.522   3.871  14.638  0.7621  0.7709  0.3873
 8639TIP3    H147332   0.468   3.846  14.713 -1.9215 -0.5681 -1.8136
 8639TIP3    H247333   0.518   3.967  14.636 -1.5761  0.7118  0.3400
 8640TIP3   OH247334   0.166   5.302  15.957  0.0492 -0.1161 -0.7674
 8640TIP3    H147335   0.150   5.389  15.995 -0.2097 -0.6704  0.4117
 8640TIP3    H247336   0.107   5.244  16.004  1.3245 -1.2000 -0.4552
 8641TIP3   OH247337   4.375   1.094  13.515  0.2640  0.3355  0.4977
 8641TIP3    H147338   4.403   1.051  13.435 -0.7457  0.5858  0.0030
 8641TIP3    H247339   4.379   1.026  13.582 -0.4275 -0.2966 -0.0875
 8642TIP3   OH247340   6.762   0.088   0.149 -0.2548  0.6006  0.2163
 8642TIP3    H147341   6.809   0.166   0.119 -1.9269  2.4022  1.9842
 8642TIP3    H247342   6.757   0.097   0.244 -0.9093 -1.4570  0.4380
 8643TIP3   OH247343   2.332   5.791  13.161  0.4371 -0.2354 -0.2089
 8643TIP3    H147344   2.256   5.845  13.140 -0.8463 -2.0367 -0.3914
 8643TIP3    H247345   2.397   5.854  13.193  0.6701  2.0712 -4.4399
 8644TIP3   OH247346   5.151   6.435  12.909  0.3243  0.1928  0.1614
 8644TIP3    H147347   5.197   6.488  12.844  2.1046 -1.1348  0.2808
 8644TIP3    H247348   5.202   6.445  12.989 -0.3177 -0.3103  0.6472
 8645TIP3   OH247349   1.284   4.235  12.122  0.0858 -0.1807 -0.5554
 8645TIP3    H147350   1.289   4.156  12.068  0.0635  0.1036 -0.9815
 8645TIP3    H247351   1.372   4.245  12.159  1.4267  1.8697 -3.8086
 8646TIP3   OH247352   5.592   4.764   0.077 -0.0806  0.0903  0.2226
 8646TIP3    H147353   5.527   4.834   0.080  1.7729  1.8832  1.3550
 8646TIP3    H247354   5.571   4.708   0.151 -0.5815  0.4151  0.3312
 8647TIP3   OH247355   2.959   0.466   3.306 -0.5530 -0.1575  0.3607
 8647TIP3    H147356   2.919   0.387   3.270  2.0219 -1.7051  0.6778
 8647TIP3    H247357   2.890   0.532   3.300 -2.1349 -1.8411 -1.9207
 8648TIP3   OH247358   6.061   1.615   2.018 -0.0360  0.9112  0.5262
 8648TIP3    H147359   6.034   1.690   2.071 -1.0872  0.7906  0.1782
 8648TIP3    H247360   5.996   1.547   2.038 -0.3661  0.8124 -0.7994
 8649TIP3   OH247361   4.902   5.536  16.850 -0.0723  0.5201  0.4023
 8649TIP3    H147362   4.837   5.468  16.871 -1.2510  1.0140 -1.4157
 8649TIP3    H247363   4.896   5.545  16.755  0.4774  2.7711  0.5480
 8650TIP3   OH247364   3.378   2.563   4.272  0.5628 -0.1891 -0.3132
 8650TIP3    H147365   3.450   2.513   4.235 -0.3852 -1.3180 -0.6969
 8650TIP3    H247366   3.325   2.588   4.197  0.1233 -0.0686  0.0292
 8651TIP3   OH247367   4.448   5.159  12.433 -0.4000  0.1403  0.3700
 8651TIP3    H147368   4.524   5.109  12.462  0.5381  0.7936 -0.8752
 8651TIP3    H247369   4.484   5.232  12.384 -1.8570 -1.1743 -2.9545
 8652TIP3   OH247370   0.143   2.137  15.747 -0.2837  0.2247  0.7173
 8652TIP3    H147371   0.110   2.081  15.817 -2.5217  2.4102  1.5432
 8652TIP3    H247372   0.066   2.156  15.693  1.3019 -1.1902 -2.3193
 8653TIP3   OH247373   1.935   4.580   2.218  0.1747  0.2864 -0.0924
 8653TIP3    H147374   1.938   4.509   2.282  1.7953  0.8305  0.4709
 8653TIP3    H247375   1.973   4.544   2.139  0.1168  0.2483 -0.1031
 8654TIP3   OH247376   0.814   5.681   0.737  0.7960 -0.4747 -0.3217
 8654TIP3    H147377   0.770   5.693   0.653 -1.2560  0.2997  0.7918
 8654TIP3    H247378   0.889   5.740   0.733 -1.4177  2.5865 -0.2297
 8655TIP3   OH247379   1.331   4.179   0.711  0.1647 -0.9264 -0.6030
 8655TIP3    H147380   1.352   4.197   0.619 -0.9463 -1.0420 -0.8892
 8655TIP3    H247381   1.304   4.087   0.713 -2.1276 -0.3163 -0.6200
 8656TIP3   OH247382   4.531   3.728   0.493 -0.0727  0.4377 -0.3481
 8656TIP3    H147383   4.557   3.783   0.419  0.1572 -2.0021 -2.2102
 8656TIP3    H247384   4.445   3.762   0.520  0.7431  2.6321 -0.3651
 8657TIP3   OH247385   3.952   2.335   4.892 -0.0178  0.7667 -0.2308
 8657TIP3    H147386   3.939   2.388   4.813 -1.9547  1.9197  0.7775
 8657TIP3    H247387   3.971   2.399   4.961  1.0315 -0.1687  0.3795
 8658TIP3   OH247388   2.507   2.356   2.077  0.4463 -0.3476  1.0883
 8658TIP3    H147389   2.508   2.325   1.987  0.2513  2.2222  0.1446
 8658TIP3    H247390   2.418   2.339   2.108 -0.5419  1.7596 -0.3869
 8659TIP3   OH247391   3.471   6.523  13.325  0.4397 -0.4627  0.0021
 8659TIP3    H147392   3.421   6.582  13.382  2.2590 -1.1070  2.4578
 8659TIP3    H247393   3.427   6.439  13.332 -0.0033 -0.2751 -0.4914
 8660TIP3   OH247394   1.538   2.634  16.283 -0.1763 -0.0846  0.2643
 8660TIP3    H147395   1.583   2.562  16.328 -0.5047  0.0417  0.8053
 8660TIP3    H247396   1.537   2.705  16.347 -1.2357 -0.1205  0.3057
 8661TIP3   OH247397   3.055   2.287   1.407  0.4113 -0.2655  0.8024
 8661TIP3    H147398   2.996   2.271   1.334 -0.3428  1.8058  0.8891
 8661TIP3    H247399   3.099   2.203   1.421  0.3322 -0.8365 -1.7785
 8662TIP3   OH247400   6.141   3.087  11.539  0.3200 -0.3788 -0.3828
 8662TIP3    H147401   6.073   3.039  11.586  0.4327 -0.7073 -0.5534
 8662TIP3    H247402   6.144   3.047  11.452  0.7128 -0.3555 -0.3837
 8663TIP3   OH247403   6.290   3.785  14.797 -0.0418  0.4807 -0.4350
 8663TIP3    H147404   6.236   3.721  14.844  0.7463 -0.3949 -0.6834
 8663TIP3    H247405   6.296   3.859  14.857  2.2860 -1.2240  1.6932
 8664TIP3   OH247406   5.119   3.400  15.746 -0.0436 -0.4928 -0.1799
 8664TIP3    H147407   5.076   3.468  15.694  1.0913 -0.3887 -1.0474
 8664TIP3    H247408   5.060   3.384  15.819  0.1498  2.2258  0.6695
 8665TIP3   OH247409   5.440   5.548  16.429 -0.2120  0.4941  0.1257
 8665TIP3    H147410   5.511   5.550  16.366 -0.7161 -0.8021 -0.5291
 8665TIP3    H247411   5.399   5.634  16.422 -0.6238  0.1984 -1.7788
 8666TIP3   OH247412   2.902   4.767  11.256 -0.5722  0.1098  0.3920
 8666TIP3    H147413   2.934   4.761  11.166 -1.4039  1.0609  0.0039
 8666TIP3    H247414   2.975   4.805  11.305  0.5719 -2.1723  0.5490
 8667TIP3   OH247415   4.753   6.672  15.542  0.0805 -0.3773  0.1297
 8667TIP3    H147416   4.766   6.579  15.522  0.3696 -0.2660 -0.2199
 8667TIP3    H247417   4.828   6.716  15.500 -0.7223  0.1465 -0.7973
 8668TIP3   OH247418   4.372   4.661  13.704 -0.5955 -0.0666 -0.1725
 8668TIP3    H147419   4.380   4.747  13.744  2.1596  0.2710 -1.2821
 8668TIP3    H247420   4.411   4.601  13.768  0.1029 -0.0939 -0.6249
 8669TIP3   OH247421   5.463   3.875   4.242 -0.2798 -0.1204 -0.2319
 8669TIP3    H147422   5.502   3.868   4.155 -0.8100  0.4113 -0.5188
 8669TIP3    H247423   5.472   3.968   4.265 -0.6089 -0.1580  0.0572
 8670TIP3   OH247424   4.518   4.386  15.088  0.0793 -0.0598 -0.4524
 8670TIP3    H147425   4.595   4.331  15.075 -0.6734 -1.1326 -0.5259
 8670TIP3    H247426   4.460   4.363  15.016 -0.6446  0.1309  0.0585
 8671TIP3   OH247427   5.433   6.170   0.533 -0.0222 -0.1712 -0.0973
 8671TIP3    H147428   5.350   6.139   0.569  0.5215 -0.7153  0.7290
 8671TIP3    H247429   5.495   6.160   0.605  1.0790 -1.1843 -1.1513
 8672TIP3   OH247430   5.393   5.162  13.363 -0.1467  0.6309 -0.0005
 8672TIP3    H147431   5.301   5.138  13.354 -0.5281  1.3423  1.6987
 8672TIP3    H247432   5.435   5.082  13.397 -0.4717  0.8063  0.8395
 8673TIP3   OH247433   3.909   1.937   4.753  0.8912  0.2938 -0.0086
 8673TIP3    H147434   3.837   1.892   4.796  1.0888  0.5368  0.5759
 8673TIP3    H247435   3.988   1.905   4.798  1.1334  0.2143 -0.4794
 8674TIP3   OH247436   6.660   0.629  11.256 -0.5395 -0.3515  0.0284
 8674TIP3    H147437   6.644   0.711  11.209 -0.9575 -0.3086  0.2401
 8674TIP3    H247438   6.723   0.582  11.201 -2.2063 -0.9978 -1.4298
 8675TIP3   OH247439   0.472   0.088   3.126 -0.1494 -0.2830 -0.8296
 8675TIP3    H147440   0.558   0.069   3.164 -1.1151  0.6019  2.0569
 8675TIP3    H247441   0.444   0.170   3.168 -1.6945  0.4308 -3.0177
 8676TIP3   OH247442   1.390   5.581  14.121  0.1298 -0.0870  0.6123
 8676TIP3    H147443   1.404   5.500  14.072 -0.6513  0.4941 -0.5888
 8676TIP3    H247444   1.359   5.551  14.207  1.8652 -1.1182  0.9247
 8677TIP3   OH247445   0.597   2.591   4.805 -0.0966 -0.8932  0.1260
 8677TIP3    H147446   0.665   2.556   4.862  0.0742 -0.2700  0.3131
 8677TIP3    H247447   0.564   2.668   4.851  0.4924  0.0105 -0.8901
 8678TIP3   OH247448   0.644   0.645   2.673  0.7678 -0.0550  0.1895
 8678TIP3    H147449   0.567   0.603   2.711  0.0669  1.7228  0.8177
 8678TIP3    H247450   0.648   0.611   2.583 -2.4402  1.8319 -0.8434
 8679TIP3   OH247451   4.968   4.434  11.681 -0.6119  0.2336  0.0722
 8679TIP3    H147452   4.913   4.361  11.656 -0.2639 -0.1707  0.4788
 8679TIP3    H247453   4.918   4.482  11.747  0.3850 -1.3781  2.0988
 8680TIP3   OH247454   3.235   0.942  12.452 -0.3107  0.1244  0.5401
 8680TIP3    H147455   3.206   0.903  12.370 -0.0979  0.2349  0.4141
 8680TIP3    H247456   3.253   1.033  12.431 -1.0638  0.3680  0.8939
 8681TIP3   OH247457   1.059   4.824   3.410 -0.2879 -0.3028 -0.4334
 8681TIP3    H147458   0.993   4.889   3.435 -1.9468 -1.3044 -1.9601
 8681TIP3    H247459   1.111   4.868   3.343  1.7385  1.0482  1.8566
 8682TIP3   OH247460   6.284   5.782  15.771  0.4036 -0.1594  0.3422
 8682TIP3    H147461   6.285   5.798  15.677  0.1732 -0.3982  0.2962
 8682TIP3    H247462   6.194   5.754  15.789  0.3450  0.2589  0.6969
 8683TIP3   OH247463   4.258   0.304  16.813  0.5577 -0.2446 -0.2567
 8683TIP3    H147464   4.240   0.269  16.900 -2.9875 -0.1132 -0.7931
 8683TIP3    H247465   4.248   0.398  16.822  0.0332 -0.2377 -0.7970
 8684TIP3   OH247466   4.005   1.659  11.758 -0.8525 -0.3048 -0.1519
 8684TIP3    H147467   4.075   1.665  11.693  1.6925 -0.4074  2.3648
 8684TIP3    H247468   3.994   1.749  11.790 -2.5136 -0.1472 -1.0799
 8685TIP3   OH247469   5.541   0.452  14.204  0.3869 -0.8456  0.6659
 8685TIP3    H147470   5.594   0.502  14.142 -0.4155  0.8316  1.2574
 8685TIP3    H247471   5.582   0.366  14.208 -0.1145 -1.4146 -2.9396
 8686TIP3   OH247472   4.256   3.842  15.268  0.0074  0.2110 -0.6452
 8686TIP3    H147473   4.231   3.799  15.186 -0.7186  1.3816 -1.0618
 8686TIP3    H247474   4.197   3.805  15.334  0.6724 -0.8220 -0.6091
 8687TIP3   OH247475   3.570   0.560   5.768  0.1200 -0.1156  0.7341
 8687TIP3    H147476   3.651   0.510   5.759  0.9254  1.0990  1.0513
 8687TIP3    H247477   3.586   0.617   5.844 -0.7091  0.7370  0.2762
 8688TIP3   OH247478   4.387   0.003   1.744  0.4585  0.2011  0.1908
 8688TIP3    H147479   4.400  -0.017   1.651 -0.1289  1.5992 -0.2183
 8688TIP3    H247480   4.457  -0.044   1.789  1.6537  0.6636 -1.1124
 8689TIP3   OH247481   2.036   1.532  16.429 -0.0717  0.0293  0.2651
 8689TIP3    H147482   2.073   1.621  16.423 -2.6556  1.2870  1.2527
 8689TIP3    H247483   2.049   1.508  16.521  0.5612 -0.6332  0.0103
 8690TIP3   OH247484   4.448   0.139   0.433 -0.2365 -0.1886  0.4483
 8690TIP3    H147485   4.376   0.076   0.427 -0.1437 -0.6891  3.2969
 8690TIP3    H247486   4.438   0.194   0.356 -1.7397 -2.2136 -0.9135
 8691TIP3   OH247487   4.249   1.247  11.062 -0.6368  0.0542  0.0393
 8691TIP3    H147488   4.290   1.223  10.979  0.8700  1.2698  0.3893
 8691TIP3    H247489   4.158   1.216  11.054 -0.8852  1.2215 -2.5572
 8692TIP3   OH247490   5.953   6.400  12.763 -0.2271  0.1754 -0.4407
 8692TIP3    H147491   6.048   6.388  12.773 -0.3850 -2.2851 -1.1794
 8692TIP3    H247492   5.915   6.350  12.835 -0.9720 -0.9243 -1.5650
 8693TIP3   OH247493   6.231   0.982  15.471 -0.3675 -0.2594 -0.1141
 8693TIP3    H147494   6.299   0.919  15.498  0.3024  0.6176  0.3143
 8693TIP3    H247495   6.272   1.032  15.400 -0.0813  1.0865  0.9563
 8694TIP3   OH247496   1.816   0.350  13.697  0.3880  0.1913  0.0047
 8694TIP3    H147497   1.887   0.305  13.743 -0.5763 -0.1194  1.2736
 8694TIP3    H247498   1.752   0.281  13.679  0.1556  0.5627 -0.6083
 8695TIP3   OH247499   4.263   5.106   2.531 -0.5079 -0.0389  0.1900
 8695TIP3    H147500   4.342   5.054   2.513 -0.1255  0.5865  0.0396
 8695TIP3    H247501   4.294   5.178   2.586 -0.9037  0.4473 -0.2242
 8696TIP3   OH247502   2.167   2.548   3.335 -0.3832  0.2673 -0.0254
 8696TIP3    H147503   2.090   2.517   3.288  0.1604  0.3570 -1.0014
 8696TIP3    H247504   2.174   2.490   3.410 -1.6257  0.5083  0.2986
 8697TIP3   OH247505   1.631   0.972   2.612 -0.1034  0.1873  0.4170
 8697TIP3    H147506   1.538   0.986   2.631 -0.3368 -1.3704  0.5892
 8697TIP3    H247507   1.640   0.877   2.607  1.2539  0.3496 -0.8227
 8698TIP3   OH247508   1.440   0.808  16.076  0.5869 -0.3459 -0.9070
 8698TIP3    H147509   1.477   0.823  16.163 -1.2299 -0.1766 -0.1147
 8698TIP3    H247510   1.403   0.720  16.080 -0.3161  0.0035 -1.1769
 8699TIP3   OH247511   2.641   0.339  15.290  0.1323  0.2083 -0.2094
 8699TIP3    H147512   2.603   0.403  15.230 -0.9157  1.0235  1.2520
 8699TIP3    H247513   2.590   0.260  15.276  0.6634  0.0294 -1.1968
 8700TIP3   OH247514   6.700   6.314   4.013 -0.2288  0.0634  0.2016
 8700TIP3    H147515   6.772   6.373   3.991 -0.2762  0.9936  2.3418
 8700TIP3    H247516   6.741   6.227   4.012  0.2171  0.2634 -1.4157
 8701TIP3   OH247517   5.150   5.668   4.621  0.0353 -0.1491  0.8496
 8701TIP3    H147518   5.204   5.708   4.690 -1.2072 -0.4442  2.0319
 8701TIP3    H247519   5.063   5.659   4.661 -0.2314 -2.1586 -0.0666
 8702TIP3   OH247520   4.279   1.450   3.702 -0.3462 -0.5941 -0.4702
 8702TIP3    H147521   4.288   1.516   3.633  2.2411  0.4915  0.8023
 8702TIP3    H247522   4.232   1.378   3.659 -1.9841  1.4319 -2.3210
 8703TIP3   OH247523   5.414   1.195   6.761  0.7335  0.1913 -0.2592
 8703TIP3    H147524   5.368   1.114   6.783  0.3659 -0.0089 -1.6653
 8703TIP3    H247525   5.504   1.168   6.745  0.1511 -0.4214 -3.0823
 8704TIP3   OH247526   1.835   5.518  14.919 -0.7620  0.0299  0.3001
 8704TIP3    H147527   1.746   5.531  14.885 -0.2827 -0.2643 -1.1168
 8704TIP3    H247528   1.880   5.468  14.851  0.5867  0.4563  0.8459
 8705TIP3   OH247529   1.866   0.665  13.730 -0.2186  0.5078 -0.4607
 8705TIP3    H147530   1.949   0.620  13.709  0.3732  1.5234 -0.3576
 8705TIP3    H247531   1.869   0.678  13.824 -0.9100 -0.2229 -0.3279
 8706TIP3   OH247532   2.647   0.440  13.887  0.4767  0.5036 -0.0618
 8706TIP3    H147533   2.716   0.424  13.952 -1.0605 -0.9158  1.3121
 8706TIP3    H247534   2.651   0.534  13.871  2.1914  0.5823  0.5745
 8707TIP3   OH247535   3.563   4.387  10.952  0.2125  0.0876  0.4729
 8707TIP3    H147536   3.633   4.359  11.011  2.4250  2.8926 -0.5887
 8707TIP3    H247537   3.575   4.334  10.874  0.7683  0.1331  0.5241
 8708TIP3   OH247538   1.608   5.289   2.222  0.1885 -0.4096 -0.1818
 8708TIP3    H147539   1.574   5.378   2.213  1.4514 -0.0085 -1.3363
 8708TIP3    H247540   1.659   5.291   2.303  0.2527 -0.0798 -0.2292
 8709TIP3   OH247541   4.249   0.317  13.244 -0.7244 -0.1938 -0.0951
 8709TIP3    H147542   4.257   0.396  13.191 -1.7819  0.7881  1.1417
 8709TIP3    H247543   4.171   0.332  13.299 -0.4847 -1.7477  0.7410
 8710TIP3   OH247544   5.004   5.573   1.940  0.2732  0.1788 -0.0316
 8710TIP3    H147545   5.003   5.499   2.000  1.4887 -1.5962 -2.0664
 8710TIP3    H247546   4.945   5.637   1.980  1.0831 -0.8254  3.0433
 8711TIP3   OH247547   3.286   0.275  17.066 -0.3096 -0.3080 -0.7675
 8711TIP3    H147548   3.213   0.251  17.009 -1.3945 -1.6433  1.0708
 8711TIP3    H247549   3.268   0.366  17.090 -2.6798 -1.2348  1.3794
 8712TIP3   OH247550   4.013   3.872  11.975  0.7160  0.3535  0.3129
 8712TIP3    H147551   4.021   3.870  12.070 -0.2173  4.6056  0.6965
 8712TIP3    H247552   3.922   3.848  11.958  0.2137  1.7826  0.7976
 8713TIP3   OH247553   4.075   4.344  11.395  0.4388  0.5013  0.3281
 8713TIP3    H147554   4.008   4.304  11.339 -0.2796 -0.4448  1.8056
 8713TIP3    H247555   4.131   4.392  11.334  0.3887 -1.4423 -1.3452
 8714TIP3   OH247556   4.541   2.589   0.040 -0.0326  0.2203  0.0262
 8714TIP3    H147557   4.636   2.586   0.029 -0.1191 -0.4738 -0.6515
 8714TIP3    H247558   4.521   2.518   0.101 -0.0232  1.0595  1.0340
 8715TIP3   OH247559   4.788   6.682  13.611 -0.5140 -0.1652  0.2145
 8715TIP3    H147560   4.801   6.635  13.528  1.4326  0.2969  0.2005
 8715TIP3    H247561   4.782   6.774  13.586  0.2239 -0.0096  0.5838
 8716TIP3   OH247562   4.734   4.351  13.278  0.4884  0.4156  0.0352
 8716TIP3    H147563   4.690   4.435  13.291 -0.8177 -0.1470 -0.5867
 8716TIP3    H247564   4.820   4.374  13.242  1.6303  1.6680  3.1522
 8717TIP3   OH247565   3.505   5.581  10.906  0.1964 -0.1501  0.6181
 8717TIP3    H147566   3.533   5.509  10.850 -0.1454 -0.7405  1.1834
 8717TIP3    H247567   3.414   5.596  10.882  0.0871 -0.3192  0.9227
 8718TIP3   OH247568   0.370   2.285  14.087 -0.0905  0.4406 -0.0488
 8718TIP3    H147569   0.376   2.379  14.071  0.2419  0.2367 -1.2983
 8718TIP3    H247570   0.429   2.246  14.021 -0.8495 -0.6743 -0.1006
 8719TIP3   OH247571   3.354   6.009  11.423 -0.3357  0.4505  0.1952
 8719TIP3    H147572   3.332   6.062  11.346 -0.7549  1.8901  1.2777
 8719TIP3    H247573   3.272   5.968  11.449 -0.6356  1.5639  1.0514
 8720TIP3   OH247574   3.594   5.323   3.517  0.0671 -0.0899 -0.5767
 8720TIP3    H147575   3.514   5.273   3.502 -0.5487  0.6369  0.2549
 8720TIP3    H247576   3.581   5.404   3.469  1.1797 -0.7796 -2.1469
 8721TIP3   OH247577   6.574   1.524   5.340  0.3129  0.0798 -0.8629
 8721TIP3    H147578   6.575   1.609   5.294  0.1189  0.6681  0.1908
 8721TIP3    H247579   6.655   1.481   5.313 -0.0930  0.1358 -2.2494
 8722TIP3   OH247580   6.775   4.158   2.435  0.1591  0.4562  0.5267
 8722TIP3    H147581   6.843   4.106   2.478 -1.4687  0.6720  3.6920
 8722TIP3    H247582   6.709   4.093   2.409 -0.1758  0.5537  1.0964
 8723TIP3   OH247583   5.267   3.519   2.793  0.3398 -0.1641  0.4664
 8723TIP3    H147584   5.356   3.518   2.757  0.1472  1.7382 -0.1825
 8723TIP3    H247585   5.214   3.472   2.730  0.3407  1.5254 -0.8538
 8724TIP3   OH247586   6.733   3.139  14.529  0.1189  0.2141  0.3517
 8724TIP3    H147587   6.798   3.150  14.460 -0.6159 -1.1865 -0.5971
 8724TIP3    H247588   6.670   3.210  14.515 -0.5908 -0.6602 -1.1056
 8725TIP3   OH247589   1.731   1.115   1.766 -0.2283  0.3025 -0.6384
 8725TIP3    H147590   1.694   1.151   1.686 -3.7630  1.9093  1.4598
 8725TIP3    H247591   1.679   1.036   1.783 -1.2825  1.3297  1.2292
 8726TIP3   OH247592   6.111   0.702   3.639  0.3137 -0.4497 -0.0605
 8726TIP3    H147593   6.105   0.710   3.544 -0.0072 -0.7967 -0.0754
 8726TIP3    H247594   6.202   0.722   3.659  0.0937  0.8760 -0.3002
 8727TIP3   OH247595   1.280   2.452  15.080  0.4975 -0.1660  0.2442
 8727TIP3    H147596   1.297   2.405  14.999  3.9543 -0.8223  1.2065
 8727TIP3    H247597   1.250   2.538  15.052  1.0281 -0.5880 -1.7256
 8728TIP3   OH247598   4.006   1.093   3.134 -0.6526 -0.4889 -0.0530
 8728TIP3    H147599   4.018   1.035   3.059 -0.4403 -0.2692 -0.1867
 8728TIP3    H247600   3.988   1.033   3.207  0.1376 -0.7544 -0.0752
 8729TIP3   OH247601   6.492   3.311   4.859 -0.5034 -0.2770  0.5925
 8729TIP3    H147602   6.534   3.283   4.778 -3.1657 -1.6031 -0.4390
 8729TIP3    H247603   6.473   3.404   4.845  3.2838  0.8859  1.7628
 8730TIP3   OH247604   5.660   1.119  14.221  0.2203  0.3902  0.1239
 8730TIP3    H147605   5.751   1.142  14.241  0.6063 -0.9131 -0.0151
 8730TIP3    H247606   5.653   1.027  14.247 -0.1718 -0.4629 -2.7402
 8731TIP3   OH247607   2.333   3.074  15.041  0.7989 -0.2285 -0.5026
 8731TIP3    H147608   2.331   2.991  14.993  1.3516 -0.3488 -0.3283
 8731TIP3    H247609   2.385   3.054  15.119  1.7608  0.5143 -0.9264
 8732TIP3   OH247610   2.399   3.319  13.696 -0.5503 -0.6760 -0.0981
 8732TIP3    H147611   2.447   3.376  13.756 -1.6370 -0.8538  0.9814
 8732TIP3    H247612   2.432   3.342  13.609  0.7463 -0.1059  0.5200
 8733TIP3   OH247613   3.856   6.738   3.995  0.6372 -0.4331  0.0658
 8733TIP3    H147614   3.786   6.790   3.956  0.1948 -0.2230  1.1115
 8733TIP3    H247615   3.812   6.678   4.055  1.4365  0.7513  1.9075
 8734TIP3   OH247616   6.335   1.268  16.622  0.0912  0.1753 -0.1681
 8734TIP3    H147617   6.278   1.319  16.563 -0.7336 -1.1821 -0.5837
 8734TIP3    H247618   6.295   1.181  16.625  2.3925 -0.9744 -0.8227
 8735TIP3   OH247619   3.408   4.386   3.110  0.4592  0.0630 -0.3416
 8735TIP3    H147620   3.367   4.322   3.168 -1.0047 -0.8059 -2.2284
 8735TIP3    H247621   3.432   4.336   3.032  1.0329  1.4460 -1.0843
 8736TIP3   OH247622   5.868   0.474  15.331 -0.0439  0.0519 -0.2395
 8736TIP3    H147623   5.784   0.430  15.320  0.5978 -1.1637 -0.4620
 8736TIP3    H247624   5.925   0.407  15.369  1.6819 -0.1505 -2.8978
 8737TIP3   OH247625   2.918   1.871   6.065 -0.4510 -0.1322 -0.0439
 8737TIP3    H147626   2.977   1.946   6.078 -0.1206 -0.4085  0.0833
 8737TIP3    H247627   2.895   1.844   6.154  0.4876 -0.9997 -0.0500
 8738TIP3   OH247628   0.023   0.848   5.114 -0.7301  0.9249  0.6910
 8738TIP3    H147629  -0.067   0.872   5.136 -0.4738  1.7201  0.9086
 8738TIP3    H247630   0.069   0.932   5.109  0.0338  0.5123  0.7482
 8739TIP3   OH247631   6.277   3.903   1.665  0.2492  0.7688  0.5928
 8739TIP3    H147632   6.239   3.816   1.669  2.3521 -0.5585 -2.9035
 8739TIP3    H247633   6.207   3.959   1.630 -1.0759  0.5384  2.7472
 8740TIP3   OH247634   1.636   1.516  11.956  0.1735  0.7219 -0.6975
 8740TIP3    H147635   1.564   1.573  11.930 -0.4019  0.1105 -0.4716
 8740TIP3    H247636   1.670   1.479  11.874 -1.8716 -1.4902 -0.6644
 8741TIP3   OH247637   0.121   5.422  13.890  0.0097  0.1434 -0.2355
 8741TIP3    H147638   0.116   5.411  13.985 -0.3852  1.4708 -0.0761
 8741TIP3    H247639   0.055   5.488  13.871  1.4609  1.4107 -1.1475
 8742TIP3   OH247640   3.802   5.057   1.796  0.6472 -0.4405 -0.0513
 8742TIP3    H147641   3.780   4.971   1.759 -1.9505  0.2885 -0.3957
 8742TIP3    H247642   3.841   5.105   1.722 -0.2227 -0.5216 -0.5782
 8743TIP3   OH247643   6.744   2.902   1.445 -0.4914  0.3290 -0.2374
 8743TIP3    H147644   6.792   2.883   1.525  1.2861 -0.1486 -1.3794
 8743TIP3    H247645   6.790   2.854   1.376 -2.3647  0.1775 -1.4781
 8744TIP3   OH247646   4.004   3.153  11.254  0.3719  0.6279 -0.0303
 8744TIP3    H147647   3.912   3.158  11.226 -0.3465  1.1667  2.2223
 8744TIP3    H247648   4.036   3.072  11.215 -1.6881 -0.6677  0.7955
 8745TIP3   OH247649   3.820   3.229   4.323  0.4416 -0.1965  0.2933
 8745TIP3    H147650   3.739   3.209   4.277 -0.0464  2.8164 -0.3696
 8745TIP3    H247651   3.880   3.257   4.254  0.6550  1.5878  1.1495
 8746TIP3   OH247652   5.282   4.324  13.481  0.1694  0.1375 -0.1324
 8746TIP3    H147653   5.262   4.278  13.400 -0.1636  2.5097 -1.4647
 8746TIP3    H247654   5.205   4.377  13.499  0.4354  0.0447  1.4993
 8747TIP3   OH247655   1.563   3.878  16.562 -0.4126  0.3411  0.5861
 8747TIP3    H147656   1.584   3.882  16.655  1.6004 -1.5185  0.3174
 8747TIP3    H247657   1.639   3.919  16.519 -0.7099  0.0226 -0.2569
 8748TIP3   OH247658   3.253   5.607   0.992 -0.0892 -0.7393 -0.4174
 8748TIP3    H147659   3.213   5.578   1.074 -0.8503  0.2669 -0.4112
 8748TIP3    H247660   3.211   5.553   0.924  0.4135 -1.4487 -0.1831
 8749TIP3   OH247661   6.083   5.292  13.807  0.3897  0.4021 -0.6800
 8749TIP3    H147662   6.161   5.321  13.758  0.9361 -0.1687 -0.1766
 8749TIP3    H247663   6.037   5.234  13.746  1.4998 -0.9588 -0.2850
 8750TIP3   OH247664   0.649   6.647  15.675 -0.0961 -0.7005 -0.6886
 8750TIP3    H147665   0.733   6.651  15.721  0.3726  1.5750 -1.5851
 8750TIP3    H247666   0.648   6.561  15.634  1.6728 -0.9019 -0.4078
 8751TIP3   OH247667   3.958   0.618   0.236 -0.5641 -0.5753  0.0749
 8751TIP3    H147668   3.877   0.662   0.263  1.1752  1.0943  3.0434
 8751TIP3    H247669   4.018   0.690   0.215  0.8534 -1.7082  0.0972
 8752TIP3   OH247670   2.537   1.102  14.834  0.2697  0.0003 -0.0322
 8752TIP3    H147671   2.555   1.178  14.889 -0.7004  0.8417 -0.8264
 8752TIP3    H247672   2.622   1.079  14.797  0.7191  0.1850  0.8491
 8753TIP3   OH247673   6.445   1.722  14.658  0.2409  1.3268  1.0300
 8753TIP3    H147674   6.423   1.752  14.570  0.1590 -2.8769 -0.6123
 8753TIP3    H247675   6.541   1.716  14.658  0.1783 -0.6209  0.3340
 8754TIP3   OH247676   2.318   4.397  11.485  0.1469  0.4297 -0.0512
 8754TIP3    H147677   2.297   4.320  11.432 -0.3242 -0.5461  1.4705
 8754TIP3    H247678   2.236   4.445  11.492 -0.1174 -0.1119  0.7882
 8755TIP3   OH247679   5.427   4.829   4.516  0.5188 -0.5782  0.5341
 8755TIP3    H147680   5.513   4.868   4.503 -0.5182  2.1300  1.2777
 8755TIP3    H247681   5.393   4.816   4.427  1.4681 -1.2144  0.2503
 8756TIP3   OH247682   2.483   1.157  16.632 -0.3056 -0.0658 -0.6320
 8756TIP3    H147683   2.482   1.087  16.696  0.8988  0.9784  0.5803
 8756TIP3    H247684   2.427   1.225  16.669  0.2314  0.4636 -0.7686
 8757TIP3   OH247685   1.122   1.829   0.072  0.8134 -0.1217 -0.2737
 8757TIP3    H147686   1.212   1.817   0.043  0.3168  1.5803 -2.8410
 8757TIP3    H247687   1.070   1.826  -0.008 -1.1596  1.2127  0.8719
 8758TIP3   OH247688   5.584   0.719  11.600 -0.2656  0.9419  0.0835
 8758TIP3    H147689   5.590   0.665  11.522 -3.3980  1.4426 -0.6171
 8758TIP3    H247690   5.663   0.697  11.651 -0.0406 -2.1848 -1.4120
 8759TIP3   OH247691   4.370   1.889  11.946 -0.0105 -0.0501 -0.6367
 8759TIP3    H147692   4.324   1.845  12.018 -1.5112 -0.4564 -1.8183
 8759TIP3    H247693   4.339   1.846  11.867  0.6187  1.2742 -1.6475
 8760TIP3   OH247694   0.511   6.151   3.325  0.2424  0.2444 -0.1944
 8760TIP3    H147695   0.550   6.111   3.403  1.1272  0.3807 -0.5565
 8760TIP3    H247696   0.576   6.137   3.256  0.4207  1.9736 -0.4171
 8761TIP3   OH247697   4.066   1.842   0.554 -0.1508 -0.3838 -0.1894
 8761TIP3    H147698   4.150   1.805   0.527  0.4369  0.9207 -0.2432
 8761TIP3    H247699   4.008   1.830   0.479  0.4294  0.0243 -0.7139
 8762TIP3   OH247700   2.142   0.779   2.845  0.2705  0.0304  0.2969
 8762TIP3    H147701   2.058   0.823   2.860  0.4490  0.1219  1.0886
 8762TIP3    H247702   2.193   0.799   2.923  0.2768 -1.7878  0.8008
 8763TIP3   OH247703   0.366   3.489   2.221  0.3012 -0.6454  0.1416
 8763TIP3    H147704   0.315   3.499   2.140  0.2628  1.5625  0.3783
 8763TIP3    H247705   0.452   3.458   2.192 -0.2079 -1.4519 -0.5565
 8764TIP3   OH247706   6.241   0.421  13.429  0.3105 -0.2194  0.3555
 8764TIP3    H147707   6.192   0.452  13.505  0.3725 -0.2128  0.3933
 8764TIP3    H247708   6.276   0.501  13.389 -0.1003 -0.1844  0.0583
 8765TIP3   OH247709   3.788   1.316  16.442 -0.1551  0.0075 -0.7255
 8765TIP3    H147710   3.879   1.345  16.449 -0.5903  1.3740 -0.3669
 8765TIP3    H247711   3.790   1.223  16.463  1.0617  0.2002  0.1057
 8766TIP3   OH247712   2.454   0.584  15.305  0.0340 -0.0357  0.5977
 8766TIP3    H147713   2.415   0.541  15.381  2.3699 -0.0646  1.8553
 8766TIP3    H247714   2.478   0.671  15.336 -3.1004  1.7604 -1.4526
 8767TIP3   OH247715   4.612   6.566  11.084  0.6798 -0.3731  0.1406
 8767TIP3    H147716   4.540   6.531  11.136  0.1991 -1.3301 -1.1262
 8767TIP3    H247717   4.574   6.641  11.038  1.1276  0.5269  1.1693
 8768TIP3   OH247718   2.248   0.368   4.433  0.1773 -0.5293  0.3435
 8768TIP3    H147719   2.291   0.322   4.505  0.7669  0.2354  0.4947
 8768TIP3    H247720   2.220   0.299   4.373  0.1407 -1.1409  1.0514
 8769TIP3   OH247721   3.302   1.724  11.721  0.0757  0.3805 -0.0362
 8769TIP3    H147722   3.254   1.795  11.680 -1.2194 -1.1731 -1.3410
 8769TIP3    H247723   3.348   1.680  11.648 -0.8296 -1.3457  0.3689
 8770TIP3   OH247724   2.340   4.540  13.368 -0.6115 -0.0225  0.2821
 8770TIP3    H147725   2.252   4.578  13.357 -1.8145 -2.3144  1.3327
 8770TIP3    H247726   2.386   4.565  13.288 -2.4126  0.7633 -0.5816
 8771TIP3   OH247727   1.940   2.922   0.440 -0.2973 -0.2564 -0.2992
 8771TIP3    H147728   1.932   2.905   0.346 -0.9484 -0.0516 -0.2920
 8771TIP3    H247729   1.990   3.003   0.446 -0.0032 -0.4257 -0.4584
 8772TIP3   OH247730   2.511   6.248  14.326 -0.2306 -0.3053  0.0012
 8772TIP3    H147731   2.582   6.259  14.263  1.0115 -0.5040  1.2873
 8772TIP3    H247732   2.464   6.331  14.325  0.3675  0.0393 -0.4821
 8773TIP3   OH247733   2.428   0.010   1.833  0.0622  0.0909 -0.2158
 8773TIP3    H147734   2.473   0.026   1.750 -0.3655  0.5610 -0.3680
 8773TIP3    H247735   2.336   0.029   1.814  0.0493  0.8294  0.5204
 8774TIP3   OH247736   1.706   3.931  13.610 -0.2558  0.0303  0.0392
 8774TIP3    H147737   1.711   3.966  13.521 -0.4959 -0.1656 -0.0544
 8774TIP3    H247738   1.797   3.918  13.637 -0.1588  1.0085  0.1918
 8775TIP3   OH247739   3.940   4.737  11.461  0.2536 -0.0678  0.0101
 8775TIP3    H147740   3.901   4.802  11.520  1.9966 -0.2695  1.4760
 8775TIP3    H247741   3.882   4.736  11.385 -2.0901  0.2579  1.6797
 8776TIP3   OH247742   1.787   1.750  13.599 -1.0094  0.1909 -0.7417
 8776TIP3    H147743   1.775   1.840  13.570  0.8911  1.3523  1.6694
 8776TIP3    H247744   1.709   1.731  13.652  0.5313  2.2753  2.6361
 8777TIP3   OH247745   2.345   4.806   5.438 -0.2336  0.0794  0.5206
 8777TIP3    H147746   2.379   4.847   5.359 -2.2318 -0.1934 -0.5568
 8777TIP3    H247747   2.360   4.870   5.507 -0.3540  1.2443 -0.4946
 8778TIP3   OH247748   1.044   2.749  11.440  0.3496 -0.6319 -0.4819
 8778TIP3    H147749   0.956   2.763  11.474  1.1690  1.1895  1.1284
 8778TIP3    H247750   1.032   2.734  11.346 -1.6630 -0.4639 -0.2996
 8779TIP3   OH247751   3.344   4.596   2.908 -0.0076  0.0356  0.6502
 8779TIP3    H147752   3.406   4.568   2.976 -0.0587 -1.9606 -0.0547
 8779TIP3    H247753   3.398   4.642   2.844  0.9138 -2.0016 -0.1456
 8780TIP3   OH247754   1.313   0.160   2.411 -0.1128 -0.0088  0.1587
 8780TIP3    H147755   1.356   0.208   2.481  1.3695 -1.4477  0.3017
 8780TIP3    H247756   1.383   0.139   2.349 -0.8962 -1.0309 -0.4229
 8781TIP3   OH247757   1.350   4.102   1.336  0.4630  0.0262  0.1505
 8781TIP3    H147758   1.315   4.051   1.263  0.5447  1.5366 -1.0016
 8781TIP3    H247759   1.317   4.059   1.414 -0.9601 -0.7179 -0.8251
 8782TIP3   OH247760   6.134   4.120   6.226  0.1879  0.2466 -0.7571
 8782TIP3    H147761   6.222   4.090   6.203 -0.1657 -0.9962 -0.5175
 8782TIP3    H247762   6.149   4.188   6.292  0.9353 -0.8355  0.2322
 8783TIP3   OH247763   4.993   4.023  11.148 -0.4311 -0.3115 -0.0832
 8783TIP3    H147764   4.991   3.952  11.084 -1.8861 -0.2746 -0.0942
 8783TIP3    H247765   5.082   4.059  11.140 -1.3039  1.5309 -4.1447
 8784TIP3   OH247766   1.543   0.715   5.198 -0.0653  0.2842 -0.2122
 8784TIP3    H147767   1.505   0.632   5.226 -0.7874  0.6425 -0.1259
 8784TIP3    H247768   1.486   0.746   5.129  0.1207  0.7847 -0.1422
 8785TIP3   OH247769   0.210   1.677  11.797  0.4577  0.6871  1.1275
 8785TIP3    H147770   0.139   1.616  11.776  1.6252 -0.3058 -0.1183
 8785TIP3    H247771   0.166   1.750  11.841 -1.5860  0.8740 -1.0250
 8786TIP3   OH247772   5.018   1.229  16.965  0.0023  0.2108 -0.4774
 8786TIP3    H147773   5.018   1.312  16.917 -3.0974  0.3290 -0.4475
 8786TIP3    H247774   4.940   1.183  16.934  0.7737 -2.0512  0.6745
 8787TIP3   OH247775   2.291   2.286   4.163 -0.2785 -0.5350 -0.1155
 8787TIP3    H147776   2.304   2.379   4.147 -0.9588 -0.6336 -1.4461
 8787TIP3    H247777   2.276   2.249   4.076  0.4565 -1.9723  0.3379
 8788TIP3   OH247778   2.158   1.840  11.260 -0.7689  0.0204 -0.1699
 8788TIP3    H147779   2.208   1.918  11.239 -0.2378 -0.2369  0.1061
 8788TIP3    H247780   2.217   1.767  11.239  0.0060 -0.2630  2.4984
 8789TIP3   OH247781   1.063   6.376  14.085  0.2316  0.0785 -0.1938
 8789TIP3    H147782   1.133   6.418  14.134  0.5172  1.4877 -1.7312
 8789TIP3    H247783   1.105   6.340  14.007 -0.6432  0.4844 -0.8804
 8790TIP3   OH247784   2.819   6.039  12.410 -0.2948 -0.0320  0.5983
 8790TIP3    H147785   2.861   5.981  12.346 -1.9849 -2.0119  1.1687
 8790TIP3    H247786   2.851   6.127  12.388 -0.1240 -0.7432 -2.4018
 8791TIP3   OH247787   3.596   3.489   6.521 -0.6291  0.1310 -0.8087
 8791TIP3    H147788   3.546   3.455   6.596  3.2693 -2.8981  0.7520
 8791TIP3    H247789   3.624   3.576   6.548 -0.3093 -0.4377  0.7968
 8792TIP3   OH247790   1.252   4.769  13.099 -0.1281  0.6740  0.0124
 8792TIP3    H147791   1.210   4.744  13.181  1.8778 -0.3439  0.8093
 8792TIP3    H247792   1.345   4.748  13.113  0.1850 -0.0788 -2.7112
 8793TIP3   OH247793   4.241   3.453  14.821 -0.1897 -0.5824  0.5958
 8793TIP3    H147794   4.245   3.358  14.815  0.6724 -0.6102  1.4205
 8793TIP3    H247795   4.304   3.476  14.889 -0.5769  0.5631  0.5971
 8794TIP3   OH247796   0.122   3.113   1.939 -0.5568  0.1384 -0.3335
 8794TIP3    H147797   0.123   3.164   1.858  1.8712 -2.6136 -2.2713
 8794TIP3    H247798   0.199   3.142   1.987  0.2613 -0.8916 -0.9701
 8795TIP3   OH247799   6.098   3.173   2.185  0.0631 -0.7994 -0.2331
 8795TIP3    H147800   6.166   3.195   2.249 -0.0285 -1.1331 -0.0179
 8795TIP3    H247801   6.126   3.216   2.104 -0.3484  0.5020  0.2863
 8796TIP3   OH247802   3.133   2.320   1.018  0.7599 -0.2649 -0.3471
 8796TIP3    H147803   3.044   2.321   0.982  0.9674 -2.6384 -1.0773
 8796TIP3    H247804   3.138   2.400   1.071 -0.7057  1.6081 -2.8190
 8797TIP3   OH247805   4.328   3.701  13.948 -0.2349  0.2010  0.1487
 8797TIP3    H147806   4.393   3.756  13.903 -0.1866 -0.7704 -1.0369
 8797TIP3    H247807   4.328   3.620  13.898 -0.0077 -1.0581  2.0979
 8798TIP3   OH247808   1.950   3.596   3.571  0.9363 -0.3590 -0.2251
 8798TIP3    H147809   2.006   3.611   3.495 -2.9452  0.1616 -3.3104
 8798TIP3    H247810   1.915   3.508   3.557  0.4259 -0.3969  1.1786
 8799TIP3   OH247811   6.313   3.191  14.728 -0.4763  0.0249  0.5787
 8799TIP3    H147812   6.254   3.150  14.791 -0.2258  1.1077  1.5374
 8799TIP3    H247813   6.324   3.124  14.660 -1.9454 -0.6015  0.9062
 8800TIP3   OH247814   4.037   6.458   4.463  0.4082  0.4035  0.1870
 8800TIP3    H147815   4.024   6.513   4.539 -0.5345  1.6465 -0.8421
 8800TIP3    H247816   4.130   6.468   4.442  0.5215  0.5865  0.7641
 8801TIP3   OH247817   3.963   4.687  14.483  0.2632  0.2551  0.5780
 8801TIP3    H147818   3.982   4.609  14.431  0.3466 -0.4685  1.6805
 8801TIP3    H247819   3.943   4.654  14.571 -0.1935  1.4346  0.9399
 8802TIP3   OH247820   1.093   4.556   2.326  0.3710 -0.9839 -0.0535
 8802TIP3    H147821   1.104   4.613   2.250  0.7397 -3.5456 -2.0780
 8802TIP3    H247822   1.095   4.615   2.401  1.4662  1.5383 -1.9164
 8803TIP3   OH247823   3.264   6.005   3.278 -0.0743 -0.2271  0.1804
 8803TIP3    H147824   3.317   6.042   3.208  0.9075 -2.0573 -0.1037
 8803TIP3    H247825   3.258   6.075   3.343  2.6724  0.0868  0.2113
 8804TIP3   OH247826   3.439   5.815  13.663  0.0524  0.2015  0.0427
 8804TIP3    H147827   3.467   5.869  13.589  1.4822 -0.9855 -0.3189
 8804TIP3    H247828   3.380   5.750  13.624 -0.9127  0.8731  0.3284
 8805TIP3   OH247829   5.362   0.489  14.942  0.0838 -0.0373 -0.3600
 8805TIP3    H147830   5.300   0.490  14.869  0.3173 -1.4635 -0.6202
 8805TIP3    H247831   5.340   0.410  14.991 -1.3379  1.8974  2.3119
 8806TIP3   OH247832   4.041   2.040   2.224 -0.2300 -0.2370  0.1392
 8806TIP3    H147833   4.023   2.128   2.256  0.0185 -0.1366  0.0108
 8806TIP3    H247834   4.119   2.012   2.273  1.7832  0.9466 -2.1982
 8807TIP3   OH247835   4.916   5.421  11.954  0.6628 -0.5418 -0.1711
 8807TIP3    H147836   4.997   5.417  11.903 -0.3273 -1.0492 -1.7855
 8807TIP3    H247837   4.855   5.467  11.897  0.0981  0.8660  1.4754
 8808TIP3   OH247838   5.261   6.230   6.000 -0.1322 -0.2726  1.1728
 8808TIP3    H147839   5.239   6.246   5.908  1.3131 -1.4272  0.5888
 8808TIP3    H247840   5.226   6.143   6.019  1.0710 -0.7725  1.1748
 8809TIP3   OH247841   6.037   4.671   3.976 -0.1447  0.8409  0.5625
 8809TIP3    H147842   6.106   4.734   3.999  0.4359 -0.0344  1.2595
 8809TIP3    H247843   6.043   4.664   3.881 -0.3931  2.0378  0.4484
 8810TIP3   OH247844   1.260   0.197  15.189  0.4335  0.1075  0.2066
 8810TIP3    H147845   1.328   0.240  15.137  2.3460  1.9751  3.8630
 8810TIP3    H247846   1.300   0.183  15.275 -2.8921 -1.4779  1.6861
 8811TIP3   OH247847   4.686   0.772  14.452 -0.0364  0.3324  0.3994
 8811TIP3    H147848   4.758   0.770  14.515  0.5677 -1.4236 -0.2940
 8811TIP3    H247849   4.693   0.689  14.405 -1.2451  1.0507 -1.1279
 8812TIP3   OH247850   0.918   1.701   4.499 -0.1179 -0.0246  0.3201
 8812TIP3    H147851   0.983   1.643   4.458 -0.4348 -0.7070  0.7513
 8812TIP3    H247852   0.907   1.665   4.588 -0.2293  0.7812  0.6398
 8813TIP3   OH247853   1.540   0.311  13.639  0.0138  0.4499  0.4204
 8813TIP3    H147854   1.454   0.317  13.682  0.2691 -0.2531  1.0468
 8813TIP3    H247855   1.543   0.388  13.581 -0.7226  0.8991  0.9562
 8814TIP3   OH247856   6.565   5.478  11.357 -0.0317  0.4308  0.4801
 8814TIP3    H147857   6.568   5.496  11.263  1.5104 -0.7532  0.2647
 8814TIP3    H247858   6.549   5.384  11.363  2.1545  0.0664  1.3274
 8815TIP3   OH247859   1.362   0.623   0.298  0.3722 -0.3514  0.4609
 8815TIP3    H147860   1.417   0.611   0.376  0.8881 -0.3343  0.1035
 8815TIP3    H247861   1.278   0.656   0.332 -0.2130 -2.4726  1.2535
 8816TIP3   OH247862   0.247   6.798   3.817 -0.1380  0.1720 -0.4244
 8816TIP3    H147863   0.262   6.892   3.823  1.1531 -0.0859  2.1145
 8816TIP3    H247864   0.215   6.774   3.904 -1.2570 -1.6310 -1.2770
 8817TIP3   OH247865   2.372   0.301  14.418 -0.3338 -0.1737 -0.0346
 8817TIP3    H147866   2.415   0.368  14.471 -0.5683 -0.5786  0.6786
 8817TIP3    H247867   2.415   0.307  14.332 -0.0953  0.6292  0.1325
 8818TIP3   OH247868   4.025   1.704   3.794 -0.2871  0.5808  0.0381
 8818TIP3    H147869   4.081   1.715   3.717  0.1763  1.3423  0.4671
 8818TIP3    H247870   4.048   1.778   3.851 -0.8968  0.2452  0.7379
 8819TIP3   OH247871   2.389   4.833  15.851 -0.2971 -0.1628  0.7193
 8819TIP3    H147872   2.380   4.928  15.848  0.8081 -0.0677 -0.5797
 8819TIP3    H247873   2.436   4.816  15.932 -0.4442  0.4167  0.9288
 8820TIP3   OH247874   4.818   1.350  12.047 -0.4143  0.0033 -0.2552
 8820TIP3    H147875   4.733   1.371  12.086 -0.4759 -1.6604  0.5770
 8820TIP3    H247876   4.877   1.344  12.122  0.5506  1.5174 -0.8591
 8821TIP3   OH247877   1.974   3.484  15.428 -0.2705  0.3411 -0.0865
 8821TIP3    H147878   1.909   3.430  15.472  0.0452  1.0092  1.2646
 8821TIP3    H247879   2.032   3.514  15.499  1.4280 -0.1127 -1.2048
 8822TIP3   OH247880   0.055   3.397   6.038 -0.0346  0.4649 -0.2901
 8822TIP3    H147881   0.010   3.414   6.121  0.8636  2.0872 -0.0809
 8822TIP3    H247882   0.137   3.355   6.064 -0.6683 -0.9991 -0.5506
 8823TIP3   OH247883   1.328   2.536   2.717 -0.0620 -0.1681  0.2336
 8823TIP3    H147884   1.318   2.519   2.623  0.4955  1.3072 -0.1176
 8823TIP3    H247885   1.259   2.485   2.758 -1.2976  0.3582 -1.1185
 8824TIP3   OH247886   0.127   6.426   3.060  0.6241  0.5379 -0.2988
 8824TIP3    H147887   0.158   6.362   3.124  0.9668  0.3189 -0.6820
 8824TIP3    H247888   0.088   6.496   3.113  1.0014  0.4075  0.1514
 8825TIP3   OH247889   6.062   2.618   2.993 -0.2018 -0.3394  0.6722
 8825TIP3    H147890   6.028   2.531   2.974 -1.7982  0.6444 -1.2606
 8825TIP3    H247891   6.000   2.656   3.055 -0.2627 -0.0915  0.4626
 8826TIP3   OH247892   2.479   2.784  15.698  0.1014  0.5616 -0.4183
 8826TIP3    H147893   2.469   2.866  15.651 -1.7362  0.5274 -0.1864
 8826TIP3    H247894   2.530   2.806  15.776 -0.1337  1.4219 -0.5017
 8827TIP3   OH247895   2.846   1.356   3.460  0.0873 -0.8906  0.6905
 8827TIP3    H147896   2.780   1.411   3.417  1.7615  1.3899  0.8272
 8827TIP3    H247897   2.919   1.354   3.398  1.0256 -0.8187  1.7644
 8828TIP3   OH247898   4.748   3.949   0.907  0.2894 -0.0190 -0.3102
 8828TIP3    H147899   4.820   4.008   0.886 -0.2422  0.4547 -0.8480
 8828TIP3    H247900   4.787   3.882   0.962  0.7909  1.1748  0.8549
 8829TIP3   OH247901   1.182   5.937   6.440  0.2506 -0.5980  0.4947
 8829TIP3    H147902   1.214   5.865   6.386 -1.1888  0.5584 -2.0823
 8829TIP3    H247903   1.222   6.015   6.402 -1.3236  0.3380  0.6739
 8830TIP3   OH247904   3.035   2.477   5.907 -1.1337  0.2084  0.0659
 8830TIP3    H147905   2.964   2.503   5.966 -1.9005 -0.9052 -0.3334
 8830TIP3    H247906   3.010   2.389   5.877 -0.9034  0.8428 -2.1230
 8831TIP3   OH247907   5.716   5.194   3.242 -0.4132 -0.2698  0.2512
 8831TIP3    H147908   5.647   5.172   3.179  0.5952 -1.3101 -0.5424
 8831TIP3    H247909   5.781   5.125   3.231 -0.8284 -1.3372  3.4767
 8832TIP3   OH247910   3.676   4.946   5.804  0.2228 -0.3404  0.2216
 8832TIP3    H147911   3.667   5.037   5.833  0.6784 -0.4054  0.5658
 8832TIP3    H247912   3.709   4.953   5.714  0.1279 -0.1630  0.1998
 8833TIP3   OH247913   6.611   3.787  14.410 -0.0766 -0.0436  0.0884
 8833TIP3    H147914   6.695   3.808  14.451  0.2253 -0.4728 -0.3119
 8833TIP3    H247915   6.575   3.872  14.384 -0.0639  0.1937  0.8335
 8834TIP3   OH247916   0.257   5.380   2.349  0.3934  0.3377 -0.3493
 8834TIP3    H147917   0.287   5.313   2.288  0.2070  0.7504 -0.8971
 8834TIP3    H247918   0.331   5.392   2.409  1.1465  0.9935 -1.3917
 8835TIP3   OH247919   1.089   4.969  12.195  0.2378  0.0808 -0.2303
 8835TIP3    H147920   1.145   5.026  12.248  0.7191 -1.1354  0.6180
 8835TIP3    H247921   1.098   4.883  12.235  1.8576 -1.2829 -3.2174
 8836TIP3   OH247922   3.826   1.745   0.436  0.6226  0.2506  0.2642
 8836TIP3    H147923   3.751   1.686   0.435  0.2401  0.7323  0.1044
 8836TIP3    H247924   3.830   1.779   0.346  3.0424 -2.2596 -0.7209
 8837TIP3   OH247925   5.096   4.821  12.578  0.3419 -0.4578 -0.3310
 8837TIP3    H147926   5.096   4.842  12.484 -2.0700  1.5880  0.0250
 8837TIP3    H247927   5.120   4.728  12.581 -0.3216 -0.8245 -3.0440
 8838TIP3   OH247928   2.576   6.041  15.035  0.0165 -0.0879  0.9041
 8838TIP3    H147929   2.622   5.970  15.080  0.6351 -1.5247 -1.7750
 8838TIP3    H247930   2.483   6.027  15.056  0.0167 -2.3590 -0.3445
 8839TIP3   OH247931   1.945   6.040   4.102  0.1472 -0.2147  0.1349
 8839TIP3    H147932   1.902   6.122   4.079 -1.7169 -0.8083  1.3032
 8839TIP3    H247933   1.883   5.972   4.077  0.8751 -1.1799  0.8546
 8840TIP3   OH247934   2.722   4.740   4.978 -0.2851 -0.2605  0.3219
 8840TIP3    H147935   2.810   4.721   4.947  1.1013  5.1949 -0.1399
 8840TIP3    H247936   2.667   4.733   4.900  0.4605 -0.2014 -0.2182
 8841TIP3   OH247937   5.815   3.516   2.039  0.1968 -0.0070  0.1452
 8841TIP3    H147938   5.866   3.485   2.113 -0.5297 -0.9997  0.2546
 8841TIP3    H247939   5.812   3.441   1.979  0.1283  0.5281 -0.5273
 8842TIP3   OH247940   0.555   2.377   3.406  0.8645 -0.2358 -0.7410
 8842TIP3    H147941   0.523   2.457   3.364 -0.7191  0.0139  0.8318
 8842TIP3    H247942   0.540   2.308   3.340  0.3125  0.4484 -1.3491
 8843TIP3   OH247943   1.356   5.031  13.143 -0.2386  0.9955 -0.9231
 8843TIP3    H147944   1.322   4.947  13.110  0.8930  0.7540 -1.5098
 8843TIP3    H247945   1.339   5.028  13.237  4.5562 -2.3757  0.1972
 8844TIP3   OH247946   4.132   6.068   6.129  0.2900 -0.2119  0.0147
 8844TIP3    H147947   4.114   6.144   6.073 -0.0702  0.5806  1.1798
 8844TIP3    H247948   4.117   6.099   6.218  1.8252 -1.1800  0.6470
 8845TIP3   OH247949   0.061   4.617  13.637 -0.6314 -0.4781 -0.0079
 8845TIP3    H147950   0.009   4.587  13.563  0.3259  0.5619 -1.1546
 8845TIP3    H247951   0.072   4.711  13.622  1.8313 -0.7077 -0.0313
 8846TIP3   OH247952   3.796   6.004  12.092 -0.0105 -0.1320 -0.5252
 8846TIP3    H147953   3.736   5.930  12.103 -0.3360  0.0578 -0.9954
 8846TIP3    H247954   3.799   6.019  11.998  0.9848 -0.3052 -0.5293
 8847TIP3   OH247955   2.202   4.870   4.225  0.1241 -0.3754  0.3325
 8847TIP3    H147956   2.108   4.879   4.238  0.2111 -0.5194  1.1163
 8847TIP3    H247957   2.238   4.868   4.314  0.8449 -0.5209  0.0404
 8848TIP3   OH247958   3.282   4.487   5.703 -0.4102 -0.1141 -0.0917
 8848TIP3    H147959   3.191   4.517   5.709 -0.2890  0.5283 -1.2012
 8848TIP3    H247960   3.275   4.397   5.672 -0.6829 -0.2704  0.4118
 8849TIP3   OH247961   6.511   0.449  12.273  0.0896 -0.1820 -0.2478
 8849TIP3    H147962   6.430   0.409  12.305  0.5651 -1.5057 -0.6676
 8849TIP3    H247963   6.580   0.409  12.326  0.5381  0.5441 -0.2603
 8850TIP3   OH247964   2.598   4.691   3.623  0.1124 -0.0245 -0.8778
 8850TIP3    H147965   2.518   4.706   3.572  0.4130  0.4942 -1.2019
 8850TIP3    H247966   2.633   4.779   3.638 -0.2145 -0.1164  0.6328
 8851TIP3   OH247967   6.144   1.903   2.745 -0.2200  0.0448  0.0264
 8851TIP3    H147968   6.056   1.893   2.708  0.1543 -1.8296 -0.4900
 8851TIP3    H247969   6.139   1.856   2.829  1.0006 -2.7843 -1.3427
 8852TIP3   OH247970   1.771   2.219   1.844  0.1078 -0.0067  0.6150
 8852TIP3    H147971   1.684   2.252   1.865  0.1194  0.6945 -0.3810
 8852TIP3    H247972   1.830   2.270   1.899  0.1226  1.6855 -0.8760
 8853TIP3   OH247973   4.158   1.650  15.261 -0.7177 -0.1889  0.1594
 8853TIP3    H147974   4.087   1.646  15.197  0.3382  1.1492 -1.1658
 8853TIP3    H247975   4.195   1.738  15.251  0.7796 -0.6568  1.1800
 8854TIP3   OH247976   5.783   3.908  15.033  0.1599 -0.3742 -0.1913
 8854TIP3    H147977   5.864   3.878  15.076 -0.0057  0.0750  0.4462
 8854TIP3    H247978   5.733   3.950  15.103 -0.4175 -0.2239 -0.6882
 8855TIP3   OH247979   2.169   4.268  16.032  0.0709 -0.1876  0.2380
 8855TIP3    H147980   2.233   4.311  16.089 -0.0700  0.1644  0.1326
 8855TIP3    H247981   2.126   4.340  15.985  0.3923 -0.4878 -0.5284
 8856TIP3   OH247982   3.406   0.705  15.054  0.3511 -0.1444 -0.0028
 8856TIP3    H147983   3.417   0.778  14.993 -2.2271 -0.7533 -1.3143
 8856TIP3    H247984   3.343   0.737  15.119 -2.5559 -1.7518 -1.8247
 8857TIP3   OH247985   0.123   1.135   0.125 -0.1596 -0.4268 -1.0087
 8857TIP3    H147986   0.155   1.072   0.190  2.2586  1.7766  0.1396
 8857TIP3    H247987   0.198   1.151   0.068  0.5271  3.7218  0.7375
 8858TIP3   OH247988   0.455   3.971  17.063 -0.2198  0.2327  0.4639
 8858TIP3    H147989   0.545   3.993  17.085 -0.0580 -0.0388  0.0822
 8858TIP3    H247990   0.448   3.987  16.969 -1.4067  3.1376  0.9200
 8859TIP3   OH247991   4.779   5.581   1.147 -0.3726  0.2308  0.1051
 8859TIP3    H147992   4.716   5.622   1.206 -1.2010 -0.0465 -0.5707
 8859TIP3    H247993   4.735   5.579   1.062  0.1575 -0.8747 -0.1599
 8860TIP3   OH247994   5.183   1.051   5.514  0.0472 -0.4791 -0.3981
 8860TIP3    H147995   5.209   0.959   5.509 -0.9712 -0.7883 -0.3201
 8860TIP3    H247996   5.141   1.060   5.600  2.5205  0.7376  0.7940
 8861TIP3   OH247997   5.270   4.826   1.102  0.4243 -0.4846 -0.0762
 8861TIP3    H147998   5.333   4.774   1.053  0.9680  0.3712 -0.3207
 8861TIP3    H247999   5.297   4.817   1.194  0.7557 -0.3170 -0.1576
 8862TIP3   OH248000   1.147   4.753  10.650  0.2621 -0.8768  0.4651
 8862TIP3    H148001   1.077   4.734  10.587  0.3596  0.9541 -0.2500
 8862TIP3    H248002   1.208   4.808  10.602  1.2794 -0.9297  1.6464
 8863TIP3   OH248003   4.333   4.856  11.680 -0.7899  0.3594  1.1158
 8863TIP3    H148004   4.388   4.880  11.755 -2.7101  3.1950  1.7626
 8863TIP3    H248005   4.364   4.912  11.609 -2.2814  1.4196  1.2737
 8864TIP3   OH248006   0.586   3.490  16.699  0.6014 -0.0987  0.1930
 8864TIP3    H148007   0.637   3.548  16.643 -0.1683 -0.3896 -0.8310
 8864TIP3    H248008   0.516   3.546  16.733  0.0400 -0.3358 -0.5494
 8865TIP3   OH248009   0.558   4.250  17.068 -0.0225  0.8909 -0.3707
 8865TIP3    H148010   0.553   4.247  16.972 -0.7206 -0.2026 -0.3159
 8865TIP3    H248011   0.649   4.275  17.086 -0.1175  2.0198 -1.3133
 8866TIP3   OH248012   0.084   6.081   0.419 -0.1373  0.0956  0.4550
 8866TIP3    H148013   0.079   6.030   0.338  1.3851  0.0951  0.3349
 8866TIP3    H248014   0.139   6.028   0.477 -1.3180  0.0281  1.5624
 8867TIP3   OH248015   6.217   0.885   2.276 -0.5223  0.3633 -0.2531
 8867TIP3    H148016   6.128   0.907   2.303 -0.6092 -0.4313  0.1374
 8867TIP3    H248017   6.273   0.943   2.327 -0.8472  1.8151 -1.4712
 8868TIP3   OH248018   6.577   3.320  12.769  0.3019 -0.2943 -0.0409
 8868TIP3    H148019   6.571   3.355  12.680  0.3994 -0.0351  0.0523
 8868TIP3    H248020   6.494   3.274  12.782 -0.3051  0.8477  0.2232
 8869TIP3   OH248021   5.537   1.163  17.103 -0.1974 -0.1165 -0.0082
 8869TIP3    H148022   5.495   1.248  17.116 -0.8154 -0.0632 -2.0234
 8869TIP3    H248023   5.516   1.113  17.182 -0.4330  1.3387  0.8848
 8870TIP3   OH248024   2.999   2.568   0.827  0.0343 -0.4448  0.4576
 8870TIP3    H148025   2.941   2.555   0.902  0.5801  1.2637  1.2143
 8870TIP3    H248026   3.086   2.581   0.865  0.6209 -1.1418 -0.5721
 8871TIP3   OH248027   2.769   3.235  11.686  0.2292 -0.0893 -0.1769
 8871TIP3    H148028   2.681   3.198  11.693  0.5018 -0.6910  0.1757
 8871TIP3    H248029   2.808   3.187  11.613  0.1697  0.3880 -0.5280
 8872TIP3   OH248030   6.357   0.590  11.255  0.0784 -0.0956 -0.4853
 8872TIP3    H148031   6.369   0.607  11.348  0.2138  1.3264 -0.7517
 8872TIP3    H248032   6.428   0.530  11.232 -0.5171 -1.2399  0.5075
 8873TIP3   OH248033   5.877   3.200   4.579  0.7417  0.2795  0.0891
 8873TIP3    H148034   5.949   3.166   4.525 -0.2817 -0.6627 -0.7131
 8873TIP3    H248035   5.834   3.123   4.614 -0.7460  0.7682 -0.5948
 8874TIP3   OH248036   0.007   5.730  13.933 -0.3002 -0.7146  0.8177
 8874TIP3    H148037   0.014   5.795  14.003 -0.6304 -0.8908  1.0181
 8874TIP3    H248038  -0.055   5.768  13.871 -0.7110 -0.9621  1.0752
 8875TIP3   OH248039   6.518   4.186   4.042 -0.4156 -0.3840  0.1536
 8875TIP3    H148040   6.613   4.174   4.033 -0.3509 -1.2522  1.6887
 8875TIP3    H248041   6.489   4.207   3.954  1.3360  0.9177 -0.1786
 8876TIP3   OH248042   0.640   3.377  16.986  0.0006  0.0224 -0.6240
 8876TIP3    H148043   0.624   3.418  16.901 -1.1482  1.4220  0.2180
 8876TIP3    H248044   0.553   3.347  17.014  0.5779 -1.6636 -0.5198
 8877TIP3   OH248045   3.913   6.477  11.211  0.0252  0.3341 -0.2964
 8877TIP3    H148046   3.962   6.396  11.224  0.6599  0.6247 -0.8248
 8877TIP3    H248047   3.832   6.464  11.259 -0.0485 -0.7769 -0.6886
 8878TIP3   OH248048   3.110   4.388   6.075  0.0132 -0.0440  0.3976
 8878TIP3    H148049   3.199   4.396   6.040 -0.1025 -0.3871  0.0163
 8878TIP3    H248050   3.123   4.365   6.167  0.3227  1.4019  0.7399
 8879TIP3   OH248051   4.875   2.668   0.550 -0.0149  0.5028  0.7822
 8879TIP3    H148052   4.967   2.697   0.552 -0.3409  1.5612  2.4405
 8879TIP3    H248053   4.828   2.737   0.598 -1.9511  0.8432 -1.4503
 8880TIP3   OH248054   1.815   5.933   2.151 -0.3820 -0.0658  0.2222
 8880TIP3    H148055   1.882   5.991   2.114  1.0083 -1.5422  0.3142
 8880TIP3    H248056   1.864   5.861   2.190 -1.8812  0.2243  2.9362
 8881TIP3   OH248057   1.112   1.530  11.424 -0.0607 -0.0983 -0.7016
 8881TIP3    H148058   1.140   1.549  11.335  2.6304  0.1574  0.1119
 8881TIP3    H248059   1.177   1.574  11.480 -0.0133 -2.5261  1.3481
 8882TIP3   OH248060   6.131   5.340   5.299 -0.0344  0.1993 -0.5064
 8882TIP3    H148061   6.043   5.305   5.282 -0.8841  1.0193  1.8189
 8882TIP3    H248062   6.183   5.263   5.324 -1.4049  0.1941  2.7554
 8883TIP3   OH248063   0.082   0.590  14.043  0.1728 -0.1144  0.4177
 8883TIP3    H148064   0.093   0.625  13.954 -1.7818  0.4286  0.3356
 8883TIP3    H248065   0.100   0.665  14.100 -0.8632  0.2029  0.3581
 8884TIP3   OH248066   2.018   1.713  10.328  0.2221  0.6050 -0.2793
 8884TIP3    H148067   2.025   1.775  10.401  0.6543  1.0119 -0.6619
 8884TIP3    H248068   1.939   1.663  10.347 -0.4870  1.6873 -0.2835
 8885TIP3   OH248069   2.322   2.447   1.796 -0.1592  0.1923  0.2462
 8885TIP3    H148070   2.228   2.431   1.790 -0.1990  0.5151 -0.0059
 8885TIP3    H248071   2.331   2.541   1.782  0.4766 -0.2268 -2.9152
 8886TIP3   OH248072   3.703   2.416   3.446  0.7816 -0.0231  0.4329
 8886TIP3    H148073   3.609   2.427   3.432  1.1581  2.0828 -0.8739
 8886TIP3    H248074   3.712   2.327   3.481 -1.5337 -0.8946 -0.9406
 8887TIP3   OH248075   0.193   6.037  13.352 -0.6317 -0.6378 -0.5844
 8887TIP3    H148076   0.195   6.064  13.444 -0.1694  1.2769 -1.1110
 8887TIP3    H248077   0.253   5.963  13.347  0.1531 -0.0996  0.4719
 8888TIP3   OH248078   5.395   0.500   1.505 -0.5629 -0.0678  0.1473
 8888TIP3    H148079   5.462   0.452   1.554  0.5575  0.4152 -0.8646
 8888TIP3    H248080   5.312   0.469   1.541  0.2032 -0.4822  1.6199
 8889TIP3   OH248081   3.910   3.249  12.576  0.2294  0.4606 -0.4710
 8889TIP3    H148082   3.856   3.259  12.655  0.2472 -2.2412 -0.0081
 8889TIP3    H248083   3.979   3.187  12.602 -0.8819 -2.1019 -3.0346
 8890TIP3   OH248084   3.705   1.444  15.736 -0.4602 -0.3591 -0.2286
 8890TIP3    H148085   3.655   1.372  15.698  1.3859 -2.5458  1.2032
 8890TIP3    H248086   3.682   1.444  15.829 -1.7172  2.1232 -0.4459
 8891TIP3   OH248087   6.737   5.213  11.471  0.1055 -0.2553 -0.1170
 8891TIP3    H148088   6.825   5.178  11.452 -0.4476 -1.6224 -0.3233
 8891TIP3    H248089   6.678   5.146  11.436 -1.0076  0.1542  0.9431
 8892TIP3   OH248090   1.492   0.247   2.715  0.2784 -0.0918  0.0018
 8892TIP3    H148091   1.453   0.210   2.795 -0.7091 -0.4805 -0.6345
 8892TIP3    H248092   1.534   0.172   2.672  2.5515  0.4788  1.1011
 8893TIP3   OH248093   2.424   0.950   1.491 -0.3135  0.2943  0.2449
 8893TIP3    H148094   2.513   0.948   1.454  0.9097 -0.3070  2.9541
 8893TIP3    H248095   2.415   1.038   1.525 -0.9341  0.4566 -0.3142
 8894TIP3   OH248096   2.442   3.124  12.791 -0.3749  0.4000 -0.6776
 8894TIP3    H148097   2.367   3.183  12.780 -0.9403 -0.3236 -0.8472
 8894TIP3    H248098   2.499   3.169  12.853 -0.5233  1.3658 -1.2246
 8895TIP3   OH248099   3.952   4.401  14.426 -0.0402 -0.6179  1.1382
 8895TIP3    H148100   4.043   4.374  14.438 -0.3865 -1.7960  1.2664
 8895TIP3    H248101   3.906   4.367  14.503 -0.3382  1.3142  1.8725
 8896TIP3   OH248102   4.697   3.985  14.752 -0.4646 -0.7580 -0.4284
 8896TIP3    H148103   4.736   3.934  14.824  0.7050  0.5475 -0.0990
 8896TIP3    H248104   4.767   3.993  14.688 -0.8545 -0.1350 -0.7796
 8897TIP3   OH248105   2.996   1.446  12.905 -0.2192 -0.9034 -0.3325
 8897TIP3    H148106   2.952   1.368  12.871  0.7487 -1.1567 -1.0166
 8897TIP3    H248107   2.926   1.511  12.913 -0.7291 -1.3089 -1.3748
 8898TIP3   OH248108   0.384   4.213   1.165  0.8531 -0.4758 -0.5118
 8898TIP3    H148109   0.309   4.165   1.129  0.3927 -0.9567  1.0065
 8898TIP3    H248110   0.450   4.211   1.095 -0.7860  0.6174 -2.1729
 8899TIP3   OH248111   3.917   4.706   0.063 -0.2874 -0.1923 -0.3262
 8899TIP3    H148112   3.967   4.781   0.095 -0.8091  0.2620 -0.5610
 8899TIP3    H248113   3.979   4.634   0.064 -0.0508 -0.0014  0.8986
 8900TIP3   OH248114   4.757   1.137  17.017  0.0713  0.2676  0.1755
 8900TIP3    H148115   4.666   1.109  17.005 -0.4778  1.8377  0.4331
 8900TIP3    H248116   4.780   1.104  17.104 -0.1850 -0.2789  0.0443
 8901TIP3   OH248117   2.112   5.871   5.435 -0.1649 -0.2972 -0.1942
 8901TIP3    H148118   2.017   5.861   5.424  0.2136 -3.0634 -1.7650
 8901TIP3    H248119   2.145   5.884   5.347  0.9664  0.4892  0.3254
 8902TIP3   OH248120   2.966   1.856  12.028 -0.0700  0.0810 -0.0600
 8902TIP3    H148121   3.025   1.926  12.055 -1.4458  0.9395  0.8001
 8902TIP3    H248122   2.981   1.847  11.934  0.4031  1.2412 -0.1070
 8903TIP3   OH248123   4.073   5.931  16.247 -0.7740 -0.1215 -0.5456
 8903TIP3    H148124   4.072   6.006  16.307 -1.4694  0.6680 -1.4848
 8903TIP3    H248125   4.098   5.856  16.301 -0.2244  0.7610  0.4606
 8904TIP3   OH248126   6.561   0.745  14.785  0.0740 -0.2505  0.0111
 8904TIP3    H148127   6.533   0.666  14.830 -2.0427  0.3736 -0.1102
 8904TIP3    H248128   6.617   0.791  14.848  1.7809 -2.0465 -0.1152
 8905TIP3   OH248129   4.679   2.053   0.961 -0.0135 -0.0139 -0.2988
 8905TIP3    H148130   4.727   2.131   0.989  1.9480 -0.9117 -1.0584
 8905TIP3    H248131   4.730   2.017   0.889 -1.5388 -1.3558 -0.7712
 8906TIP3   OH248132   2.969   6.426   3.993 -0.1817  0.3493  0.6172
 8906TIP3    H148133   2.977   6.331   3.994  1.9703  0.4096 -1.2850
 8906TIP3    H248134   2.876   6.443   3.986 -0.5362 -1.6631 -0.1296
 8907TIP3   OH248135   4.390   3.124  17.097 -0.5583  0.1887 -0.3012
 8907TIP3    H148136   4.373   3.131  17.191 -1.5637  1.1648 -0.5334
 8907TIP3    H248137   4.377   3.032  17.076 -2.9621  0.3999  0.0485
 8908TIP3   OH248138   6.744   4.775  16.617 -0.5203  0.3295 -0.2970
 8908TIP3    H148139   6.740   4.717  16.541 -0.0608  0.5231 -0.4742
 8908TIP3    H248140   6.826   4.824  16.605 -1.5094  1.9157 -0.8190
 8909TIP3   OH248141   1.463   5.429   1.419  0.7249 -0.0523  0.6470
 8909TIP3    H148142   1.390   5.424   1.358  0.4639  0.1981  0.9336
 8909TIP3    H248143   1.465   5.343   1.461  0.3888  0.0444  0.8680
 8910TIP3   OH248144   0.639   1.164   4.888 -0.1358  0.0251 -0.4996
 8910TIP3    H148145   0.711   1.157   4.826 -1.0497 -0.9522 -1.5123
 8910TIP3    H248146   0.578   1.094   4.862 -1.7650  1.2357 -0.1364
 8911TIP3   OH248147   0.424   4.366  12.249  0.1543 -0.0206 -0.4224
 8911TIP3    H148148   0.502   4.330  12.291 -1.1455 -1.1398  1.1562
 8911TIP3    H248149   0.402   4.303  12.181  0.1712 -0.1282 -0.3286
 8912TIP3   OH248150   6.105   0.451  16.625  0.4742  0.1675 -0.0895
 8912TIP3    H148151   6.028   0.484  16.579  0.1108 -1.1179 -0.4468
 8912TIP3    H248152   6.179   0.478  16.571  0.0788 -0.9296 -1.2205
 8913TIP3   OH248153   1.360   5.464   4.988 -0.4400  0.4696 -0.5652
 8913TIP3    H148154   1.336   5.556   4.994 -0.7655  0.3130  1.1398
 8913TIP3    H248155   1.430   5.453   5.053 -1.8592 -0.9051  0.8145
 8914TIP3   OH248156   3.734   4.602  15.208 -0.4700 -0.1619 -0.3064
 8914TIP3    H148157   3.715   4.519  15.164 -0.0318 -0.1261 -0.5770
 8914TIP3    H248158   3.736   4.580  15.301  0.8423 -0.7230 -0.4346
 8915TIP3   OH248159   2.759   0.054   2.221  0.4321  0.0640 -0.0324
 8915TIP3    H148160   2.666   0.072   2.212  0.1352 -0.7091  1.1706
 8915TIP3    H248161   2.765  -0.042   2.227  0.5576  0.0919  5.6282
 8916TIP3   OH248162   6.398   5.572  15.941  0.6230 -0.0531 -0.0793
 8916TIP3    H148163   6.370   5.652  15.896  0.0086  0.2759  0.8555
 8916TIP3    H248164   6.481   5.597  15.983 -0.7801  0.9395  2.3171
 8917TIP3   OH248165   6.699   1.288   4.029  0.0643  0.0402  0.2876
 8917TIP3    H148166   6.701   1.194   4.046  1.4963 -0.4990 -2.3470
 8917TIP3    H248167   6.780   1.321   4.069 -0.8587  0.3547  1.9681
 8918TIP3   OH248168   5.438   0.087   5.388  0.2296 -0.1242 -0.1003
 8918TIP3    H148169   5.345   0.111   5.382  0.2478  0.0597  0.3383
 8918TIP3    H248170   5.454   0.077   5.482  0.4361 -1.0213 -0.2315
 8919TIP3   OH248171   6.532   4.574   5.248 -0.2082  0.1972 -0.2286
 8919TIP3    H148172   6.590   4.588   5.322 -1.1328  3.1566  0.0626
 8919TIP3    H248173   6.460   4.521   5.283 -0.2313  0.8910  0.8089
 8920TIP3   OH248174   2.976   4.753  16.368  0.1004  0.0068 -0.5720
 8920TIP3    H148175   2.910   4.801  16.419 -1.2099 -0.5260 -1.7225
 8920TIP3    H248176   3.039   4.723  16.434 -1.7413 -1.0119  0.8373
 8921TIP3   OH248177   0.396   1.983  16.213 -0.5327 -0.1313 -0.1345
 8921TIP3    H148178   0.381   1.895  16.248 -0.7211 -0.3672 -0.8038
 8921TIP3    H248179   0.491   1.990  16.206 -0.5575 -1.4265 -2.9123
 8922TIP3   OH248180   1.193   4.527  16.867 -0.1038 -0.2132 -0.1848
 8922TIP3    H148181   1.249   4.450  16.859 -0.4815 -0.4590 -0.4774
 8922TIP3    H248182   1.188   4.562  16.778  0.7169  0.6213  0.0693
 8923TIP3   OH248183   4.646   0.771  16.946 -0.3423  0.0056  0.0269
 8923TIP3    H148184   4.675   0.817  17.024  2.4986 -1.1889 -0.1833
 8923TIP3    H248185   4.596   0.697  16.979 -0.7139  0.5133  0.6112
 8924TIP3   OH248186   6.799   6.655   4.275 -0.2904  0.0400 -0.4038
 8924TIP3    H148187   6.865   6.678   4.340 -0.8654 -0.7430  0.4769
 8924TIP3    H248188   6.797   6.559   4.275  0.2986 -0.0223 -2.2034
 8925TIP3   OH248189   4.162   1.977   2.983 -0.1988 -0.5511 -0.4866
 8925TIP3    H148190   4.224   2.041   3.020  0.6696 -0.4328 -2.0834
 8925TIP3    H248191   4.081   2.026   2.972 -0.2312 -0.3663  0.4528
 8926TIP3   OH248192   2.276   5.048  13.848  0.6429 -0.2781  0.5391
 8926TIP3    H148193   2.275   4.961  13.886 -1.5932 -0.0512  1.1775
 8926TIP3    H248194   2.190   5.056  13.806  1.1606  1.2906 -0.3025
 8927TIP3   OH248195   1.187   2.807   1.618  0.0489  0.3103 -0.4229
 8927TIP3    H148196   1.278   2.828   1.641  0.4144 -1.0117 -0.6268
 8927TIP3    H248197   1.163   2.875   1.555  0.8646  0.7324 -0.2968
 8928TIP3   OH248198   4.293   3.842   0.555 -0.0439 -0.2627  0.0092
 8928TIP3    H148199   4.317   3.867   0.645 -1.6622 -0.1126  0.4348
 8928TIP3    H248200   4.215   3.787   0.566  0.3699 -1.1522 -1.2614
 8929TIP3   OH248201   1.062   4.553   3.339 -0.3172  0.1932 -0.1771
 8929TIP3    H148202   0.989   4.520   3.392 -0.5602 -1.5330 -1.5110
 8929TIP3    H248203   1.061   4.648   3.355 -1.0199 -0.1213  2.0564
 8930TIP3   OH248204   4.949   0.107   3.631  0.0359 -0.0949 -0.2924
 8930TIP3    H148205   4.935   0.136   3.541 -0.5019 -3.3043 -1.3909
 8930TIP3    H248206   4.895   0.028   3.639  0.1118  0.0606  2.8577
 8931TIP3   OH248207   3.468   1.121   6.391 -0.1359 -0.7473  0.3260
 8931TIP3    H148208   3.560   1.098   6.405 -0.5934 -3.1210 -0.1426
 8931TIP3    H248209   3.427   1.104   6.476 -0.1930  0.1752  0.4937
 8932TIP3   OH248210   6.612   0.314   3.913 -0.4620  0.0864 -0.0004
 8932TIP3    H148211   6.592   0.385   3.852 -2.9006 -0.0524  0.5619
 8932TIP3    H248212   6.658   0.249   3.859  1.6718  1.9152 -0.5714
 8933TIP3   OH248213   5.649   3.732   4.014 -0.9379  0.1874  0.5612
 8933TIP3    H148214   5.666   3.826   4.002  4.5820 -0.6411 -0.4364
 8933TIP3    H248215   5.639   3.699   3.925  0.6996 -0.5714  0.6288
 8934TIP3   OH248216   3.406   4.755   4.556 -0.1420 -0.1934 -0.0023
 8934TIP3    H148217   3.348   4.692   4.514 -2.1836  0.1672  2.0418
 8934TIP3    H248218   3.384   4.839   4.515 -0.3956 -0.2067  0.1041
 8935TIP3   OH248219   0.562   1.460   4.032 -0.2123 -0.2199 -0.3201
 8935TIP3    H148220   0.555   1.515   3.954  0.4901  1.5315  0.7765
 8935TIP3    H248221   0.651   1.475   4.064 -0.9058  0.1937  1.5500
 8936TIP3   OH248222   6.262   2.057  16.277  0.3397 -0.0531 -0.2950
 8936TIP3    H148223   6.185   2.099  16.316 -0.3404 -1.1447 -0.4122
 8936TIP3    H248224   6.244   2.058  16.183  0.5206 -0.2089 -0.3308
 8937TIP3   OH248225   3.041   5.740   0.496 -0.0144  0.2949  0.0964
 8937TIP3    H148226   3.132   5.731   0.525 -0.0010 -0.2987 -0.1372
 8937TIP3    H248227   3.037   5.695   0.412 -1.3237 -2.8831  1.6753
 8938TIP3   OH248228   4.746   4.429  12.278  0.0211  0.3573  0.0548
 8938TIP3    H148229   4.762   4.481  12.199 -2.2796  2.4222  0.8149
 8938TIP3    H248230   4.788   4.478  12.348  0.8120 -0.7044  0.3475
 8939TIP3   OH248231   0.230   0.860   5.381  0.0128 -0.0489  0.2485
 8939TIP3    H148232   0.150   0.846   5.330 -0.5674  3.0915  0.0918
 8939TIP3    H248233   0.207   0.930   5.443  2.5011  0.6948  0.4366
 8940TIP3   OH248234   1.986   2.706   1.361  0.1101  0.1382  0.0554
 8940TIP3    H148235   2.065   2.697   1.308  0.9289 -0.0712  1.2723
 8940TIP3    H248236   1.985   2.798   1.386  0.8228 -0.1739  1.2968
 8941TIP3   OH248237   1.857   1.358  12.921  0.1017  0.1690  0.0466
 8941TIP3    H148238   1.792   1.368  12.990 -0.2011  0.1545 -0.2375
 8941TIP3    H248239   1.806   1.347  12.841  0.4583  0.9080 -0.2888
 8942TIP3   OH248240   4.541   0.225  11.580  0.0578  0.4800  0.1895
 8942TIP3    H148241   4.459   0.215  11.530  1.2261  2.2976 -2.3151
 8942TIP3    H248242   4.537   0.314  11.615  1.7337  1.4024 -1.7308
 8943TIP3   OH248243   4.353   3.041  12.486 -0.6642  0.4329 -0.8272
 8943TIP3    H148244   4.269   2.996  12.486 -0.9794  1.0079 -1.5215
 8943TIP3    H248245   4.413   2.980  12.444 -1.0543  0.5843 -1.6141
 8944TIP3   OH248246   1.413   2.576  13.853 -0.1081  0.4538  0.1924
 8944TIP3    H148247   1.349   2.646  13.871  0.0345  0.7802 -0.5032
 8944TIP3    H248248   1.361   2.496  13.852 -0.2920  0.5571  0.8988
 8945TIP3   OH248249   6.384   5.011   2.243  0.2069  0.3928 -0.1670
 8945TIP3    H148250   6.334   5.087   2.212 -1.1090 -1.2494 -2.4068
 8945TIP3    H248251   6.346   4.989   2.327  1.0158  2.5190  0.8198
 8946TIP3   OH248252   3.303   1.599   2.675 -0.6312  0.9215  0.3297
 8946TIP3    H148253   3.340   1.616   2.762 -0.5118  3.1316 -0.0949
 8946TIP3    H248254   3.375   1.618   2.614 -1.0086  0.3704 -0.2979
 8947TIP3   OH248255   2.629   0.522   5.033 -0.1766  0.0110  0.0818
 8947TIP3    H148256   2.601   0.523   4.942  0.8183  0.6468 -0.2442
 8947TIP3    H248257   2.600   0.438   5.067 -1.6393  0.2767 -0.4673
 8948TIP3   OH248258   4.242   6.788   4.683  0.1639  0.3884  0.1300
 8948TIP3    H148259   4.175   6.831   4.629 -0.5829 -0.9156 -0.0169
 8948TIP3    H248260   4.239   6.835   4.767  0.1597  1.3385 -0.3846
 8949TIP3   OH248261   4.797   3.773  15.575  0.0191 -0.5182  0.0814
 8949TIP3    H148262   4.752   3.759  15.658 -0.7029  1.2808  0.0401
 8949TIP3    H248263   4.861   3.842  15.594 -0.6363  0.4178 -0.9808
 8950TIP3   OH248264   4.183   5.715   5.471 -0.2023  0.6450  0.6643
 8950TIP3    H148265   4.241   5.639   5.468 -0.8099  0.1986 -0.8283
 8950TIP3    H248266   4.214   5.766   5.546 -0.6597 -1.7572  2.5996
 8951TIP3   OH248267   6.793   3.921   6.404  0.0748  0.1596 -0.3215
 8951TIP3    H148268   6.703   3.936   6.432  0.3550 -1.4986  1.7093
 8951TIP3    H248269   6.841   3.999   6.432 -0.4838  0.4740 -0.2320
 8952TIP3   OH248270   6.142   3.127   0.297  0.1086 -0.3738  0.2867
 8952TIP3    H148271   6.058   3.090   0.272  0.3094 -0.0381 -0.9313
 8952TIP3    H248272   6.154   3.101   0.389 -1.2345 -0.5654  0.4160
 8953TIP3   OH248273   2.237   6.105  14.915 -0.2830 -0.1538  0.5087
 8953TIP3    H148274   2.161   6.065  14.874  1.8037 -0.6682 -3.3427
 8953TIP3    H248275   2.291   6.031  14.943  0.0996  0.1354  0.5414
 8954TIP3   OH248276   5.237   3.636  16.157 -0.0730 -0.1225 -0.0957
 8954TIP3    H148277   5.217   3.685  16.236  1.1043  0.4043 -0.1125
 8954TIP3    H248278   5.219   3.545  16.181 -1.2901  0.1864  0.2483
 8955TIP3   OH248279   3.370   0.706   3.321 -0.0058 -0.1206  0.5704
 8955TIP3    H148280   3.307   0.644   3.284 -0.5001  2.6478 -4.2071
 8955TIP3    H248281   3.447   0.699   3.264  0.2708  2.8538  0.4277
 8956TIP3   OH248282   1.493   2.907  16.030 -0.1232 -0.0880  0.4448
 8956TIP3    H148283   1.459   2.873  15.947 -1.1124  0.5666  0.5654
 8956TIP3    H248284   1.443   2.860  16.097  0.3005 -0.2257  0.6721
 8957TIP3   OH248285   0.224   4.076  12.373 -0.0667  0.0477  0.2340
 8957TIP3    H148286   0.133   4.100  12.388  0.0359  0.5010  0.1415
 8957TIP3    H248287   0.271   4.115  12.446  0.0653 -0.1053  0.2303
 8958TIP3   OH248288   3.138   4.477   2.641 -0.1808 -0.4093 -0.1358
 8958TIP3    H148289   3.108   4.567   2.658  0.2694 -0.3294  0.2708
 8958TIP3    H248290   3.104   4.426   2.714  1.2754 -0.1768  0.7429
 8959TIP3   OH248291   6.268   2.173   4.460  0.1667  0.6171  0.2688
 8959TIP3    H148292   6.243   2.125   4.539 -0.1459  1.0919  0.4645
 8959TIP3    H248293   6.361   2.155   4.449  0.6821  2.1239  1.8642
 8960TIP3   OH248294   0.021   4.548  17.089  0.1807 -0.3039  0.9181
 8960TIP3    H148295  -0.031   4.527  17.011  0.6285  0.5480  0.3910
 8960TIP3    H248296   0.095   4.487  17.085  1.5907  1.3863 -0.7270
 8961TIP3   OH248297   5.123   0.725   0.252 -0.1427 -0.5969 -0.2821
 8961TIP3    H148298   5.075   0.750   0.173 -0.7961 -0.6893  0.0857
 8961TIP3    H248299   5.058   0.728   0.322  1.0706  2.6562  0.8981
 8962TIP3   OH248300   1.896   1.159   2.923  0.1671 -0.4249 -0.6091
 8962TIP3    H148301   1.983   1.197   2.940 -0.1214 -0.2378  0.5175
 8962TIP3    H248302   1.843   1.187   2.997 -1.2645  0.6504 -1.9765
 8963TIP3   OH248303   6.025   5.962   4.760  0.0186 -0.4964 -0.1158
 8963TIP3    H148304   6.113   5.996   4.775 -0.6880  1.2707  0.2907
 8963TIP3    H248305   6.016   5.890   4.823  0.7737  0.0570  0.6551
 8964TIP3   OH248306   1.162   1.945  13.806 -0.0743 -0.0494 -0.1267
 8964TIP3    H148307   1.116   2.029  13.815 -0.2974 -0.2388  0.5426
 8964TIP3    H248308   1.214   1.937  13.886  0.6247 -0.1472 -0.5792
 8965TIP3   OH248309   2.389   2.382  11.476 -0.1527  0.1829  0.2853
 8965TIP3    H148310   2.445   2.388  11.398  0.3286  0.5013  0.6453
 8965TIP3    H248311   2.302   2.361  11.442 -0.0302  0.6931 -0.3673
 8966TIP3   OH248312   5.354   0.406   0.557  0.6717  0.7091  0.0620
 8966TIP3    H148313   5.292   0.413   0.484  0.2965  1.0265  0.4024
 8966TIP3    H248314   5.304   0.364   0.627  1.5079 -1.1011 -0.3752
 8967TIP3   OH248315   2.367   1.836  12.032 -0.5373  0.2482 -0.2737
 8967TIP3    H148316   2.415   1.753  12.036 -0.3535  0.3991  1.7029
 8967TIP3    H248317   2.363   1.866  12.123 -1.7164  1.7822 -0.7813
 8968TIP3   OH248318   2.865   1.082  16.170  0.1253  0.0595  0.1778
 8968TIP3    H148319   2.783   1.047  16.204  0.0862  0.4649  0.5104
 8968TIP3    H248320   2.880   1.162  16.222  0.7605 -0.0528  0.1723
 8969TIP3   OH248321   2.107   5.715  15.863 -0.7641 -0.2024  0.0730
 8969TIP3    H148322   2.091   5.797  15.816  1.8745  1.3774  1.6748
 8969TIP3    H248323   2.077   5.732  15.952 -0.5927 -1.1255  0.3095
 8970TIP3   OH248324   2.806   0.468  12.645 -0.0313 -0.5089  0.1627
 8970TIP3    H148325   2.857   0.449  12.724  1.3482  1.7100 -0.1051
 8970TIP3    H248326   2.728   0.513  12.677  1.4746  2.2140  0.2346
 8971TIP3   OH248327   3.557   4.098  14.527  0.0632  0.1003  0.0873
 8971TIP3    H148328   3.551   4.183  14.571 -0.0163 -0.4522  1.1798
 8971TIP3    H248329   3.489   4.101  14.459  0.0866  0.9146  0.0950
 8972TIP3   OH248330   5.434   0.009  16.991  0.3620 -0.0111  0.2481
 8972TIP3    H148331   5.472   0.044  17.071  1.2553 -0.5598  0.0778
 8972TIP3    H248332   5.353  -0.035  17.020  1.2538 -1.2023  1.0334
 8973TIP3   OH248333   2.921   6.302  12.651 -0.0985  0.0053 -0.0695
 8973TIP3    H148334   2.939   6.209  12.661  0.0509  0.0089 -0.3153
 8973TIP3    H248335   2.875   6.326  12.732 -1.8915 -0.7161 -0.8224
 8974TIP3   OH248336   3.264   3.433   5.273  0.3034 -0.0495  0.4328
 8974TIP3    H148337   3.299   3.459   5.188  1.0023 -0.9620  0.4210
 8974TIP3    H248338   3.305   3.492   5.335  0.0321  0.4179  0.1750
 8975TIP3   OH248339   1.511   2.241  16.065 -0.2357  0.3853  0.0115
 8975TIP3    H148340   1.474   2.154  16.048 -1.8996  0.9004  0.7611
 8975TIP3    H248341   1.527   2.241  16.160 -0.3079  0.9092  0.0231
 8976TIP3   OH248342   2.955   1.151  12.181 -0.2437  0.3192  0.0262
 8976TIP3    H148343   2.882   1.108  12.226  1.0417  0.2191  2.1410
 8976TIP3    H248344   2.938   1.136  12.088 -1.4743 -2.0606  0.5658
 8977TIP3   OH248345   3.229   2.320  15.969  0.2234  0.7213 -0.5507
 8977TIP3    H148346   3.165   2.360  15.910 -1.3356 -0.7965  0.0287
 8977TIP3    H248347   3.180   2.255  16.018  2.1479 -0.2314  0.2397
 8978TIP3   OH248348   6.037   4.663  15.202  0.1820  0.6232 -0.7668
 8978TIP3    H148349   5.984   4.584  15.192  1.8109 -0.2893 -2.8836
 8978TIP3    H248350   6.057   4.667  15.296  0.2977 -1.6396 -0.6490
 8979TIP3   OH248351   6.472   3.375   4.453 -0.0822  0.5262 -0.2314
 8979TIP3    H148352   6.381   3.367   4.423 -0.7287 -2.2594  2.1026
 8979TIP3    H248353   6.479   3.467   4.480 -2.0779  0.8851 -0.7247
 8980TIP3   OH248354   1.890   6.733   2.169  0.0843 -0.0947 -0.5277
 8980TIP3    H148355   1.842   6.659   2.133  2.1511 -1.2559 -1.0549
 8980TIP3    H248356   1.950   6.694   2.233 -0.3101  1.4033  0.8187
 8981TIP3   OH248357   5.477   4.652  11.965  0.4702  0.1928 -0.1333
 8981TIP3    H148358   5.509   4.719  12.026  0.6683  0.2929 -0.3510
 8981TIP3    H248359   5.554   4.598  11.946  0.8051  1.1378 -1.5878
 8982TIP3   OH248360   2.089   5.934   1.542 -0.3974 -0.0431  1.0953
 8982TIP3    H148361   1.997   5.924   1.567 -0.2506 -0.4016  1.5105
 8982TIP3    H248362   2.132   5.964   1.622 -0.5842  2.7519  0.2659
 8983TIP3   OH248363   2.001   5.231   4.182 -0.2199  0.4058 -0.3581
 8983TIP3    H148364   2.088   5.202   4.153  0.8377  1.0579  1.9721
 8983TIP3    H248365   2.015   5.320   4.214 -1.9395  0.8143 -0.6506
 8984TIP3   OH248366   2.068   4.319   5.834  0.0070  0.6240 -0.6399
 8984TIP3    H148367   1.999   4.288   5.775  1.2586 -1.8232 -0.9414
 8984TIP3    H248368   2.080   4.248   5.896  1.8349  1.2602 -0.2159
 8985TIP3   OH248369   5.878   6.654  13.774 -0.3467 -0.4280 -0.1606
 8985TIP3    H148370   5.935   6.602  13.717  0.2700  0.2040 -0.1270
 8985TIP3    H248371   5.792   6.611  13.767 -0.3701 -0.1896 -1.8123
 8986TIP3   OH248372   4.922   6.306  13.042 -0.4973 -0.6748  0.2174
 8986TIP3    H148373   4.990   6.252  13.082 -1.2851 -1.9114 -0.0496
 8986TIP3    H248374   4.969   6.371  12.990  0.4989 -0.2676  1.5901
 8987TIP3   OH248375   1.953   5.230  14.901  0.5018 -0.0779 -0.2651
 8987TIP3    H148376   1.924   5.250  14.990 -0.2132 -0.9293 -0.2995
 8987TIP3    H248377   1.984   5.140  14.905  0.2404 -0.2057 -0.9362
 8988TIP3   OH248378   6.664   6.093   5.478  0.2477 -0.3142 -0.1172
 8988TIP3    H148379   6.623   6.089   5.392  0.0359 -0.2390 -0.0210
 8988TIP3    H248380   6.615   6.031   5.532 -0.1239  0.1991  0.1544
 8989TIP3   OH248381   4.957   5.346   6.404  0.1478 -0.0948 -0.7953
 8989TIP3    H148382   4.934   5.258   6.435  0.5758 -0.6395 -1.9632
 8989TIP3    H248383   4.927   5.404   6.474  1.4563 -1.2814  0.8471
 8990TIP3   OH248384   0.084   5.528   5.617  0.0788  0.1695 -0.0061
 8990TIP3    H148385   0.010   5.574   5.577 -1.0849 -0.9630  0.7884
 8990TIP3    H248386   0.044   5.457   5.668  1.7358 -0.7808  0.0405
 8991TIP3   OH248387   6.041   1.747  14.578  0.3490 -0.3144  0.0144
 8991TIP3    H148388   6.054   1.824  14.523 -0.0561 -1.1706 -1.3312
 8991TIP3    H248389   5.952   1.757  14.613  0.0280 -0.4866 -0.7239
 8992TIP3   OH248390   4.025   0.823   1.448 -1.1289  0.0958 -0.0758
 8992TIP3    H148391   3.983   0.835   1.534 -0.2345  0.3524  0.3319
 8992TIP3    H248392   4.097   0.762   1.465 -1.1092 -0.0642 -0.7030
 8993TIP3   OH248393   4.020   4.621   3.173 -0.2975 -0.5892  0.1774
 8993TIP3    H148394   3.986   4.551   3.118 -4.2096  0.0076  1.5216
 8993TIP3    H248395   4.019   4.584   3.262 -0.9106  0.6450  0.7063
 8994TIP3   OH248396   5.625   6.231  11.634  0.2797 -0.1342 -0.1998
 8994TIP3    H148397   5.629   6.312  11.685 -0.2405 -0.2644  0.0498
 8994TIP3    H248398   5.714   6.196  11.639  0.4121  0.2215  0.0163
 8995TIP3   OH248399   4.000   1.273  15.776 -0.0171  0.8306 -0.4060
 8995TIP3    H148400   3.936   1.203  15.762  0.6040 -0.0580  0.9357
 8995TIP3    H248401   4.084   1.234  15.749  0.1132  1.6434 -1.2144
 8996TIP3   OH248402   5.950   6.180  13.501  0.2378 -0.6879 -0.3632
 8996TIP3    H148403   5.982   6.134  13.423  0.2406  0.3589 -1.0074
 8996TIP3    H248404   5.882   6.238  13.467  0.1431 -0.3192  0.4496
 8997TIP3   OH248405   1.424   3.451  13.777  0.4201  0.5706  0.2469
 8997TIP3    H148406   1.456   3.533  13.740 -3.7526  1.9865 -0.7803
 8997TIP3    H248407   1.372   3.412  13.707 -0.0074 -1.5451  1.6596
 8998TIP3   OH248408   5.360   6.405   3.086  0.0257  0.1461 -0.7058
 8998TIP3    H148409   5.366   6.460   3.008  0.2974 -0.7115 -1.3007
 8998TIP3    H248410   5.276   6.360   3.077  0.0347  0.0828 -0.4833
 8999TIP3   OH248411   3.203   2.586  14.532 -0.0918  0.0452  0.4055
 8999TIP3    H148412   3.122   2.629  14.556  0.6174  1.0664  1.0548
 8999TIP3    H248413   3.263   2.657  14.510  0.3624 -0.7200 -1.0223
 9000TIP3   OH248414   1.404   4.310  11.341  0.1701  0.3427  0.8185
 9000TIP3    H148415   1.382   4.337  11.430 -0.6992  0.7394  0.4925
 9000TIP3    H248416   1.482   4.362  11.319  0.7105 -0.1542  1.5336
 9001TIP3   OH248417   6.147   2.876   3.329  0.2500  0.2009 -0.0484
 9001TIP3    H148418   6.098   2.953   3.358  2.5414  1.1799  1.5076
 9001TIP3    H248419   6.156   2.887   3.234 -0.5547  1.1760 -0.0261
 9002TIP3   OH248420   3.572   3.980  15.274  0.0623 -0.7961 -0.3091
 9002TIP3    H148421   3.556   3.886  15.281 -2.5151 -0.3741  0.6228
 9002TIP3    H248422   3.598   4.006  15.363 -0.4903 -0.4739 -0.2325
 9003TIP3   OH248423   0.937   6.796  15.161 -0.0202 -0.5626 -0.0829
 9003TIP3    H148424   0.930   6.720  15.219 -2.0054  0.1685  0.6971
 9003TIP3    H248425   0.975   6.864  15.216 -0.9020 -0.1790  0.0588
 9004TIP3   OH248426   5.077   4.052  15.558 -0.6321 -0.4341 -0.0715
 9004TIP3    H148427   5.117   4.025  15.640 -0.1106  1.9247  0.5282
 9004TIP3    H248428   5.148   4.044  15.493  0.1189  1.2358  0.4814
 9005TIP3   OH248429   0.178   2.518   0.595 -0.0324 -0.7569 -0.2341
 9005TIP3    H148430   0.111   2.466   0.638  1.1469 -2.2705 -0.1358
 9005TIP3    H248431   0.245   2.454   0.570  1.6304  0.7644  0.1680
 9006TIP3   OH248432   0.291   5.887   2.415 -0.2071 -0.6595  0.3103
 9006TIP3    H148433   0.284   5.972   2.373 -0.0048 -0.8069 -0.0296
 9006TIP3    H248434   0.226   5.833   2.371  0.0281 -0.8237  0.1587
 9007TIP3   OH248435   0.495   3.784   1.174 -0.3468 -1.0131 -0.5241
 9007TIP3    H148436   0.425   3.780   1.109 -1.8044 -0.5112  0.9383
 9007TIP3    H248437   0.568   3.735   1.135 -1.5874 -1.7501 -1.9934
 9008TIP3   OH248438   4.362   4.362  11.169  0.4721 -0.3492  0.6569
 9008TIP3    H148439   4.272   4.384  11.148  0.2869 -1.5504  0.0820
 9008TIP3    H248440   4.411   4.443  11.155 -0.5587  0.4041  1.3052
 9009TIP3   OH248441   4.400   1.053   4.123  0.2615  0.1993  0.0202
 9009TIP3    H148442   4.370   1.135   4.083 -0.1435 -0.3321 -0.7833
 9009TIP3    H248443   4.380   0.986   4.058  0.0039 -0.6260  0.9405
 9010TIP3   OH248444   1.086   2.514   3.099 -0.0408  0.4327  0.7578
 9010TIP3    H148445   1.129   2.583   3.047  0.6265 -0.2267  0.4236
 9010TIP3    H248446   1.008   2.491   3.048  0.4693 -0.0232  0.1870
 9011TIP3   OH248447   0.866   4.392   4.933  0.3813  0.8614  0.0102
 9011TIP3    H148448   0.795   4.333   4.910  0.4112  0.8459 -0.0420
 9011TIP3    H248449   0.824   4.478   4.942  0.2312  0.7196  0.7075
 9012TIP3   OH248450   5.732   6.427   0.177 -0.1807  0.0649  0.4283
 9012TIP3    H148451   5.690   6.477   0.108  0.2993  0.7592  0.6295
 9012TIP3    H248452   5.806   6.384   0.135 -0.1296  0.1584  0.4230
 9013TIP3   OH248453   6.569   0.401   0.241  0.2128  0.2186 -0.0859
 9013TIP3    H148454   6.527   0.457   0.307  0.2713 -1.1248  1.1499
 9013TIP3    H248455   6.496   0.361   0.194  0.1487  0.4167 -0.1522
 9014TIP3   OH248456   6.074   5.895   5.831 -0.9380  0.2108 -0.2931
 9014TIP3    H148457   6.156   5.873   5.877 -1.2291  0.2300  0.2452
 9014TIP3    H248458   6.030   5.810   5.820 -0.5490  0.1060 -1.1903
 9015TIP3   OH248459   5.814   6.653   1.430  0.3041  0.0343 -0.3669
 9015TIP3    H148460   5.828   6.621   1.519  0.9180  0.3408 -0.3490
 9015TIP3    H248461   5.744   6.598   1.395 -2.1793  1.8590  1.3507
 9016TIP3   OH248462   1.261   4.690  11.282  0.2876 -0.2963  0.5454
 9016TIP3    H148463   1.237   4.706  11.374 -3.4264 -0.3432 -0.2313
 9016TIP3    H248464   1.224   4.604  11.263  1.2863 -0.4277 -0.9411
 9017TIP3   OH248465   5.370   2.133   3.557  0.1099  0.4178 -0.0673
 9017TIP3    H148466   5.327   2.190   3.621  1.4813 -2.0601  3.3976
 9017TIP3    H248467   5.320   2.052   3.559  0.8965 -0.1328 -1.3296
 9018TIP3   OH248468   6.613   3.799  14.742 -0.2776  0.0863 -0.2482
 9018TIP3    H148469   6.571   3.727  14.790  2.1591 -1.1737  0.1657
 9018TIP3    H248470   6.543   3.837  14.689 -2.1747 -1.0509  1.3187
 9019TIP3   OH248471   2.096   1.313   0.545 -0.1905  0.2004  0.5483
 9019TIP3    H148472   2.063   1.384   0.490  0.6064  0.7342  0.7345
 9019TIP3    H248473   2.090   1.348   0.635  0.7676  0.2742  0.5903
 9020TIP3   OH248474   3.298   6.701  15.466 -0.3279 -0.1674  0.1646
 9020TIP3    H148475   3.322   6.693  15.558  0.0497  4.1268  0.6410
 9020TIP3    H248476   3.382   6.698  15.419 -0.5772 -3.2044 -0.2673
 9021TIP3   OH248477   5.737   6.178   1.032  0.3430 -0.1735 -0.1155
 9021TIP3    H148478   5.772   6.221   0.954 -0.2020  1.7006  0.6150
 9021TIP3    H248479   5.796   6.204   1.103 -0.2096 -0.3371  0.4168
 9022TIP3   OH248480   3.430   1.217   0.126  0.2658  0.4919 -0.5071
 9022TIP3    H148481   3.436   1.285   0.058  2.3493  0.0493 -0.8293
 9022TIP3    H248482   3.474   1.142   0.088 -0.8475 -0.6394  0.3642
 9023TIP3   OH248483   5.382   1.067   2.701  0.4374 -0.4342  0.0251
 9023TIP3    H148484   5.381   1.018   2.618 -0.7001 -0.6562  0.1464
 9023TIP3    H248485   5.382   0.998   2.768 -0.1317 -0.2735  0.1966
 9024TIP3   OH248486   0.093   2.664   2.454  0.5384 -0.2318 -0.0005
 9024TIP3    H148487   0.139   2.593   2.411  1.2462  0.5143 -0.5153
 9024TIP3    H248488   0.011   2.673   2.405  0.9259  0.0043 -0.6122
 9025TIP3   OH248489   1.420   0.527   6.442  0.1339 -0.1702  0.1581
 9025TIP3    H148490   1.371   0.450   6.472  0.2735 -0.3234 -0.0096
 9025TIP3    H248491   1.491   0.492   6.389  0.0229  0.0921 -0.1630
 9026TIP3   OH248492   5.161   5.102  15.555 -0.0399  0.6052 -0.3004
 9026TIP3    H148493   5.084   5.152  15.527 -1.2573  0.1233  1.9924
 9026TIP3    H248494   5.129   5.013  15.569  1.1894  0.1286 -0.3267
 9027TIP3   OH248495   3.599   0.889   1.029  0.1083 -0.1616  0.1402
 9027TIP3    H148496   3.521   0.889   1.084 -0.8314 -0.7894 -1.1429
 9027TIP3    H248497   3.580   0.953   0.960  1.7940  1.5760  1.1852
 9028TIP3   OH248498   5.110   2.598   1.341  0.0787  0.6859 -0.5359
 9028TIP3    H148499   5.097   2.589   1.436  0.5354 -2.2898 -0.6421
 9028TIP3    H248500   5.205   2.606   1.332 -0.0179  1.7203 -0.7410
 9029TIP3   OH248501   0.986   1.989   4.504  1.0105  0.0283 -0.0987
 9029TIP3    H148502   1.030   1.983   4.588 -0.4134  0.5406  0.7149
 9029TIP3    H248503   0.928   1.913   4.501  0.1906  0.6412 -0.0840
 9030TIP3   OH248504   1.025   2.266   3.706 -0.7534  0.2181 -0.4045
 9030TIP3    H148505   1.111   2.228   3.723 -0.8104  0.5716  0.8248
 9030TIP3    H248506   1.038   2.360   3.721 -1.0229  0.4572 -1.6405
 9031TIP3   OH248507   4.428   4.099  13.269 -0.1151 -0.4610 -0.0445
 9031TIP3    H148508   4.357   4.059  13.220 -0.4448 -0.7628  0.6611
 9031TIP3    H248509   4.401   4.190  13.280 -0.6624 -0.7023  0.6879
 9032TIP3   OH248510   3.512   2.188  15.946 -0.1517  0.9467 -0.3801
 9032TIP3    H148511   3.448   2.239  15.996 -0.3686  0.5584 -0.2530
 9032TIP3    H248512   3.470   2.173  15.861 -1.0891 -0.9804  0.3634
 9033TIP3   OH248513   4.349   2.698  15.759 -0.0231 -0.1780  0.5424
 9033TIP3    H148514   4.285   2.626  15.752  1.5689 -1.6006 -0.0826
 9033TIP3    H248515   4.426   2.666  15.713  2.0645  0.4558  3.3663
 9034TIP3   OH248516   6.328   2.955  11.144  0.5994 -0.0914 -0.0017
 9034TIP3    H148517   6.342   3.016  11.072 -0.0659  0.8810  0.6631
 9034TIP3    H248518   6.347   2.869  11.107  3.2757  0.6183 -0.5464
 9035TIP3   OH248519   1.466   0.370  11.603 -0.4471  0.1261  0.1247
 9035TIP3    H148520   1.407   0.366  11.527 -0.4145 -0.2595  0.1215
 9035TIP3    H248521   1.458   0.461  11.634 -0.0260  0.4448 -0.6796
 9036TIP3   OH248522   3.321   4.741   0.200  0.0998  0.2870 -0.0895
 9036TIP3    H148523   3.324   4.651   0.166  3.0607 -0.2164  1.1661
 9036TIP3    H248524   3.340   4.795   0.123 -0.3235 -0.2520 -0.5909
 9037TIP3   OH248525   4.007   6.187  12.857 -0.3832 -0.4226 -0.4001
 9037TIP3    H148526   3.915   6.176  12.882 -0.6066  0.3673 -0.8384
 9037TIP3    H248527   4.053   6.115  12.901 -0.9980 -0.0150  0.9591
 9038TIP3   OH248528   0.902   6.248  11.850 -0.5570  0.6059 -0.2394
 9038TIP3    H148529   0.901   6.157  11.878 -1.2453  0.8414  0.5305
 9038TIP3    H248530   0.995   6.272  11.848 -0.4346  0.2242  0.6614
 9039TIP3   OH248531   3.145   6.615   1.841  0.5804 -0.3609  0.7460
 9039TIP3    H148532   3.101   6.605   1.925  2.7038 -0.0445  1.9547
 9039TIP3    H248533   3.236   6.593   1.858  0.9883 -0.7352 -1.5941
 9040TIP3   OH248534   1.414   2.396  14.444  0.0825  0.8111  0.1825
 9040TIP3    H148535   1.414   2.429  14.354  1.2954  1.2930  0.3397
 9040TIP3    H248536   1.386   2.305  14.436  1.7391  0.3345 -0.9197
 9041TIP3   OH248537   0.904   4.467   6.126 -0.7155  0.1657 -0.2735
 9041TIP3    H148538   0.830   4.477   6.186 -0.9954  1.9085 -0.8710
 9041TIP3    H248539   0.864   4.467   6.038  0.0531  2.3852 -0.6673
 9042TIP3   OH248540   1.067   3.267  14.176 -0.1221  0.5236  0.0760
 9042TIP3    H148541   1.049   3.176  14.153 -0.3643  0.9666 -1.6192
 9042TIP3    H248542   1.148   3.288  14.129 -1.1199  1.7402 -1.1840
 9043TIP3   OH248543   0.610   6.531   3.999  0.2563 -0.1353 -0.1511
 9043TIP3    H148544   0.537   6.565   4.050  0.7961 -0.2125  0.6980
 9043TIP3    H248545   0.582   6.538   3.908 -0.5391  0.4565  0.1337
 9044TIP3   OH248546   0.012   2.842  17.146 -0.3887 -0.0672 -0.3357
 9044TIP3    H148547   0.093   2.837  17.198 -1.3427 -0.5959  1.1503
 9044TIP3    H248548   0.018   2.769  17.085 -1.0031 -1.9148  1.7068
 9045TIP3   OH248549   6.564   0.757  16.336 -0.1396 -0.3551 -0.4877
 9045TIP3    H148550   6.622   0.818  16.290 -0.6165 -0.1589 -0.8374
 9045TIP3    H248551   6.603   0.671  16.321  0.0371 -0.2287 -0.7636
 9046TIP3   OH248552   6.259   3.863  10.936 -0.5488  0.2785 -0.1865
 9046TIP3    H148553   6.239   3.773  10.910  0.8618  0.2398 -1.2031
 9046TIP3    H248554   6.256   3.861  11.032 -1.3042 -0.6475 -0.2065
 9047TIP3   OH248555   3.086   2.501   1.222 -0.0589 -0.3578  0.0100
 9047TIP3    H148556   2.996   2.495   1.191 -0.3700  0.6323  0.6854
 9047TIP3    H248557   3.084   2.465   1.311 -0.2582  1.6336  0.8585
 9048TIP3   OH248558   1.072   2.081  16.083  0.0609  0.2651 -0.2817
 9048TIP3    H148559   1.115   2.166  16.092 -0.8077  0.8352 -1.2654
 9048TIP3    H248560   1.023   2.070  16.164 -0.3778  1.0424 -0.4319
 9049TIP3   OH248561   1.984   6.412  13.598 -0.1328 -0.2589 -0.6708
 9049TIP3    H148562   1.903   6.447  13.636  0.4253 -1.2665  1.5975
 9049TIP3    H248563   2.012   6.344  13.660  1.6046 -1.0370 -2.2353
 9050TIP3   OH248564   0.672   5.399  11.547  0.3023  0.1299 -0.1179
 9050TIP3    H148565   0.745   5.418  11.606  0.2898 -1.5051  0.4823
 9050TIP3    H248566   0.664   5.303  11.549 -2.3208  0.2757  0.4056
 9051TIP3   OH248567   4.475   5.008   2.793  0.1321 -0.0454 -0.0908
 9051TIP3    H148568   4.424   4.966   2.724 -0.5105  1.1383 -0.3776
 9051TIP3    H248569   4.516   5.083   2.749 -0.2437  0.6896  0.7890
 9052TIP3   OH248570   1.306   2.812  10.367 -0.3552 -0.5149  0.2347
 9052TIP3    H148571   1.246   2.887  10.369  0.1845 -0.0770  0.3787
 9052TIP3    H248572   1.254   2.739  10.397 -0.7617 -0.0948  0.5649
 9053TIP3   OH248573   1.118   5.690   1.347 -0.0014  0.2410 -0.1328
 9053TIP3    H148574   1.052   5.746   1.305 -1.6061 -0.6231  1.1667
 9053TIP3    H248575   1.133   5.620   1.284 -0.8384  0.0771 -0.1565
 9054TIP3   OH248576   1.533   2.525   3.774  0.2314  0.0856  0.3760
 9054TIP3    H148577   1.602   2.559   3.831  1.0657 -1.8327  0.5743
 9054TIP3    H248578   1.491   2.604   3.738  1.4679  1.3088  1.4843
 9055TIP3   OH248579   0.494   6.797  10.961 -0.3584  0.0953 -0.1670
 9055TIP3    H148580   0.438   6.870  10.987 -0.8645  0.1267 -1.2968
 9055TIP3    H248581   0.566   6.838  10.913 -0.3196 -0.1014 -0.2762
 9056TIP3   OH248582   3.634   4.431   0.579  0.5416  0.1824  0.0727
 9056TIP3    H148583   3.677   4.453   0.496 -3.2458  2.6837 -1.4923
 9056TIP3    H248584   3.592   4.347   0.562 -0.3148  0.7406 -0.6203
 9057TIP3   OH248585   1.687   2.611  13.256  0.3422  0.0850  0.3722
 9057TIP3    H148586   1.710   2.704  13.255  0.1711  0.2242  3.0160
 9057TIP3    H248587   1.592   2.610  13.241  0.1256  0.4721  1.6091
 9058TIP3   OH248588   0.337   6.470  15.125  0.9955  0.2668  0.1226
 9058TIP3    H148589   0.419   6.498  15.165  0.6282 -0.3901  1.4047
 9058TIP3    H248590   0.277   6.458  15.199 -0.4294  1.2595 -0.8235
 9059TIP3   OH248591   2.079   2.562  13.344  0.3875  0.1820  0.0449
 9059TIP3    H148592   2.034   2.592  13.423  0.1936 -0.2280  0.0924
 9059TIP3    H248593   2.139   2.494  13.374  0.1116 -0.1732 -0.1977
 9060TIP3   OH248594   6.119   5.772  13.518 -0.3367  0.1677  0.3646
 9060TIP3    H148595   6.106   5.792  13.426 -0.4996 -1.0776  0.1076
 9060TIP3    H248596   6.031   5.759  13.553 -0.1750 -2.3638 -0.0225
 9061TIP3   OH248597   3.760   4.004   3.684  0.1464 -0.2286 -0.2209
 9061TIP3    H148598   3.794   3.961   3.762  0.0551 -1.1255 -0.6540
 9061TIP3    H248599   3.671   3.970   3.675 -0.0420  0.3110 -0.3898
 9062TIP3   OH248600   2.786   2.321  14.127  0.1068  0.1583  0.3972
 9062TIP3    H148601   2.765   2.414  14.132  1.3707  0.4219  1.3020
 9062TIP3    H248602   2.771   2.298  14.035  1.2304  1.6383 -0.2054
 9063TIP3   OH248603   2.189   0.544  12.209 -0.4883 -0.4967 -0.2600
 9063TIP3    H148604   2.273   0.583  12.235 -0.3645  0.2623 -1.7096
 9063TIP3    H248605   2.129   0.618  12.206 -1.3690 -1.1071  1.2426
 9064TIP3   OH248606   1.987   0.792   3.461 -0.4935 -0.2962 -0.7049
 9064TIP3    H148607   2.049   0.846   3.510 -0.3211 -0.2577 -0.9658
 9064TIP3    H248608   1.902   0.833   3.478 -0.4282 -0.2502 -0.4840
 9065TIP3   OH248609   0.785   4.086  15.298  0.6996  0.3124 -0.1535
 9065TIP3    H148610   0.760   4.013  15.356  0.1375  0.6532  0.0431
 9065TIP3    H248611   0.716   4.151  15.311  0.8130  0.5836 -0.8744
 9066TIP3   OH248612   0.977   1.820  13.991  0.1326  0.3916  0.4438
 9066TIP3    H148613   1.027   1.867  13.925  1.0827 -2.4001 -0.9616
 9066TIP3    H248614   0.891   1.805  13.951 -0.4578  1.5531  1.2128
 9067TIP3   OH248615   4.834   0.213  12.848  0.2007 -0.0514 -0.3046
 9067TIP3    H148616   4.919   0.219  12.891  0.3843 -0.9823 -0.5102
 9067TIP3    H248617   4.772   0.198  12.920  0.2620  0.1896 -0.1984
 9068TIP3   OH248618   5.197   3.693   1.201 -0.0209 -0.2883  0.0781
 9068TIP3    H148619   5.256   3.637   1.150 -0.4626 -1.0829  0.4193
 9068TIP3    H248620   5.120   3.638   1.217 -0.1584  0.1714  1.0438
 9069TIP3   OH248621   0.412   0.612   2.386  0.2113 -0.2161  0.9014
 9069TIP3    H148622   0.500   0.645   2.366  0.9331 -2.8547 -0.8300
 9069TIP3    H248623   0.372   0.599   2.300 -1.3307 -0.4403  1.6262
 9070TIP3   OH248624   3.643   0.028  14.190 -0.3578  0.5213 -0.3487
 9070TIP3    H148625   3.697   0.071  14.123  0.6102 -0.1495 -0.0249
 9070TIP3    H248626   3.678  -0.061  14.195 -1.1934  0.2176  0.2172
 9071TIP3   OH248627   5.296   2.391   3.014 -0.2141  0.1007 -0.9691
 9071TIP3    H148628   5.202   2.401   2.997 -0.5002 -0.1302  0.3991
 9071TIP3    H248629   5.333   2.368   2.929 -1.6033 -1.2028 -1.2650
 9072TIP3   OH248630   1.396   3.025  11.066  0.3186 -0.4634  0.0842
 9072TIP3    H148631   1.321   2.974  11.098  0.8037 -1.9366 -1.0319
 9072TIP3    H248632   1.407   2.998  10.975  1.0534  1.1290 -0.3235
 9073TIP3   OH248633   0.011   6.522  10.809 -0.2577 -0.1395  0.4962
 9073TIP3    H148634  -0.012   6.573  10.731 -1.0236 -0.4960  0.4842
 9073TIP3    H248635  -0.063   6.534  10.868  0.6665  0.7780  1.5131
 9074TIP3   OH248636   5.860   2.006  11.463 -0.9062 -0.0825 -0.3024
 9074TIP3    H148637   5.952   1.994  11.440 -0.9586 -1.3371  0.0386
 9074TIP3    H248638   5.823   2.058  11.392  0.2200  1.0761 -0.0691
 9075TIP3   OH248639   1.380   1.922  14.479  0.5136  0.2269  1.0666
 9075TIP3    H148640   1.346   1.854  14.422 -0.6595  2.0841 -0.6143
 9075TIP3    H248641   1.352   1.896  14.567 -2.3249 -0.1217  0.1554
 9076TIP3   OH248642   4.765   3.972  10.778 -0.0797 -0.0135  0.0986
 9076TIP3    H148643   4.857   3.995  10.788 -0.0336 -0.4114  0.6296
 9076TIP3    H248644   4.764   3.905  10.710 -0.1618  1.1463 -1.0848
 9077TIP3   OH248645   0.517   2.302   1.158  0.7793 -0.4824 -0.0887
 9077TIP3    H148646   0.451   2.267   1.098 -0.3986 -0.4751  1.1440
 9077TIP3    H248647   0.527   2.393   1.132 -0.5900 -0.1581  0.4131
 9078TIP3   OH248648   4.979   5.021  15.949 -0.2679  0.0535  0.4386
 9078TIP3    H148649   5.051   4.959  15.960  0.0617  0.5120  0.9269
 9078TIP3    H248650   4.913   4.973  15.898 -0.2829 -0.9079  1.3154
 9079TIP3   OH248651   2.461   3.961  16.849 -0.3730 -0.0802 -0.0690
 9079TIP3    H148652   2.480   4.054  16.864 -0.2938  0.1763 -1.6507
 9079TIP3    H248653   2.467   3.950  16.755 -0.5266 -1.6782  0.0842
 9080TIP3   OH248654   5.512   5.441  11.893  0.2754  0.2904 -0.3293
 9080TIP3    H148655   5.490   5.501  11.821  0.1920  2.7532  1.5929
 9080TIP3    H248656   5.517   5.355  11.852 -2.1334  1.1920 -2.8592
 9081TIP3   OH248657   5.280   0.804  16.317 -0.0200  0.3100  0.5885
 9081TIP3    H148658   5.262   0.740  16.386 -2.1060  2.1046  1.8564
 9081TIP3    H248659   5.375   0.808  16.311  0.3267  0.9363  4.3038
 9082TIP3   OH248660   1.625   5.483  14.717 -0.3457  0.1096  0.2934
 9082TIP3    H148661   1.683   5.500  14.643 -1.0125 -2.7694 -1.0247
 9082TIP3    H248662   1.563   5.555  14.716 -0.2363  0.2355 -1.8875
 9083TIP3   OH248663   3.268   5.070  15.203 -0.2240  0.2907 -0.2881
 9083TIP3    H148664   3.331   5.042  15.269 -0.1914  1.5453  0.2354
 9083TIP3    H248665   3.240   4.988  15.160  0.6153 -0.4212  0.4861
 9084TIP3   OH248666   3.801   0.652  12.512  0.3174 -0.1258 -0.7915
 9084TIP3    H148667   3.773   0.565  12.483  0.3439  0.2042 -1.8592
 9084TIP3    H248668   3.730   0.710  12.485  0.4042  0.2201 -0.2870
 9085TIP3   OH248669   4.251   6.237   3.113  0.2775 -0.4583 -0.2243
 9085TIP3    H148670   4.182   6.299   3.139 -0.9914 -1.9112  0.0689
 9085TIP3    H248671   4.313   6.238   3.186  0.1551  0.2957 -0.1245
 9086TIP3   OH248672   5.263   3.762   2.578  0.4209  0.6356  0.2366
 9086TIP3    H148673   5.305   3.680   2.554 -1.0507  0.4490 -1.9972
 9086TIP3    H248674   5.189   3.737   2.634 -0.3517  0.3403 -0.8842
 9087TIP3   OH248675   5.882   0.373   1.784 -0.3283 -0.0093  0.4037
 9087TIP3    H148676   5.803   0.426   1.795 -0.2778 -0.1044  1.3261
 9087TIP3    H248677   5.941   0.428   1.734 -0.9297  0.1144 -0.1887
 9088TIP3   OH248678   3.896   3.823   5.979 -0.2064  0.3598  0.1057
 9088TIP3    H148679   3.910   3.867   6.063 -1.1404 -0.1072  0.5207
 9088TIP3    H248680   3.820   3.766   5.994 -0.1375 -0.0303 -0.9420
 9089TIP3   OH248681   2.867   0.651   4.980 -0.0232 -0.1435 -0.3763
 9089TIP3    H148682   2.834   0.733   4.943  1.1576 -0.1348 -1.4835
 9089TIP3    H248683   2.789   0.600   4.999 -0.7495  0.8994 -0.4705
 9090TIP3   OH248684   3.534   3.038   1.027  0.2248  0.5803 -0.0702
 9090TIP3    H148685   3.449   3.052   0.985  0.9623 -0.3230 -1.9900
 9090TIP3    H248686   3.596   3.036   0.954  1.4134 -2.5310  0.8740
 9091TIP3   OH248687   3.819   2.501  14.859  0.8276  0.1515 -0.1813
 9091TIP3    H148688   3.841   2.462  14.944  1.5538 -0.4850 -0.6508
 9091TIP3    H248689   3.898   2.548  14.833  0.4560  0.7211 -0.3078
 9092TIP3   OH248690   1.013   1.602  16.179  0.6638 -0.3485 -0.0933
 9092TIP3    H148691   1.024   1.533  16.244  4.1565 -0.0663 -0.1588
 9092TIP3    H248692   1.001   1.555  16.096 -1.1459 -0.7402  0.3533
 9093TIP3   OH248693   3.447   6.332  13.016 -0.7846 -0.1969  0.2008
 9093TIP3    H148694   3.541   6.340  13.031 -0.6360  0.6271 -1.0126
 9093TIP3    H248695   3.423   6.249  13.057  0.6731 -0.9279 -0.3613
 9094TIP3   OH248696   1.706   0.921  12.095 -0.2029 -0.3316  0.1776
 9094TIP3    H148697   1.642   0.860  12.058  0.6981 -2.4310  1.9011
 9094TIP3    H248698   1.681   0.928  12.187  0.5914  0.8007  0.3233
 9095TIP3   OH248699   0.115   4.068   5.339 -0.0228 -0.3460  0.2214
 9095TIP3    H148700   0.111   4.005   5.267  2.4473  1.3981 -1.6261
 9095TIP3    H248701   0.114   4.014   5.418  1.6179 -2.7165 -1.2457
 9096TIP3   OH248702   0.209   6.080   4.891  0.4097  0.8804 -0.5656
 9096TIP3    H148703   0.169   6.047   4.811  1.5537  1.6683 -1.5002
 9096TIP3    H248704   0.245   6.002   4.934 -1.1572  0.3110 -0.2406
 9097TIP3   OH248705   2.778   0.814  14.884  0.3276 -0.2604 -0.5585
 9097TIP3    H148706   2.858   0.777  14.920  0.1315 -1.7862 -1.6026
 9097TIP3    H248707   2.799   0.906  14.869  1.1720 -0.1378  1.1554
 9098TIP3   OH248708   6.010   1.773  10.867 -0.1076 -0.0914 -0.1681
 9098TIP3    H148709   5.976   1.696  10.912  0.8353  0.0991  0.9368
 9098TIP3    H248710   5.946   1.792  10.799 -0.2020 -2.0330 -0.6797
 9099TIP3   OH248711   2.598   2.465   6.451  0.2741 -0.4225 -0.2613
 9099TIP3    H148712   2.629   2.522   6.521 -0.1183  1.2968 -1.4205
 9099TIP3    H248713   2.678   2.428   6.414  0.6060  0.0200 -0.0013
 9100TIP3   OH248714   3.782   4.329   3.394  0.0173 -0.2830 -0.0190
 9100TIP3    H148715   3.727   4.391   3.443 -0.4189 -1.9252  1.7146
 9100TIP3    H248716   3.833   4.284   3.462 -0.1583 -2.2470 -1.1241
 9101TIP3   OH248717   1.524   2.219  14.918  0.4414  0.0563 -0.1353
 9101TIP3    H148718   1.507   2.125  14.925 -0.0375 -0.0928 -2.3874
 9101TIP3    H248719   1.564   2.243  15.001  1.3070 -2.3041  0.2055
 9102TIP3   OH248720   4.617   5.804   3.569  0.3264  0.0224  0.1184
 9102TIP3    H148721   4.696   5.852   3.595  0.1566  0.8361 -0.8220
 9102TIP3    H248722   4.628   5.717   3.607  0.7071  0.7405  1.7632
 9103TIP3   OH248723   3.618   2.099   1.786  0.4915  0.2182 -0.0420
 9103TIP3    H148724   3.537   2.148   1.769 -0.3195 -1.1139 -0.1723
 9103TIP3    H248725   3.661   2.147   1.857  1.1428  2.6912 -1.9568
 9104TIP3   OH248726   4.159   3.233  15.756 -0.4572 -0.0790  0.4425
 9104TIP3    H148727   4.196   3.145  15.760 -1.6501 -0.7283 -1.3645
 9104TIP3    H248728   4.065   3.219  15.749 -0.7351  1.3835  1.0064
 9105TIP3   OH248729   3.345   5.316  14.153 -0.0334  0.1243  0.2278
 9105TIP3    H148730   3.421   5.365  14.185  0.6318 -1.1765  0.7299
 9105TIP3    H248731   3.272   5.377  14.160  0.8993  1.3019  0.0568
 9106TIP3   OH248732   6.090   6.785   0.870 -0.5706 -0.3650  0.0277
 9106TIP3    H148733   6.138   6.746   0.942 -1.1505 -0.1936  0.5119
 9106TIP3    H248734   6.042   6.713   0.830  0.2602 -0.5852 -0.6156
 9107TIP3   OH248735   4.679   1.944  11.796  0.1965  0.1451 -0.3469
 9107TIP3    H148736   4.679   1.852  11.823 -0.3137  0.2323 -0.0339
 9107TIP3    H248737   4.611   1.948  11.728  1.0546  0.0485 -1.2406
 9108TIP3   OH248738   6.552   2.904   0.240 -0.2140  0.5629 -0.4727
 9108TIP3    H148739   6.531   2.973   0.176 -0.8397 -0.4961 -1.4389
 9108TIP3    H248740   6.528   2.823   0.196 -0.6237 -0.2007  1.1094
 9109TIP3   OH248741   6.084   4.602  13.576 -0.5474  0.1749 -0.4945
 9109TIP3    H148742   6.100   4.521  13.625  1.2381  0.7838 -0.0007
 9109TIP3    H248743   6.101   4.672  13.638 -2.2389  0.9650 -0.8742
 9110TIP3   OH248744   5.956   2.764  12.275  0.6043  0.2808 -0.6337
 9110TIP3    H148745   5.914   2.780  12.360  0.6477  1.2644 -0.7967
 9110TIP3    H248746   6.037   2.815  12.278  2.0135 -1.8516 -0.1877
 9111TIP3   OH248747   6.787   4.224  17.138  0.3191  0.2334  0.2435
 9111TIP3    H148748   6.871   4.250  17.176  1.7440 -0.2924 -2.3153
 9111TIP3    H248749   6.724   4.284  17.178  2.3105  2.4967  0.2433
 9112TIP3   OH248750   4.349   3.850  10.529  0.8747  0.3338  0.0733
 9112TIP3    H148751   4.331   3.900  10.449  1.0701 -1.5890 -1.2470
 9112TIP3    H248752   4.265   3.809  10.551  1.1344 -0.2265  0.0432
 9113TIP3   OH248753   4.827   2.812   5.613 -0.1025  0.4625  0.1654
 9113TIP3    H148754   4.816   2.726   5.572  3.1125  0.7831 -1.7038
 9113TIP3    H248755   4.750   2.862   5.585 -1.5351 -1.4840  0.4908
 9114TIP3   OH248756   0.801   1.352  13.519 -0.5735 -0.5100 -0.0144
 9114TIP3    H148757   0.832   1.352  13.428  1.5119  1.5995  0.5895
 9114TIP3    H248758   0.807   1.261  13.547  3.8910 -0.5868 -0.4849
 9115TIP3   OH248759   0.198   5.838  12.688 -0.7010  0.8664  0.0616
 9115TIP3    H148760   0.267   5.900  12.665  0.3758 -0.3071  0.0488
 9115TIP3    H248761   0.187   5.783  12.611 -0.1799 -0.2698  0.7774
 9116TIP3   OH248762   3.957   1.145  14.925  0.5208  0.3748  0.2334
 9116TIP3    H148763   4.049   1.121  14.939  0.2484 -1.0130 -0.2594
 9116TIP3    H248764   3.942   1.216  14.988  1.6747  0.0195  0.9547
 9117TIP3   OH248765   6.421   0.280   6.513  0.1638 -0.0760 -0.6286
 9117TIP3    H148766   6.488   0.277   6.445  0.2126 -0.0685 -0.5799
 9117TIP3    H248767   6.467   0.255   6.594  0.0818 -0.1935 -0.6167
 9118TIP3   OH248768   5.165   2.909   0.549  0.3161  0.2989  0.1640
 9118TIP3    H148769   5.241   2.853   0.565  1.4843  1.9997  0.8201
 9118TIP3    H248770   5.102   2.883   0.616  1.0252  0.0871  0.7605
 9119TIP3   OH248771   6.437   2.827   3.768 -0.2757 -0.3808  0.4737
 9119TIP3    H148772   6.469   2.867   3.687  0.3521 -0.6121  0.5988
 9119TIP3    H248773   6.342   2.828   3.759 -0.2328  0.1299 -0.0073
 9120TIP3   OH248774   6.702   2.570   1.023 -0.5121  0.7232  0.8621
 9120TIP3    H148775   6.755   2.622   0.962 -1.1189  1.1890  0.7177
 9120TIP3    H248776   6.622   2.550   0.974 -0.1726 -0.6163  0.8149
 9121TIP3   OH248777   6.801   0.037  13.121  0.1057 -0.1390  0.1331
 9121TIP3    H148778   6.847   0.029  13.204  0.7312 -0.9998 -0.2754
 9121TIP3    H248779   6.850  -0.019  13.061 -1.1969 -0.7118 -0.4476
 9122TIP3   OH248780   4.003   2.951   3.987  0.2855 -0.0289 -0.0832
 9122TIP3    H148781   3.944   3.013   4.029  1.0827  0.1252  0.8402
 9122TIP3    H248782   3.945   2.889   3.943 -0.6187 -0.5638  1.7643
 9123TIP3   OH248783   2.112   1.680   0.779 -0.0483  0.1585 -0.6649
 9123TIP3    H148784   2.202   1.686   0.811  0.5441 -0.0854 -2.2074
 9123TIP3    H248785   2.089   1.588   0.789 -0.6308  0.4277  0.9149
 9124TIP3   OH248786   4.317   1.939   1.608  0.0005 -0.6197 -0.0540
 9124TIP3    H148787   4.303   1.963   1.516  2.0665 -2.3428 -0.9027
 9124TIP3    H248788   4.251   1.872   1.626 -0.8538  0.2058 -0.0386
 9125TIP3   OH248789   6.341   2.486   1.248  0.2358  0.2147  0.1506
 9125TIP3    H148790   6.350   2.516   1.339 -2.2042 -0.5219  0.7128
 9125TIP3    H248791   6.422   2.439   1.231  0.8725  0.6008  1.8628
 9126TIP3   OH248792   5.508   1.644  14.939  0.3189 -0.0220 -0.1044
 9126TIP3    H148793   5.456   1.635  15.019 -0.8012 -0.0288 -0.8043
 9126TIP3    H248794   5.525   1.554  14.911 -0.3219 -0.0230 -0.5078
 9127TIP3   OH248795   6.586   3.746  16.529  0.0819 -0.1159  0.0012
 9127TIP3    H148796   6.572   3.829  16.575 -0.5531 -0.1748 -0.0842
 9127TIP3    H248797   6.498   3.716  16.506  0.2697 -1.0967  0.5150
 9128TIP3   OH248798   5.349   3.818   1.950  0.0795  0.2687 -0.4098
 9128TIP3    H148799   5.371   3.883   1.882  0.4494 -3.2540 -4.0331
 9128TIP3    H248800   5.432   3.801   1.994  0.3236  1.0675 -0.5383
 9129TIP3   OH248801   3.356   5.214   1.187 -0.1032 -0.1237 -0.0818
 9129TIP3    H148802   3.389   5.156   1.256 -0.8761  0.1546  0.5254
 9129TIP3    H248803   3.322   5.290   1.233 -0.6909  0.0349 -0.7625
 9130TIP3   OH248804   4.328   3.729  16.631  0.2410 -0.2924 -0.3631
 9130TIP3    H148805   4.363   3.658  16.685  0.4108 -1.2918 -1.7298
 9130TIP3    H248806   4.387   3.803  16.647  1.5949 -1.2337 -0.7948
 9131TIP3   OH248807   2.312   2.822  13.840  0.8379  0.5931 -0.8156
 9131TIP3    H148808   2.371   2.894  13.862  1.9190  0.2690 -2.5408
 9131TIP3    H248809   2.348   2.747  13.887 -0.8351  1.2566  1.7836
 9132TIP3   OH248810   0.832   6.715   1.339 -0.4181  0.4645  0.0052
 9132TIP3    H148811   0.849   6.809   1.348  2.8701  0.0662 -0.6998
 9132TIP3    H248812   0.846   6.680   1.427 -1.9684  0.6452  0.3383
 9133TIP3   OH248813   2.537   1.187   1.267 -0.3777 -0.1640 -0.4263
 9133TIP3    H148814   2.593   1.170   1.342  0.0903  0.0528 -0.7248
 9133TIP3    H248815   2.525   1.282   1.267  0.4979 -0.0384 -1.2393
 9134TIP3   OH248816   0.009   6.602  11.118 -0.1904  0.0735  0.1819
 9134TIP3    H148817   0.073   6.538  11.151 -0.6518 -0.6537 -0.2973
 9134TIP3    H248818  -0.066   6.549  11.091 -1.0037  0.9073  0.7161
 9135TIP3   OH248819   1.342   2.595  12.958  0.0387 -0.4262 -0.2307
 9135TIP3    H148820   1.292   2.656  12.904  1.4297  0.5820 -0.4220
 9135TIP3    H248821   1.320   2.509  12.924 -2.0627 -0.0940  0.1152
 9136TIP3   OH248822   3.761   2.878   1.106  0.1892 -0.0534  0.5429
 9136TIP3    H148823   3.833   2.920   1.059 -0.0636 -0.9300 -0.6590
 9136TIP3    H248824   3.710   2.951   1.141 -0.4427  0.7081 -1.7900
 9137TIP3   OH248825   2.177   2.299   4.425  0.4731 -0.6708  0.3417
 9137TIP3    H148826   2.214   2.315   4.338  0.1976 -2.3666 -0.1218
 9137TIP3    H248827   2.143   2.384   4.453 -1.5248 -0.5333 -2.2045
 9138TIP3   OH248828   5.661   0.709   1.347 -0.0462 -0.3597  0.0223
 9138TIP3    H148829   5.735   0.767   1.365  0.4549 -0.5483 -1.2789
 9138TIP3    H248830   5.596   0.766   1.306 -0.8573 -0.0918  1.5905
 9139TIP3   OH248831   5.842   2.555  12.097 -0.2286  0.3684  0.4420
 9139TIP3    H148832   5.883   2.618  12.156  2.3111  0.4361 -1.2821
 9139TIP3    H248833   5.854   2.591  12.009 -2.1640 -0.6881 -0.3437
 9140TIP3   OH248834   5.184   5.644   0.857 -0.0826  0.2009  0.3684
 9140TIP3    H148835   5.140   5.679   0.934  1.1543 -0.0688  1.2190
 9140TIP3    H248836   5.234   5.719   0.823 -0.8482  0.3981 -0.3604
 9141TIP3   OH248837   3.939   4.687  14.122 -0.2655  0.0151 -0.2126
 9141TIP3    H148838   3.871   4.702  14.187 -0.3400  1.1404 -0.5378
 9141TIP3    H248839   3.893   4.653  14.045 -0.2269 -0.9188  0.1622
 9142TIP3   OH248840   6.316   0.853   1.085 -0.1706  0.4228  0.5406
 9142TIP3    H148841   6.313   0.919   1.154 -2.3255  2.2279 -1.1136
 9142TIP3    H248842   6.227   0.819   1.079  0.7527 -2.3239  0.9316
 9143TIP3   OH248843   4.690   4.033  12.352 -0.1254 -0.0627  0.0210
 9143TIP3    H148844   4.765   3.999  12.401 -0.6884 -1.5364 -0.0629
 9143TIP3    H248845   4.670   4.117  12.393  1.1711  0.0532  0.4519
 9144TIP3   OH248846   1.567   0.326   0.771 -0.1140 -0.0893 -0.7044
 9144TIP3    H148847   1.564   0.286   0.684  0.6309  0.5613 -1.0341
 9144TIP3    H248848   1.537   0.256   0.830 -3.4761  0.2881 -1.7250
 9145TIP3   OH248849   1.972   5.318  16.201  0.1634 -0.3091 -0.3006
 9145TIP3    H148850   1.994   5.323  16.294 -0.4743 -0.9621 -0.0976
 9145TIP3    H248851   2.022   5.242  16.169  1.3876  0.6842 -0.8032
 9146TIP3   OH248852   0.965   5.488   4.724  0.5704 -0.5267  0.3063
 9146TIP3    H148853   1.044   5.461   4.677  0.6424  0.3484 -0.0878
 9146TIP3    H248854   0.904   5.415   4.710  0.6307 -0.3470 -1.0691
 9147TIP3   OH248855   6.626   0.338   0.596  0.1028 -0.4611  0.1163
 9147TIP3    H148856   6.662   0.252   0.577  1.1502 -0.5997  2.3759
 9147TIP3    H248857   6.562   0.324   0.665  1.0244  0.6220  1.2632
 9148TIP3   OH248858   4.412   5.211  13.085  0.2682  0.2655 -0.5780
 9148TIP3    H148859   4.347   5.257  13.033 -0.7242 -1.3636 -0.8736
 9148TIP3    H248860   4.361   5.165  13.152  1.1341 -0.7858 -0.6124
 9149TIP3   OH248861   0.756   3.923  16.330  0.0060 -0.1298 -0.3396
 9149TIP3    H148862   0.813   3.876  16.269 -0.4631  0.8456 -1.5887
 9149TIP3    H248863   0.669   3.917  16.290 -0.1506  1.3275 -0.2619
 9150TIP3   OH248864   4.332   0.465   2.113  0.6949  0.0426  0.1939
 9150TIP3    H148865   4.302   0.547   2.154  2.5242  0.0567  1.6589
 9150TIP3    H248866   4.368   0.414   2.186  1.3550 -1.2463 -0.9895
 9151TIP3   OH248867   3.252   0.125  11.314  0.0707 -0.1248  0.0681
 9151TIP3    H148868   3.172   0.177  11.319  0.4655  0.4731  0.3239
 9151TIP3    H248869   3.277   0.129  11.221  0.1985  0.3094  0.1167
 9152TIP3   OH248870   2.870   2.112  10.880  0.4255 -0.2430  0.3054
 9152TIP3    H148871   2.880   2.027  10.837 -3.1148 -0.6547 -0.0327
 9152TIP3    H248872   2.801   2.155  10.831  1.1780  2.3078  1.3278
 9153TIP3   OH248873   2.581   0.766  10.906  0.1681  0.1308 -0.0776
 9153TIP3    H148874   2.570   0.728  10.819 -0.0603 -0.2081  0.0988
 9153TIP3    H248875   2.675   0.779  10.915  0.1449  0.7817 -0.6322
 9154TIP3   OH248876   3.866   0.323  15.777  0.3809 -0.0961  0.1265
 9154TIP3    H148877   3.830   0.238  15.754 -0.9774  0.0794  1.4724
 9154TIP3    H248878   3.904   0.311  15.864 -1.4974  1.0610  1.1805
 9155TIP3   OH248879   5.677   2.626  16.396 -0.2244  0.7316  0.0028
 9155TIP3    H148880   5.746   2.661  16.452 -0.7613  0.4491  0.8535
 9155TIP3    H248881   5.613   2.697  16.392 -0.2447  0.7036 -0.1518
 9156TIP3   OH248882   1.257   0.412   0.793 -0.1861  0.0732 -0.2838
 9156TIP3    H148883   1.293   0.484   0.845  0.8974 -1.0466  0.5875
 9156TIP3    H248884   1.189   0.374   0.848  0.7240 -0.8951  0.2144
 9157TIP3   OH248885   1.482   3.923   4.359  0.4637 -0.0123 -0.2840
 9157TIP3    H148886   1.470   4.000   4.415 -1.1182 -2.1910  2.6975
 9157TIP3    H248887   1.567   3.888   4.385 -0.4754 -1.2878  1.2744
 9158TIP3   OH248888   1.975   4.853   5.855 -0.4958 -0.2670 -0.2088
 9158TIP3    H148889   1.899   4.827   5.907 -1.0792  3.7918  1.3201
 9158TIP3    H248890   2.049   4.845   5.916 -0.1237 -1.4749 -0.7971
 9159TIP3   OH248891   5.963   2.672  14.538 -0.5335  0.3501  0.3389
 9159TIP3    H148892   5.929   2.696  14.452  1.2600 -0.6292 -0.6856
 9159TIP3    H248893   6.058   2.669  14.527 -0.3818 -3.7435  1.2427
 9160TIP3   OH248894   6.184   0.180  14.694  0.1189 -0.0668  0.1704
 9160TIP3    H148895   6.234   0.187  14.612  0.0140  0.8726  0.1712
 9160TIP3    H248896   6.227   0.109  14.742  1.0329  0.2737 -0.1247
 9161TIP3   OH248897   1.843   4.145   2.698  0.3590  0.1294 -0.3627
 9161TIP3    H148898   1.767   4.103   2.656 -0.8320 -0.0355  1.7996
 9161TIP3    H248899   1.807   4.189   2.774  2.3112  1.0434  0.0955
 9162TIP3   OH248900   6.251   3.814   5.838  0.0207  0.0433 -0.4571
 9162TIP3    H148901   6.186   3.850   5.778 -1.0405 -1.4007 -0.2326
 9162TIP3    H248902   6.219   3.837   5.925 -1.4420 -2.4661 -0.2284
 9163TIP3   OH248903   2.625   4.638   1.969 -0.0859 -0.1216 -0.5297
 9163TIP3    H148904   2.699   4.657   1.911 -0.3382  0.6718 -0.5907
 9163TIP3    H248905   2.549   4.637   1.912  0.0658 -3.0541 -0.8647
 9164TIP3   OH248906   3.755   1.914  16.250 -0.2369  0.0925 -0.1152
 9164TIP3    H148907   3.759   1.972  16.326 -2.1940 -0.5987  0.5762
 9164TIP3    H248908   3.763   1.972  16.175  1.3835  0.8347  0.5838
 9165TIP3   OH248909   3.642   3.153   3.741  0.5670  0.1180  0.3542
 9165TIP3    H148910   3.591   3.203   3.677  1.9964  3.7457  1.8080
 9165TIP3    H248911   3.717   3.120   3.690  0.6198  1.1782 -0.2869
 9166TIP3   OH248912   5.394   3.750   5.491 -0.3640 -0.2491  0.4244
 9166TIP3    H148913   5.362   3.743   5.581 -1.0694 -1.8901  0.0829
 9166TIP3    H248914   5.475   3.801   5.498  0.1282 -1.1968  2.1247
 9167TIP3   OH248915   6.442   6.073   0.618 -0.5389 -0.0467 -0.2145
 9167TIP3    H148916   6.502   6.099   0.548 -1.1265  0.8953 -0.3747
 9167TIP3    H248917   6.440   5.977   0.613 -0.8807  0.0233 -1.7293
 9168TIP3   OH248918   4.034   2.730   6.139  0.6127 -0.1619  0.0145
 9168TIP3    H148919   4.007   2.638   6.139  1.5926 -0.4649  0.4478
 9168TIP3    H248920   3.969   2.773   6.195  0.0486 -0.5523 -0.3255
 9169TIP3   OH248921   5.862   0.322   2.926 -0.1012 -0.1218  0.4508
 9169TIP3    H148922   5.843   0.378   2.851 -0.3592 -1.3909 -0.4502
 9169TIP3    H248923   5.932   0.368   2.973 -0.0832  0.7904 -0.4398
 9170TIP3   OH248924   1.445   3.828   1.917  0.7806 -0.0540 -0.5271
 9170TIP3    H148925   1.411   3.912   1.946  1.7733  0.1912 -0.0503
 9170TIP3    H248926   1.520   3.850   1.861  0.2126 -0.5873 -1.5249
 9171TIP3   OH248927   6.371   1.151  12.649 -0.6619 -0.4888  0.6629
 9171TIP3    H148928   6.414   1.231  12.681 -0.1627 -0.1161 -0.8853
 9171TIP3    H248929   6.280   1.160  12.679 -1.0225  1.4723 -0.8117
 9172TIP3   OH248930   3.726   0.566  11.007  0.6799  0.5948 -0.1175
 9172TIP3    H148931   3.735   0.649  11.055 -0.2556 -0.3583  1.8005
 9172TIP3    H248932   3.783   0.505  11.054  0.0878 -0.2573 -0.4839
 9173TIP3   OH248933   1.050   1.872  12.199 -1.0144  0.2921  0.2775
 9173TIP3    H148934   1.010   1.919  12.126  0.3190 -0.4262 -0.9561
 9173TIP3    H248935   0.975   1.841  12.251 -1.9974  0.6168 -0.8975
 9174TIP3   OH248936   4.722   1.508  13.468  0.0600 -0.0976  0.4008
 9174TIP3    H148937   4.696   1.457  13.545 -0.6638 -0.8717 -0.3273
 9174TIP3    H248938   4.751   1.442  13.405  1.3091  0.5723  0.2364
 9175TIP3   OH248939   5.354   2.743   5.785  0.1092  0.3455 -0.2400
 9175TIP3    H148940   5.402   2.806   5.840 -0.5813  0.1755  0.5719
 9175TIP3    H248941   5.275   2.791   5.759 -0.5388 -0.2547  0.5826
 9176TIP3   OH248942   5.421   0.187  14.607  0.2670 -0.6230 -0.0488
 9176TIP3    H148943   5.382   0.261  14.653 -0.6217 -1.1826  0.1302
 9176TIP3    H248944   5.393   0.197  14.517  0.9605 -0.2179 -0.2274
 9177TIP3   OH248945   0.442   3.231  14.662  0.3481  0.8793 -0.7167
 9177TIP3    H148946   0.363   3.256  14.710  0.7059  0.1101  0.3122
 9177TIP3    H248947   0.414   3.158  14.607  0.0576  1.4266 -1.3062
 9178TIP3   OH248948   1.529   0.873   4.845 -0.2504  0.3662  0.2078
 9178TIP3    H148949   1.475   0.943   4.807  1.4024  0.6083 -1.9022
 9178TIP3    H248950   1.569   0.913   4.922 -0.4780  1.2582 -0.1231
 9179TIP3   OH248951   2.175   0.970  13.872 -0.1085  0.0634 -0.7110
 9179TIP3    H148952   2.192   1.047  13.818  1.8643  2.0407  2.3961
 9179TIP3    H248953   2.256   0.958  13.923 -1.3387 -2.4019  0.8762
 9180TIP3   OH248954   2.117   3.241  15.885  0.0531  0.2049  0.5850
 9180TIP3    H148955   2.116   3.196  15.801 -0.3748 -2.7515  2.0164
 9180TIP3    H248956   2.025   3.249  15.910  0.1879  0.6297  0.9671
 9181TIP3   OH248957   2.852   2.384   1.899  0.6410  0.3219  0.7994
 9181TIP3    H148958   2.867   2.346   1.813  0.3411 -0.0742  0.9233
 9181TIP3    H248959   2.911   2.460   1.902  1.0546  0.0181  0.4601
 9182TIP3   OH248960   0.745   2.516   2.017 -0.3683  0.4080  0.0199
 9182TIP3    H148961   0.695   2.472   2.086  0.0768 -1.8898 -1.0338
 9182TIP3    H248962   0.723   2.468   1.938  0.4944  1.8779 -1.1512
 9183TIP3   OH248963   4.624   5.228   3.995 -0.4245 -0.3185 -0.4379
 9183TIP3    H148964   4.584   5.219   3.908  0.3055 -1.2173 -0.6966
 9183TIP3    H248965   4.663   5.316   3.994  0.1968 -0.5843 -1.2994
 9184TIP3   OH248966   3.137   3.408   4.300 -0.3052  0.2633  0.6405
 9184TIP3    H148967   3.206   3.375   4.358  0.6227 -0.7101 -0.9352
 9184TIP3    H248968   3.095   3.329   4.266 -2.3195  0.8341  1.6129
 9185TIP3   OH248969   6.617   5.482   4.660 -0.3857 -0.3848  0.0438
 9185TIP3    H148970   6.668   5.533   4.597 -0.3954  0.4291  0.6741
 9185TIP3    H248971   6.667   5.489   4.742 -2.3501  1.9695  1.1676
 9186TIP3   OH248972   0.657   1.922  10.521  0.0694 -0.0595  0.1057
 9186TIP3    H148973   0.601   1.899  10.595 -2.4943 -0.6329 -1.8748
 9186TIP3    H248974   0.611   1.890  10.444  2.6140  0.4771 -1.8083
 9187TIP3   OH248975   6.545   5.226   5.782 -0.1654  0.6367  0.7960
 9187TIP3    H148976   6.619   5.286   5.772  1.0842 -1.1624 -1.6909
 9187TIP3    H248977   6.585   5.141   5.802 -1.6832 -0.0641  1.0088
 9188TIP3   OH248978   3.603   6.335  15.436  0.2192  0.6310 -0.3639
 9188TIP3    H148979   3.652   6.253  15.433 -0.0692  0.2651  2.4766
 9188TIP3    H248980   3.670   6.403  15.425  0.8853  0.0700  0.1638
 9189TIP3   OH248981   2.542   3.631  11.475 -0.3249 -0.2046 -0.2917
 9189TIP3    H148982   2.608   3.687  11.435 -1.6734  1.1146 -0.7361
 9189TIP3    H248983   2.553   3.646  11.569 -1.3208  1.6681 -0.4184
 9190TIP3   OH248984   5.166   2.430  11.510 -0.3197  0.9323 -0.1300
 9190TIP3    H148985   5.260   2.412  11.509 -0.6182 -0.9311 -2.0341
 9190TIP3    H248986   5.159   2.524  11.492  1.1626  1.3345  1.2002
 9191TIP3   OH248987   3.643   4.482  12.284  0.1066 -0.0773 -0.0183
 9191TIP3    H148988   3.721   4.468  12.338  0.0881  0.8450  0.2642
 9191TIP3    H248989   3.656   4.423  12.209 -0.8959 -3.0131  1.9442
 9192TIP3   OH248990   0.338   0.506   2.742  0.3047  0.0291 -0.3832
 9192TIP3    H148991   0.345   0.428   2.687 -1.3916 -0.6237  0.2760
 9192TIP3    H248992   0.294   0.571   2.687  1.3615  0.4173 -0.7972
 9193TIP3   OH248993   5.401   2.788  12.079 -0.3090  0.2037 -0.1114
 9193TIP3    H148994   5.353   2.719  12.033  1.4668 -0.0287 -1.7926
 9193TIP3    H248995   5.420   2.853  12.010  0.9033  0.7409  0.6957
 9194TIP3   OH248996   5.128   6.697   3.273 -0.3058  0.4602 -0.1434
 9194TIP3    H148997   5.083   6.624   3.231 -0.4247  1.4364 -1.7901
 9194TIP3    H248998   5.059   6.758   3.298 -0.3420 -0.5483  2.5164
 9195TIP3   OH248999   4.534   6.139   5.837  0.0598  0.3031  0.2057
 9195TIP3    H149000   4.445   6.147   5.802  0.1292  1.4728  0.2602
 9195TIP3    H249001   4.539   6.205   5.906  0.8397 -0.0479  0.4974
 9196TIP3   OH249002   1.179   1.035  11.819  0.3914  0.4121  0.0901
 9196TIP3    H149003   1.269   1.069  11.823  0.5015  0.2721 -0.8909
 9196TIP3    H249004   1.141   1.058  11.904  1.7060 -0.5461  0.9790
 9197TIP3   OH249005   3.105   4.005  15.701  0.4490  0.1869 -0.4056
 9197TIP3    H149006   3.031   3.950  15.677  0.5144 -0.2138  0.2999
 9197TIP3    H249007   3.068   4.093  15.708  0.2765  0.1867 -1.1823
 9198TIP3   OH249008   0.232   4.272  16.603  0.4446 -0.8550 -0.4184
 9198TIP3    H149009   0.200   4.237  16.686 -0.3588  0.5352 -0.1009
 9198TIP3    H249010   0.171   4.344  16.582  2.6275  1.0977 -0.4477
 9199TIP3   OH249011   2.449   1.178  15.346  0.0444 -0.1139  0.2235
 9199TIP3    H149012   2.509   1.105  15.334  0.8371  0.6485 -0.5464
 9199TIP3    H249013   2.362   1.137  15.344  0.5162 -1.2741  1.7375
 9200TIP3   OH249014   3.751   3.349   2.432  0.0378 -0.7861 -0.0366
 9200TIP3    H149015   3.699   3.307   2.500  1.2527 -1.5791  0.4421
 9200TIP3    H249016   3.835   3.304   2.435  0.7429  0.4136 -0.8114
 9201TIP3   OH249017   5.326   3.448   2.361 -0.2081  0.0227 -0.4631
 9201TIP3    H149018   5.286   3.498   2.290 -0.7955  1.2221  0.6778
 9201TIP3    H249019   5.412   3.488   2.374 -1.2744  1.9239  1.5065
 9202TIP3   OH249020   2.611   0.933   0.370 -0.6928 -0.1345  0.1056
 9202TIP3    H149021   2.643   0.843   0.382 -0.9514 -0.1275  0.9367
 9202TIP3    H249022   2.517   0.923   0.359 -0.9790  0.1464  2.0159
 9203TIP3   OH249023   5.725   1.109   3.299 -0.1515  0.1809  0.0592
 9203TIP3    H149024   5.711   1.093   3.393 -0.9784 -1.1349 -0.2666
 9203TIP3    H249025   5.650   1.069   3.256  0.2051  0.7968 -1.1794
 9204TIP3   OH249026   6.166   5.782   3.709  0.2929  0.6694  0.3215
 9204TIP3    H149027   6.209   5.799   3.793  0.3251 -1.3394  0.7665
 9204TIP3    H249028   6.162   5.686   3.704  0.4799  0.7382 -2.0680
 9205TIP3   OH249029   4.191   0.827   5.978 -0.9813 -0.1471 -0.4588
 9205TIP3    H149030   4.255   0.869   6.036  0.8468 -1.0202 -1.7520
 9205TIP3    H249031   4.158   0.897   5.923 -0.0728  0.0784 -0.7213
 9206TIP3   OH249032   6.094   1.784   1.736 -0.1320 -0.3329  0.7687
 9206TIP3    H149033   6.051   1.698   1.736  0.4318 -0.6233  0.5881
 9206TIP3    H249034   6.127   1.793   1.826 -1.2300  0.2411  1.1352
 9207TIP3   OH249035   0.871   6.685   5.830 -0.6219  0.0162  0.3382
 9207TIP3    H149036   0.941   6.730   5.876  1.0327  1.7406 -3.4262
 9207TIP3    H249037   0.910   6.602   5.802 -0.6483  0.1675 -0.1740
 9208TIP3   OH249038   1.237   3.808   6.631  0.1507  0.4705 -0.1190
 9208TIP3    H149039   1.163   3.788   6.688  0.2917 -2.0735 -0.7029
 9208TIP3    H249040   1.314   3.783   6.682  0.7375  3.4346  0.6263
 9209TIP3   OH249041   3.839   0.846  15.277  0.1595 -0.0979  0.2346
 9209TIP3    H149042   3.754   0.885  15.257 -0.1483 -0.1738  1.3509
 9209TIP3    H249043   3.874   0.821  15.191 -0.9211 -0.0291 -0.2453
 9210TIP3   OH249044   4.697   2.768   3.935  0.4880 -0.3832 -0.0040
 9210TIP3    H149045   4.677   2.809   4.019  1.2025  3.0742 -1.3718
 9210TIP3    H249046   4.614   2.731   3.905 -0.9399  2.4020  0.2120
 9211TIP3   OH249047   0.279   4.536  13.428  0.3079  0.0026 -0.2815
 9211TIP3    H149048   0.184   4.522  13.424  0.2914  0.3430 -1.4735
 9211TIP3    H249049   0.316   4.448  13.432 -0.0418 -0.1613 -0.5935
 9212TIP3   OH249050   6.132   0.543   0.054 -0.2993  0.4046 -0.3629
 9212TIP3    H149051   6.164   0.610  -0.006  0.4490  1.3791  1.0632
 9212TIP3    H249052   6.085   0.592   0.122  1.8164 -0.2591  1.7154
 9213TIP3   OH249053   5.725   2.882   0.003  0.2491 -0.2282 -0.3284
 9213TIP3    H149054   5.632   2.889   0.024  0.2767  0.0072 -0.2897
 9213TIP3    H249055   5.727   2.871  -0.092  0.0556 -2.4860 -0.1389
 9214TIP3   OH249056   0.006   4.684  12.847 -0.1168 -0.4906 -0.1482
 9214TIP3    H149057   0.067   4.724  12.785 -2.1664  0.9473 -1.3351
 9214TIP3    H249058   0.048   4.696  12.932  0.6453  1.7297 -0.7716
 9215TIP3   OH249059   4.455   0.991  11.226  0.2913 -0.1884 -0.4172
 9215TIP3    H149060   4.429   0.919  11.283 -0.7147 -0.8402 -1.6246
 9215TIP3    H249061   4.411   1.068  11.261  0.6997 -0.3255  0.4018
 9216TIP3   OH249062   0.096   5.978   6.211 -0.0059  0.1313 -0.9149
 9216TIP3    H149063   0.192   5.980   6.212 -0.0003 -0.2696 -0.0717
 9216TIP3    H249064   0.072   5.936   6.293 -0.9337  1.0897 -0.6784
 9217TIP3   OH249065   0.442   5.128  14.524  0.3035  0.2259 -0.2829
 9217TIP3    H149066   0.511   5.159  14.466  0.1182 -0.4998 -0.9088
 9217TIP3    H249067   0.383   5.078  14.467 -0.5617  0.5552  0.2990
 9218TIP3   OH249068   2.332   5.873   1.428  0.2470  0.7104  0.1964
 9218TIP3    H149069   2.353   5.917   1.345 -0.4292 -0.1757 -0.4614
 9218TIP3    H249070   2.244   5.903   1.448 -0.0190  0.0654  0.0099
 9219TIP3   OH249071   1.851   0.990   5.202  0.3866  0.3967  0.2925
 9219TIP3    H149072   1.861   1.032   5.288 -0.1722  1.5472 -0.1787
 9219TIP3    H249073   1.852   0.896   5.221 -2.5731  0.5616  1.9533
 9220TIP3   OH249074   0.512   0.327  12.699  0.5207  0.0816 -0.7795
 9220TIP3    H149075   0.596   0.314  12.656  0.5852  1.6100 -1.1680
 9220TIP3    H249076   0.452   0.350  12.628 -0.7138 -2.7210 -0.7840
 9221TIP3   OH249077   6.146   6.015   2.554 -0.7017 -0.1807  0.0498
 9221TIP3    H149078   6.178   6.064   2.630 -0.3160  0.2430 -0.3822
 9221TIP3    H249079   6.053   6.003   2.571 -0.8524  0.9207  0.0524
 9222TIP3   OH249080   6.080   5.239  16.057 -0.3527  0.4131 -0.4687
 9222TIP3    H149081   6.172   5.226  16.033 -0.3875  0.5139 -0.6551
 9222TIP3    H249082   6.060   5.165  16.114  0.6128  1.7605  1.7971
 9223TIP3   OH249083   0.183   4.534  14.716  0.4963 -0.1608 -0.1012
 9223TIP3    H149084   0.255   4.474  14.695  0.4301 -0.1978 -0.2184
 9223TIP3    H249085   0.104   4.484  14.700  0.4404 -0.6137  1.4300
 9224TIP3   OH249086   2.740   3.877  11.752  0.4077  0.1074  0.3951
 9224TIP3    H149087   2.832   3.888  11.725  0.6254  1.5856  1.6132
 9224TIP3    H249088   2.744   3.862  11.846 -0.6546  1.9538  0.7824
 9225TIP3   OH249089   2.343   4.330   0.695 -0.1822  0.2317 -0.3854
 9225TIP3    H149090   2.299   4.359   0.614 -0.5755 -0.0169 -0.2651
 9225TIP3    H249091   2.292   4.370   0.765  0.2326  0.5458 -0.2600
 9226TIP3   OH249092   0.850   0.749   4.675  0.2479 -0.1739 -0.6865
 9226TIP3    H149093   0.780   0.748   4.610 -0.8742 -1.4003  0.4832
 9226TIP3    H249094   0.862   0.841   4.697 -2.4941 -0.0437  0.5963
 9227TIP3   OH249095   5.084   3.123   3.141  0.5030 -0.3715  0.2108
 9227TIP3    H149096   5.087   3.209   3.098 -0.3659  1.2381  3.0858
 9227TIP3    H249097   5.173   3.088   3.132  0.7396  0.5734 -1.4573
 9228TIP3   OH249098   6.598   1.311  13.215  0.4687  0.1481 -0.2648
 9228TIP3    H149099   6.675   1.254  13.210 -0.0255 -0.5487  0.0527
 9228TIP3    H249100   6.635   1.398  13.232  1.2334 -0.0405 -0.8840
 9229TIP3   OH249101   1.710   1.120  14.274  0.0158  0.4261 -0.2216
 9229TIP3    H149102   1.785   1.116  14.333 -0.8942  0.8241  1.0245
 9229TIP3    H249103   1.741   1.167  14.197  0.8519  1.2251  0.5858
 9230TIP3   OH249104   2.664   2.387  12.591 -0.2338  0.3510 -0.1642
 9230TIP3    H149105   2.603   2.316  12.574  0.2748 -0.6355  1.8986
 9230TIP3    H249106   2.615   2.451  12.642 -0.5184  1.2523 -1.5130
 9231TIP3   OH249107   5.225   5.742  12.396  0.0364 -0.2782 -0.3469
 9231TIP3    H149108   5.317   5.745  12.369  0.6035  0.6698  1.5124
 9231TIP3    H249109   5.227   5.760  12.490 -2.0636 -0.2810 -0.2539
 9232TIP3   OH249110   5.746   2.648  12.705  0.0319 -0.1519  0.1822
 9232TIP3    H149111   5.752   2.689  12.619  0.7122  0.3332  0.4572
 9232TIP3    H249112   5.705   2.715  12.760 -0.4663 -0.4865  0.2228
 9233TIP3   OH249113   6.623   2.188  12.076 -0.1755 -0.6250 -0.1747
 9233TIP3    H149114   6.538   2.182  12.032 -0.3579 -0.0243  0.0974
 9233TIP3    H249115   6.648   2.280  12.070  0.3595 -0.7564 -0.0615
 9234TIP3   OH249116   0.744   3.152  12.614  0.0347  0.1407 -0.3494
 9234TIP3    H149117   0.770   3.062  12.634 -3.8180 -1.3154 -0.9755
 9234TIP3    H249118   0.805   3.207  12.663  1.4554 -2.8372  1.4535
 9235TIP3   OH249119   4.977   4.718  13.427 -0.6458  0.4511  0.3839
 9235TIP3    H149120   4.897   4.771  13.425 -0.2863  0.9871 -0.3631
 9235TIP3    H249121   5.034   4.759  13.362  0.0922 -0.1581  0.6351
 9236TIP3   OH249122   4.424   5.354   6.485 -0.4353 -0.2478 -0.3306
 9236TIP3    H149123   4.411   5.312   6.570 -0.8554  0.6577  0.0709
 9236TIP3    H249124   4.482   5.295   6.438 -0.1917 -0.7666  0.5842
 9237TIP3   OH249125   6.625   4.617   2.660 -0.2946  0.2961 -0.2739
 9237TIP3    H149126   6.619   4.619   2.755  1.2787  0.0267 -0.1435
 9237TIP3    H249127   6.624   4.524   2.638  0.8756  0.2984 -0.3834
 9238TIP3   OH249128   3.519   4.910  11.708  0.1631  0.2346 -0.6626
 9238TIP3    H149129   3.570   4.972  11.657  2.4617 -2.0905 -1.3964
 9238TIP3    H249130   3.471   4.859  11.643 -1.5476  1.0297 -0.0823
 9239TIP3   OH249131   5.803   4.508  14.878  0.1466  0.5253  0.0655
 9239TIP3    H149132   5.769   4.458  14.952 -0.2820 -0.5058 -0.7900
 9239TIP3    H249133   5.898   4.494  14.881 -0.1489 -2.7350 -1.7278
 9240TIP3   OH249134   3.912   0.583  10.651  0.2073  0.4733 -0.3182
 9240TIP3    H149135   3.982   0.548  10.706  0.2024  1.4605  0.3424
 9240TIP3    H249136   3.921   0.537  10.567  0.2231 -1.0374  0.4943
 9241TIP3   OH249137   0.809   0.634  13.667  0.4754 -0.0984  0.2664
 9241TIP3    H149138   0.765   0.565  13.619  0.0064  1.7539 -2.1549
 9241TIP3    H249139   0.746   0.662  13.733 -0.2086 -0.4888 -0.2136
 9242TIP3   OH249140   6.606   0.601   2.364 -0.3078  0.4365 -0.2936
 9242TIP3    H149141   6.515   0.627   2.379 -0.4673 -0.4601  0.4669
 9242TIP3    H249142   6.658   0.676   2.392 -0.7475  0.0205  1.8231
 9243TIP3   OH249143   0.224   1.322   1.397  0.3643  0.3837  0.5314
 9243TIP3    H149144   0.182   1.401   1.364 -0.2125  0.1348  0.6705
 9243TIP3    H249145   0.222   1.332   1.492 -0.6890 -0.2926  0.5951
 9244TIP3   OH249146   2.044   1.628   1.120  0.2894  0.2051  0.2610
 9244TIP3    H149147   2.139   1.631   1.130  0.1016  1.1510  2.0355
 9244TIP3    H249148   2.020   1.714   1.087 -0.0496  0.3518  0.8737
 9245TIP3   OH249149   1.851   0.460  15.105  0.7438 -0.5859 -0.3354
 9245TIP3    H149150   1.912   0.415  15.046  1.5149 -0.2225  0.1721
 9245TIP3    H249151   1.806   0.390  15.152 -0.6588 -0.9361 -2.0684
 9246TIP3   OH249152   2.375   1.005  16.826  0.2230 -0.7079  0.1575
 9246TIP3    H149153   2.285   1.036  16.828 -0.2188 -1.9918  1.6054
 9246TIP3    H249154   2.403   1.007  16.917  0.8332 -2.6282  0.0551
 9247TIP3   OH249155   6.700   0.160  15.008 -0.5175  0.0136 -0.7803
 9247TIP3    H149156   6.785   0.204  15.013 -1.5921  2.1036  0.1146
 9247TIP3    H249157   6.688   0.121  15.095 -0.2064 -0.8534 -1.1166
 9248TIP3   OH249158   6.181   3.029   0.548 -0.4223  0.0366 -0.4050
 9248TIP3    H149159   6.163   3.071   0.632  2.2617 -0.2814  0.4205
 9248TIP3    H249160   6.164   2.936   0.562 -0.8876  0.0981 -0.5296
 9249TIP3   OH249161   6.469   5.302  10.754  0.1869  0.3820  0.3575
 9249TIP3    H149162   6.523   5.226  10.778 -1.2273 -0.6355  0.4541
 9249TIP3    H249163   6.417   5.272  10.680 -2.3967  0.2718  2.0944
 9250TIP3   OH249164   1.915   0.940   4.115 -0.3194  0.0027 -0.2625
 9250TIP3    H149165   1.845   1.002   4.096 -1.1284 -0.5712  0.6971
 9250TIP3    H249166   1.873   0.872   4.168  1.1126  0.0248  0.9878
 9251TIP3   OH249167   4.513   4.805   4.308  0.5140 -0.5550 -0.1995
 9251TIP3    H149168   4.450   4.787   4.378  0.5020 -0.0879 -0.0848
 9251TIP3    H249169   4.499   4.898   4.287 -1.1950 -1.2424 -2.5059
 9252TIP3   OH249170   4.430   6.720   2.351  0.1249  0.1657  0.1427
 9252TIP3    H149171   4.511   6.752   2.392  0.0954 -0.6116  0.8221
 9252TIP3    H249172   4.451   6.716   2.258  0.9254 -0.1696  0.3274
 9253TIP3   OH249173   0.184   5.813   6.534  0.3078  0.3311 -0.2479
 9253TIP3    H149174   0.204   5.728   6.573 -1.1855 -0.0417 -0.2130
 9253TIP3    H249175   0.222   5.877   6.595  1.2798 -0.2929 -0.1776
 9254TIP3   OH249176   3.202   4.539  14.469 -0.3236 -0.4252 -0.6379
 9254TIP3    H149177   3.227   4.447  14.463 -1.0225 -0.9057  2.2998
 9254TIP3    H249178   3.112   4.538  14.500 -0.1314  1.2217  0.1003
 9255TIP3   OH249179   1.544   5.958  13.781  0.3639  0.5564  0.5945
 9255TIP3    H149180   1.496   5.905  13.845  0.0403  2.5067  2.0622
 9255TIP3    H249181   1.511   5.929  13.696  0.5858 -1.9061  1.2596
 9256TIP3   OH249182   3.170   2.221  13.988  0.3200 -0.0375  0.0281
 9256TIP3    H149183   3.086   2.198  13.949 -0.0871 -1.0119  1.3823
 9256TIP3    H249184   3.232   2.162  13.947  0.0660 -0.3726  0.1193
 9257TIP3   OH249185   0.131   1.317  10.889 -0.2537 -0.2849  0.7734
 9257TIP3    H149186   0.188   1.297  10.814  0.8378  1.7134  1.0050
 9257TIP3    H249187   0.044   1.323  10.851  0.0575 -0.8303 -0.0621
 9258TIP3   OH249188   2.110   1.580   3.757 -0.0715 -0.2301  0.4054
 9258TIP3    H149189   2.053   1.654   3.775  0.6814  0.7021 -0.8707
 9258TIP3    H249190   2.193   1.603   3.799 -0.2462 -1.0470  1.2536
 9259TIP3   OH249191   6.084   1.597  12.809 -0.0090 -0.1593  0.0771
 9259TIP3    H149192   6.041   1.672  12.766  1.2192  1.0321  0.8493
 9259TIP3    H249193   6.118   1.545  12.736  0.2270  0.7142 -0.4511
 9260TIP3   OH249194   5.517   0.875   0.807  0.1563 -0.1633 -0.2038
 9260TIP3    H149195   5.554   0.794   0.843 -1.0329 -0.2929  0.7983
 9260TIP3    H249196   5.590   0.916   0.761  0.5410 -2.3030 -1.6636
 9261TIP3   OH249197   6.394   4.673  11.614 -0.0191 -0.3811 -0.4242
 9261TIP3    H149198   6.323   4.642  11.558  2.7938 -2.4613 -3.2036
 9261TIP3    H249199   6.422   4.595  11.662 -1.0902  0.9551  2.7015
 9262TIP3   OH249200   3.924   1.537   4.586  0.3545 -0.1861 -0.3325
 9262TIP3    H149201   3.831   1.554   4.599 -0.0160 -0.9714 -1.7327
 9262TIP3    H249202   3.962   1.542   4.674 -1.0607 -0.1543  0.3031
 9263TIP3   OH249203   3.844   4.374  12.458 -0.3581 -0.2012  0.2809
 9263TIP3    H149204   3.821   4.412  12.543 -1.0632 -2.1828  1.0365
 9263TIP3    H249205   3.934   4.346  12.468 -0.6443 -1.0275  0.6276
 9264TIP3   OH249206   4.352   3.897   1.890 -0.1825 -0.0405  0.1529
 9264TIP3    H149207   4.378   3.988   1.877 -0.9206  0.1404 -0.1113
 9264TIP3    H249208   4.416   3.862   1.952  0.0802  0.6686  0.2894
 9265TIP3   OH249209   2.755   0.769  11.964  0.0432  0.7770 -0.3054
 9265TIP3    H149210   2.808   0.822  11.905 -0.4251  1.2088 -0.3438
 9265TIP3    H249211   2.819   0.726  12.021  0.4103  1.8107  0.0859
 9266TIP3   OH249212   4.877   2.789   2.131 -0.2203  0.0637  0.5277
 9266TIP3    H149213   4.846   2.701   2.109  0.5241 -0.6976  2.2931
 9266TIP3    H249214   4.950   2.805   2.070 -0.6342 -0.3460 -0.0880
 9267TIP3   OH249215   5.227   4.531   3.445  0.6818  0.9006 -0.3552
 9267TIP3    H149216   5.156   4.540   3.382 -1.2949 -1.3771  1.3700
 9267TIP3    H249217   5.278   4.457   3.412 -0.5090 -0.4682  0.7384
 9268TIP3   OH249218   1.152   4.664  13.768 -0.0088  0.0479 -0.7507
 9268TIP3    H149219   1.239   4.625  13.767  1.6744  3.3761 -1.7509
 9268TIP3    H249220   1.161   4.741  13.825 -2.3329  0.3993 -0.7548
 9269TIP3   OH249221   3.524   5.825  11.256 -0.6068 -0.5334  0.0344
 9269TIP3    H149222   3.442   5.863  11.289 -0.4610 -1.0835  1.0575
 9269TIP3    H249223   3.575   5.900  11.228 -1.0909 -0.1120  0.2604
 9270TIP3   OH249224   3.627   2.380  15.618 -0.1921  0.0876  0.2869
 9270TIP3    H149225   3.578   2.324  15.558  0.3342 -1.1428  0.9719
 9270TIP3    H249226   3.665   2.320  15.681  3.3121  0.8188 -0.9376
 9271TIP3   OH249227   5.965   4.979  11.339  0.0064  0.2158 -1.1027
 9271TIP3    H149228   5.889   5.020  11.380  0.8900  0.9117 -0.1061
 9271TIP3    H249229   5.928   4.926  11.268 -1.1941  2.8735 -2.6115
 9272TIP3   OH249230   5.720   2.275   2.413 -0.0758  0.3752 -1.0546
 9272TIP3    H149231   5.812   2.265   2.437  0.1219  0.4628 -1.7452
 9272TIP3    H249232   5.712   2.366   2.386 -0.4183  0.4290 -0.7723
 9273TIP3   OH249233   4.997   6.608   4.319 -0.3233 -0.0019  0.2326
 9273TIP3    H149234   4.942   6.567   4.387 -0.8417 -0.2714 -0.3413
 9273TIP3    H249235   5.038   6.682   4.364 -1.2411  0.2761  0.6560
 9274TIP3   OH249236   6.265   0.467  12.814  0.5605  0.0124  0.4861
 9274TIP3    H149237   6.276   0.557  12.783 -0.1217  0.8276  2.3871
 9274TIP3    H249238   6.319   0.462  12.893  1.7264 -1.7391 -0.3641
 9275TIP3   OH249239   3.359   2.014   5.352  0.1722 -0.3421  0.9988
 9275TIP3    H149240   3.322   2.013   5.441 -0.5098 -0.9149  0.7219
 9275TIP3    H249241   3.283   2.025   5.295  0.4340 -1.4205  0.4175
 9276TIP3   OH249242   3.002   4.115  14.517 -0.3459  0.7973  0.8809
 9276TIP3    H149243   2.978   4.087  14.606  0.8721  1.7279  1.5364
 9276TIP3    H249244   2.923   4.158  14.484 -1.7418 -1.9273  0.4206
 9277TIP3   OH249245   1.147   2.768  12.356 -0.1884  0.4140  0.5695
 9277TIP3    H149246   1.186   2.710  12.421 -0.3498 -1.9492 -1.3100
 9277TIP3    H249247   1.192   2.746  12.274 -2.3497  0.8145 -0.7897
 9278TIP3   OH249248   1.158   0.386  14.417  0.1011  0.1052 -0.0331
 9278TIP3    H149249   1.235   0.423  14.459 -1.0818 -0.4231  2.7935
 9278TIP3    H249250   1.091   0.454  14.424 -0.5619 -0.5752  0.3331
 9279TIP3   OH249251   6.202   3.287   4.477 -0.7968 -0.2104  0.3221
 9279TIP3    H149252   6.222   3.307   4.385  0.0761  0.4339  0.6441
 9279TIP3    H249253   6.132   3.348   4.500  0.1074  0.7721  0.5486
 9280TIP3   OH249254   3.321   0.272   3.586  0.0539  0.1388 -0.4132
 9280TIP3    H149255   3.262   0.337   3.548  0.2263 -0.0980 -1.0978
 9280TIP3    H249256   3.395   0.323   3.619 -0.1806  0.3638 -0.2339
 9281TIP3   OH249257   2.886   6.461  15.332  0.6623  0.2451  0.0726
 9281TIP3    H149258   2.976   6.483  15.353  0.7718  0.6874 -0.7827
 9281TIP3    H249259   2.893   6.385  15.274  0.5113  0.4022 -0.1580
 9282TIP3   OH249260   2.760   3.925   3.049 -0.5404 -0.5022  0.3355
 9282TIP3    H149261   2.757   3.963   2.961 -0.6218 -2.2244 -0.4408
 9282TIP3    H249262   2.694   3.974   3.098 -0.8656  0.1374 -0.7023
 9283TIP3   OH249263   5.492   6.778   2.920 -0.3946  0.1588  0.3575
 9283TIP3    H149264   5.438   6.774   2.999 -0.5453  0.2632  0.2603
 9283TIP3    H249265   5.567   6.832   2.945 -0.0910 -0.3812  0.6352
 9284TIP3   OH249266   2.539   0.522  16.436 -0.5405  0.0289  0.4177
 9284TIP3    H149267   2.604   0.521  16.365 -0.8239  0.5561  0.1522
 9284TIP3    H249268   2.462   0.562  16.398 -0.7222  0.2495  1.0092
 9285TIP3   OH249269   1.140   6.631   3.627  0.1681  0.2298 -0.0427
 9285TIP3    H149270   1.056   6.603   3.591  0.5430  1.1713 -1.7468
 9285TIP3    H249271   1.156   6.571   3.700 -0.5481 -1.9425 -1.5610
 9286TIP3   OH249272   4.283   5.544  14.193  0.2613  0.3647 -0.1994
 9286TIP3    H149273   4.317   5.603  14.126 -0.2304  0.3394 -0.4809
 9286TIP3    H249274   4.341   5.556  14.268  0.7242  0.5080 -0.5791
 9287TIP3   OH249275   1.099   4.400   3.885 -0.1150 -0.0283 -0.3596
 9287TIP3    H149276   1.162   4.454   3.837 -0.1751  0.4612  0.1033
 9287TIP3    H249277   1.121   4.310   3.860  0.6355  0.1482 -0.3672
 9288TIP3   OH249278   2.606   3.011   1.266 -0.1233 -0.4520  0.0739
 9288TIP3    H149279   2.579   2.924   1.294  0.7967 -0.6708  0.3208
 9288TIP3    H249280   2.583   3.015   1.174 -0.6426 -0.7658  0.1896
 9289TIP3   OH249281   1.065   3.394  13.101  0.4306 -0.1476 -0.1322
 9289TIP3    H149282   1.140   3.350  13.142  0.2239  0.8343  1.3952
 9289TIP3    H249283   1.012   3.323  13.065  1.6139 -0.9200 -0.4044
 9290TIP3   OH249284   6.053   6.396  16.329 -0.0596 -0.0476 -0.0039
 9290TIP3    H149285   5.995   6.385  16.403  0.3052  0.6285  0.3897
 9290TIP3    H249286   6.077   6.306  16.304  0.9213 -0.2732  1.5815
 9291TIP3   OH249287   3.966   5.579  11.512  0.4818  0.6070  0.0486
 9291TIP3    H149288   3.922   5.639  11.453 -0.0431  1.0217  0.8500
 9291TIP3    H249289   3.956   5.493  11.471 -0.3180  0.8185 -0.2129
 9292TIP3   OH249290   2.605   6.710   4.328  0.0373  0.1054  0.1637
 9292TIP3    H149291   2.634   6.801   4.328 -1.4572  0.6121 -0.1954
 9292TIP3    H249292   2.511   6.715   4.312 -0.0836 -1.5059  0.2132
 9293TIP3   OH249293   0.199   1.688  11.437 -0.1844 -0.4361  0.5196
 9293TIP3    H149294   0.216   1.619  11.502 -3.1745 -1.8850 -0.0565
 9293TIP3    H249295   0.172   1.763  11.490 -1.3933 -1.2139  1.0659
 9294TIP3   OH249296   2.077   0.593   2.285 -0.0852  0.4591  0.7529
 9294TIP3    H149297   2.095   0.676   2.328  1.5034  1.5282 -1.7522
 9294TIP3    H249298   2.017   0.614   2.215 -1.5763 -1.0013  1.5119
 9295TIP3   OH249299   3.132   1.227   2.316  0.2447  0.5547 -0.3943
 9295TIP3    H149300   3.160   1.200   2.228 -1.0600 -1.5551 -0.2537
 9295TIP3    H249301   3.092   1.148   2.353 -0.3411  1.7366  1.6419
 9296TIP3   OH249302   6.487   4.110  15.181  0.2167  0.1936  0.4135
 9296TIP3    H149303   6.406   4.096  15.230  0.1620  0.0349  0.2766
 9296TIP3    H249304   6.554   4.068  15.234  0.7025  2.7568  2.0433
 9297TIP3   OH249305   3.557   5.097   1.635  0.0303  0.0362 -0.0799
 9297TIP3    H149306   3.616   5.065   1.703 -0.2382  1.0685  0.6612
 9297TIP3    H249307   3.495   5.026   1.622  2.2142 -1.6989 -1.9222
 9298TIP3   OH249308   6.011   6.353  14.170 -0.7360 -0.2316 -0.1500
 9298TIP3    H149309   5.976   6.430  14.126  1.5359  0.1817 -1.4103
 9298TIP3    H249310   6.064   6.387  14.242  1.0333 -0.4710 -1.2640
 9299TIP3   OH249311   3.725   1.694   4.061 -0.5020  0.5046  0.0152
 9299TIP3    H149312   3.722   1.640   3.982 -0.0268  1.2432 -0.5092
 9299TIP3    H249313   3.636   1.728   4.070 -1.3969 -1.9373  1.4852
 9300TIP3   OH249314   3.438   1.852  14.457 -0.0009  0.3591 -1.0635
 9300TIP3    H149315   3.438   1.926  14.396 -1.2073  0.2056 -1.2774
 9300TIP3    H249316   3.531   1.834  14.472  0.3853  2.8512  0.1682
 9301TIP3   OH249317   3.403   3.336   2.195 -0.5909 -0.0901 -0.0292
 9301TIP3    H149318   3.439   3.397   2.131  0.2150  0.4370  0.9075
 9301TIP3    H249319   3.412   3.380   2.279 -0.9206 -1.0874  0.5532
 9302TIP3   OH249320   4.887   5.721  12.908  0.5078 -0.7704 -0.4917
 9302TIP3    H149321   4.820   5.786  12.888  1.2694 -0.2997 -1.6747
 9302TIP3    H249322   4.839   5.638  12.913 -0.1709 -0.4465 -1.3129
 9303TIP3   OH249323   6.158   4.494  13.085  0.1103  0.1112 -0.1829
 9303TIP3    H149324   6.082   4.550  13.069  1.8569  2.1653 -1.8701
 9303TIP3    H249325   6.195   4.526  13.167 -0.5487 -0.5941  0.4057
 9304TIP3   OH249326   5.747   2.000   3.232  0.7850  0.2064 -0.3966
 9304TIP3    H149327   5.674   2.022   3.173 -1.1867 -2.2630  0.9231
 9304TIP3    H249328   5.752   2.074   3.292  0.0343  0.8795 -1.1228
 9305TIP3   OH249329   1.427   1.519  13.281 -0.2547  0.1073 -0.4700
 9305TIP3    H149330   1.351   1.536  13.226 -2.1257 -1.1820  1.5298
 9305TIP3    H249331   1.419   1.427  13.306  2.8291 -0.5156 -1.3412
 9306TIP3   OH249332   1.309   2.553   1.826 -0.3008  0.1057  0.0510
 9306TIP3    H149333   1.376   2.547   1.895 -0.9983  1.1509  0.8531
 9306TIP3    H249334   1.341   2.622   1.768  0.4037 -0.9353 -0.8418
 9307TIP3   OH249335   0.559   2.183   1.580 -0.3279  0.2814  0.1797
 9307TIP3    H149336   0.520   2.243   1.517  1.0430 -0.2607 -1.2263
 9307TIP3    H249337   0.626   2.136   1.531 -1.4109 -2.5092  1.1788
 9308TIP3   OH249338   6.628   0.875  11.125  0.7592  0.1876  0.5616
 9308TIP3    H149339   6.537   0.898  11.147  0.7579 -0.1964  0.9553
 9308TIP3    H249340   6.624   0.848  11.033  0.6572  1.1759  0.2603
 9309TIP3   OH249341   0.691   4.976  15.351 -0.4746  0.8126  0.0884
 9309TIP3    H149342   0.660   4.959  15.262 -1.3483 -0.6600  0.6468
 9309TIP3    H249343   0.781   4.945  15.351 -0.5498  0.5868 -0.2014
 9310TIP3   OH249344   2.351   0.157   3.110  0.1584  0.4313  0.1049
 9310TIP3    H149345   2.364   0.168   3.204  1.1000  1.6166 -0.1301
 9310TIP3    H249346   2.429   0.110   3.081 -0.5371 -0.7044  0.0289
 9311TIP3   OH249347   0.831   5.005   1.984 -0.5944  0.4812 -0.0952
 9311TIP3    H149348   0.898   4.988   2.050 -1.8043 -0.9436  0.8479
 9311TIP3    H249349   0.762   5.053   2.032 -1.4815 -0.5613 -0.2894
 9312TIP3   OH249350   1.974   3.334   2.440 -0.1833  0.1538  0.3124
 9312TIP3    H149351   1.887   3.359   2.408 -0.5186 -0.6365  0.5945
 9312TIP3    H249352   2.014   3.288   2.366  1.2604  3.2209 -1.0005
 9313TIP3   OH249353   4.317   2.784  14.958  0.2134 -0.3870 -0.0661
 9313TIP3    H149354   4.316   2.700  14.911  0.2730 -0.9496  0.9125
 9313TIP3    H249355   4.399   2.783  15.008 -0.1821 -0.1312  0.6049
 9314TIP3   OH249356   0.924   2.111   2.438 -0.5839 -0.0492  0.0784
 9314TIP3    H149357   0.840   2.113   2.392 -0.4601  0.1072 -0.1456
 9314TIP3    H249358   0.932   2.022   2.471  0.9040 -1.2371 -3.1410
 9315TIP3   OH249359   1.763   1.060   3.300 -0.5201 -0.1465  0.5175
 9315TIP3    H149360   1.730   1.121   3.235 -1.5246 -1.1418  0.0471
 9315TIP3    H249361   1.853   1.041   3.273 -1.0090 -0.7555 -0.7701
 9316TIP3   OH249362   5.077   3.812   4.754  0.6400  0.3806 -0.1073
 9316TIP3    H149363   5.043   3.728   4.723  1.4418  0.1204 -0.2998
 9316TIP3    H249364   4.999   3.865   4.769  0.1724  0.1463 -1.5487
 9317TIP3   OH249365   5.026   4.830  16.361 -0.1943 -0.5348  0.3421
 9317TIP3    H149366   5.084   4.779  16.305 -0.2674  0.5198 -0.7143
 9317TIP3    H249367   4.938   4.806  16.331 -0.2253  1.5776 -1.4894
 9318TIP3   OH249368   5.455   5.290  14.178 -0.8064 -0.3407 -0.4991
 9318TIP3    H149369   5.533   5.279  14.124 -0.2443  0.9562  0.0090
 9318TIP3    H249370   5.382   5.294  14.116 -0.3025 -0.1098 -1.0809
 9319TIP3   OH249371   6.277   6.597  13.858 -0.3616 -0.0339  0.1619
 9319TIP3    H149372   6.243   6.686  13.857  2.2025  1.0298 -1.2627
 9319TIP3    H249373   6.368   6.606  13.888  0.4744 -1.9155 -1.5625
 9320TIP3   OH249374   0.324   4.538  11.546 -0.1939  0.0449 -0.1314
 9320TIP3    H149375   0.332   4.571  11.635 -0.6441  0.2153 -0.1480
 9320TIP3    H249376   0.332   4.443  11.554  2.5752  0.1975 -0.2597
 9321TIP3   OH249377   2.397   2.125  15.406  0.2459 -0.2630 -0.6234
 9321TIP3    H149378   2.425   2.034  15.414 -0.3038 -0.4113 -0.3202
 9321TIP3    H249379   2.313   2.129  15.452 -0.6450 -0.0372 -2.1642
 9322TIP3   OH249380   5.297   0.139  13.591 -0.5010  0.0804 -0.2515
 9322TIP3    H149381   5.275   0.051  13.622 -1.1652  0.1383 -0.5438
 9322TIP3    H249382   5.341   0.125  13.508  0.6512 -0.0407  0.3681
 9323TIP3   OH249383   1.444   3.315  15.880 -0.0720  0.3002  0.0491
 9323TIP3    H149384   1.505   3.319  15.953  0.3022  0.5544 -0.2722
 9323TIP3    H249385   1.443   3.223  15.853 -1.9384 -0.2752  1.8054
 9324TIP3   OH249386   3.013   0.805   1.477  0.1093 -0.6901  0.1753
 9324TIP3    H149387   3.091   0.843   1.437  0.2068 -0.0821  0.9205
 9324TIP3    H249388   2.946   0.814   1.410  0.7176 -1.3896 -0.5426
 9325TIP3   OH249389   1.487   5.430   0.488  0.4735  0.3467  0.1423
 9325TIP3    H149390   1.579   5.458   0.495 -0.0176  2.0220  0.3409
 9325TIP3    H249391   1.438   5.511   0.480 -0.9131 -0.5665 -1.1788
 9326TIP3   OH249392   1.819   5.118   0.912 -0.4933 -0.1264  0.3627
 9326TIP3    H149393   1.844   5.026   0.901 -0.6392 -0.2239  0.8458
 9326TIP3    H249394   1.787   5.144   0.826 -0.1651 -0.4377  0.1415
 9327TIP3   OH249395   5.338   1.281   4.635  0.4931 -0.1422 -0.2589
 9327TIP3    H149396   5.356   1.347   4.702 -1.2588  0.3624 -0.2286
 9327TIP3    H249397   5.422   1.268   4.591  1.7394 -0.6107  2.1039
 9328TIP3   OH249398   5.689   2.492   0.831 -0.6352  0.2782  0.0877
 9328TIP3    H149399   5.731   2.422   0.780  1.2031  1.4128 -0.0680
 9328TIP3    H249400   5.662   2.450   0.913  0.7857 -0.5580  0.1592
 9329TIP3   OH249401   0.471   2.698  12.399 -0.1792 -0.5046 -0.3281
 9329TIP3    H149402   0.442   2.610  12.375  1.2631 -0.7302 -1.3127
 9329TIP3    H249403   0.540   2.684  12.464  1.3144 -0.2006 -1.8010
 9330TIP3   OH249404   6.712   4.053   3.718 -0.4252  0.3314  0.1735
 9330TIP3    H149405   6.761   4.121   3.766  0.4493 -1.2607  1.6206
 9330TIP3    H249406   6.625   4.091   3.705  0.2315  1.9967  0.3064
 9331TIP3   OH249407   5.747   4.828   2.759 -0.5704  0.3191 -0.0683
 9331TIP3    H149408   5.730   4.908   2.709 -0.9523  2.2065  2.8367
 9331TIP3    H249409   5.834   4.840   2.796 -0.3552 -0.9467 -0.1145
 9332TIP3   OH249410   4.687   5.013   3.194  0.5522 -0.2333 -0.1344
 9332TIP3    H149411   4.638   4.937   3.224 -0.7161 -0.9440 -3.5433
 9332TIP3    H249412   4.638   5.088   3.229 -0.5786 -0.9670 -0.0949
 9333TIP3   OH249413   6.212   0.439   4.027  0.2053  0.5946 -0.1014
 9333TIP3    H149414   6.119   0.432   4.051  0.7963 -1.0317  2.0989
 9333TIP3    H249415   6.225   0.370   3.962 -0.1151  0.8327 -0.4221
 9334TIP3   OH249416   0.154   1.370  16.091 -0.5669  0.4357  0.3119
 9334TIP3    H149417   0.061   1.382  16.112 -0.5022 -0.5547  1.2637
 9334TIP3    H249418   0.176   1.283  16.127  0.8888  0.9322  0.7129
 9335TIP3   OH249419   6.337   0.791  13.423  0.3741 -0.0612  0.3027
 9335TIP3    H149420   6.283   0.870  13.422  0.0724 -0.2261  1.5220
 9335TIP3    H249421   6.316   0.746  13.341  1.0310  1.4214 -0.7175
 9336TIP3   OH249422   0.109   6.383  11.315  0.2433 -0.2362 -0.0913
 9336TIP3    H149423   0.148   6.308  11.271  0.0596 -0.6697  0.4857
 9336TIP3    H249424   0.125   6.368  11.408  0.3993  0.5446  0.0206
 9337TIP3   OH249425   2.913   6.768  11.813  0.4257 -0.0469  0.3833
 9337TIP3    H149426   2.873   6.736  11.733  1.2895  0.8788 -0.4414
 9337TIP3    H249427   2.884   6.707  11.881 -0.4321 -0.7544 -0.6015
 9338TIP3   OH249428   3.599   1.823  10.406  0.4520  0.5334 -0.2080
 9338TIP3    H149429   3.508   1.833  10.432  0.2268 -1.7766  0.0839
 9338TIP3    H249430   3.627   1.912  10.383 -1.6206  1.4150  0.4171
 9339TIP3   OH249431   1.560   2.812  16.499  0.2663  0.5055  0.7890
 9339TIP3    H149432   1.492   2.872  16.529 -3.6164 -2.5899 -0.9318
 9339TIP3    H249433   1.615   2.865  16.442 -1.8028  2.8205  0.7828
 9340TIP3   OH249434   1.643   1.133   0.866 -0.2660 -0.1115  0.2059
 9340TIP3    H149435   1.670   1.203   0.926  0.3679 -0.0906 -0.0909
 9340TIP3    H249436   1.589   1.075   0.919  0.6170 -0.3098  0.9049
 9341TIP3   OH249437   0.061   3.481   4.466  0.3522  0.5967  0.2511
 9341TIP3    H149438   0.039   3.563   4.511 -0.8565  1.0666 -1.1088
 9341TIP3    H249439  -0.020   3.430   4.469  0.6791  0.0538 -0.1464
 9342TIP3   OH249440   1.851   5.642   1.665 -0.0071 -0.2801 -0.5789
 9342TIP3    H149441   1.829   5.556   1.702  2.7205 -1.4420 -1.3799
 9342TIP3    H249442   1.907   5.683   1.732 -1.0488  0.7994 -0.3324
 9343TIP3   OH249443   3.035   4.212  13.388  0.3143  0.3913  0.2411
 9343TIP3    H149444   3.050   4.129  13.342 -0.2762  0.3778  0.0641
 9343TIP3    H249445   2.957   4.197  13.441  0.4407  0.7093  0.5214
 9344TIP3   OH249446   6.209   4.735  14.803 -0.3368  0.4533 -0.1347
 9344TIP3    H149447   6.214   4.729  14.707  1.0183 -0.6449 -0.0284
 9344TIP3    H249448   6.252   4.818  14.824  1.0404 -0.1601 -0.4003
 9345TIP3   OH249449   6.079   2.768  17.009  0.2466 -0.1515 -0.5408
 9345TIP3    H149450   6.015   2.703  17.038 -1.1069  0.3958 -2.1351
 9345TIP3    H249451   6.088   2.828  17.083  0.9959 -1.7203  0.6922
 9346TIP3   OH249452   3.607   2.154   3.520 -0.1815 -0.4442  0.6491
 9346TIP3    H149453   3.637   2.086   3.580 -0.5662 -2.2250 -1.0709
 9346TIP3    H249454   3.511   2.149   3.524 -0.2668  1.4129  1.9841
 9347TIP3   OH249455   4.397   3.442   6.210  0.4920  0.0597 -0.6908
 9347TIP3    H149456   4.464   3.392   6.258  0.2652  0.4402  0.0380
 9347TIP3    H249457   4.315   3.399   6.233  0.1445  1.5251  1.0043
 9348TIP3   OH249458   5.738   2.165  12.941  0.2678 -0.1938 -0.2201
 9348TIP3    H149459   5.752   2.072  12.961  0.8030 -0.2548 -0.8633
 9348TIP3    H249460   5.721   2.167  12.847 -1.6746  0.1568  0.0919
 9349TIP3   OH249461   0.401   1.579   4.210  0.0080  0.1202  0.1563
 9349TIP3    H149462   0.469   1.527   4.165  1.0152 -0.8043  2.5833
 9349TIP3    H249463   0.435   1.668   4.209 -0.3203  0.2635 -1.4406
 9350TIP3   OH249464   2.176   2.364   5.384 -0.0039 -0.3874  0.4092
 9350TIP3    H149465   2.252   2.422   5.393 -0.5276  0.8600 -2.2333
 9350TIP3    H249466   2.160   2.332   5.473  2.7638  0.3564  1.2797
 9351TIP3   OH249467   3.392   5.032  11.420 -0.3169  0.1684  0.5014
 9351TIP3    H149468   3.453   4.975  11.374 -0.6781  0.7216 -0.6949
 9351TIP3    H249469   3.402   5.117  11.378 -1.4627  0.4244  0.7074
 9352TIP3   OH249470   5.361   4.860  16.010  0.4578  0.1043 -0.5714
 9352TIP3    H149471   5.372   4.810  16.090 -0.2439  2.2284  0.9464
 9352TIP3    H249472   5.299   4.810  15.958  3.3027 -2.9837 -1.3612
 9353TIP3   OH249473   5.073   1.856  14.585  0.4599  0.5417  0.1977
 9353TIP3    H149474   5.095   1.826  14.673  1.2277  0.8017  0.1069
 9353TIP3    H249475   5.037   1.944  14.597 -1.4656 -0.2377  0.4319
 9354TIP3   OH249476   6.091   3.484   2.139 -0.4302  0.2648  0.1499
 9354TIP3    H149477   6.090   3.554   2.073 -0.3634  1.5036  1.4084
 9354TIP3    H249478   6.162   3.426   2.112 -1.1509  0.1006 -1.4907
 9355TIP3   OH249479   2.685   5.812  15.186  0.3485 -0.2135  0.1416
 9355TIP3    H149480   2.653   5.747  15.123  0.5859  0.7682 -1.0086
 9355TIP3    H249481   2.776   5.785  15.204 -0.5237 -2.1198  2.2667
 9356TIP3   OH249482   1.919   3.624   2.286  0.3982  0.3225  0.8490
 9356TIP3    H149483   1.899   3.701   2.340 -0.5600  0.2628  0.6045
 9356TIP3    H249484   1.859   3.556   2.317  1.1345 -0.2819  0.9603
 9357TIP3   OH249485   1.245   3.250   4.491 -0.0056  0.1446  0.0360
 9357TIP3    H149486   1.256   3.345   4.483  1.5530  0.0943  0.9663
 9357TIP3    H249487   1.157   3.238   4.526 -0.1508  1.2530  0.0761
 9358TIP3   OH249488   6.722   2.445   2.892 -0.0381  0.0412 -0.0506
 9358TIP3    H149489   6.713   2.391   2.813  1.1620 -2.5799  1.4602
 9358TIP3    H249490   6.783   2.514   2.867  1.6147 -1.6859 -1.0610
 9359TIP3   OH249491   6.179   2.988   3.693 -0.1700  0.1462 -0.0928
 9359TIP3    H149492   6.176   3.081   3.674 -0.0232  0.5426  1.7167
 9359TIP3    H249493   6.106   2.951   3.644 -0.1217  1.1560 -0.9737
 9360TIP3   OH249494   4.064   0.640  12.474  0.2567  0.0243 -0.2501
 9360TIP3    H149495   3.970   0.657  12.466 -0.3676 -2.6778  0.5298
 9360TIP3    H249496   4.093   0.699  12.543 -1.1419  0.0210  0.3659
 9361TIP3   OH249497   0.341   1.143   4.048 -0.4146  0.1901 -0.0291
 9361TIP3    H149498   0.288   1.132   3.970 -0.6591  0.7632  0.0520
 9361TIP3    H249499   0.431   1.124   4.019 -0.4844  0.5256 -0.4803
 9362TIP3   OH249500   6.288   3.422   3.523 -0.3373 -0.2823  0.0386
 9362TIP3    H149501   6.360   3.438   3.463 -1.7349  0.6937 -1.4531
 9362TIP3    H249502   6.276   3.504   3.570  0.0711 -0.7171  0.9288
 9363TIP3   OH249503   3.033   2.846  14.265  0.0774 -0.0156 -0.6916
 9363TIP3    H149504   2.979   2.825  14.342  1.2971 -0.5210  0.0618
 9363TIP3    H249505   2.980   2.906  14.214  0.1273  2.2874  1.7503
 9364TIP3   OH249506   0.995   5.851   0.588  0.5419  0.3670 -0.5347
 9364TIP3    H149507   0.973   5.940   0.559 -1.2299  0.1025 -0.1691
 9364TIP3    H249508   0.931   5.796   0.543  0.0810 -0.4443  1.0462
 9365TIP3   OH249509   3.287   5.367  11.806  0.0248  0.6753 -0.0873
 9365TIP3    H149510   3.300   5.273  11.820 -0.2931  0.8101  1.2390
 9365TIP3    H249511   3.359   5.392  11.748  0.0605 -0.4053 -0.5359
 9366TIP3   OH249512   5.995   0.701   0.222 -0.3268 -0.2041 -0.2869
 9366TIP3    H149513   5.951   0.754   0.156  0.3884 -0.2926 -0.8442
 9366TIP3    H249514   6.039   0.765   0.278 -0.0727 -0.1798 -0.5169
 9367TIP3   OH249515   1.059   3.059  16.982 -0.4866 -0.0394  0.2441
 9367TIP3    H149516   1.038   3.145  17.018  0.6243 -0.0744  1.0062
 9367TIP3    H249517   1.142   3.071  16.937 -1.2819 -0.2737 -1.3699
 9368TIP3   OH249518   1.361   6.271  12.712 -0.1330 -0.3758  0.0385
 9368TIP3    H149519   1.288   6.332  12.718 -0.4772 -0.3608 -3.0351
 9368TIP3    H249520   1.325   6.186  12.737 -0.5057  0.0565  1.0137
 9369TIP3   OH249521   2.286   4.831   4.716 -0.0303  0.1303  0.1399
 9369TIP3    H149522   2.206   4.780   4.727 -0.4699  0.6603 -0.4998
 9369TIP3    H249523   2.297   4.839   4.622 -0.8730  2.5303  0.1544
 9370TIP3   OH249524   0.062   3.119  12.812 -0.2626  0.2558  0.0855
 9370TIP3    H149525  -0.003   3.111  12.882 -0.4623  0.8234 -0.0297
 9370TIP3    H249526   0.126   3.050  12.831 -0.9090 -0.3312  0.1865
 9371TIP3   OH249527   1.209   2.749  15.486 -0.0357  0.3012  0.1617
 9371TIP3    H149528   1.216   2.669  15.434 -0.1067  0.7207 -0.5005
 9371TIP3    H249529   1.167   2.721  15.568 -1.7154 -0.0338 -0.7749
 9372TIP3   OH249530   1.387   0.673   4.980  0.1550 -0.1830  0.0992
 9372TIP3    H149531   1.469   0.625   4.992 -0.6078 -1.9681 -1.3950
 9372TIP3    H249532   1.409   0.741   4.916 -0.1668 -2.7921 -3.0438
 9373TIP3   OH249533   4.023   0.720  10.993 -0.1650 -0.7403  0.2543
 9373TIP3    H149534   4.024   0.785  10.922  0.3116 -0.0285  0.8872
 9373TIP3    H249535   4.026   0.636  10.949  1.0374 -0.2977 -0.5600
 9374TIP3   OH249536   6.407   4.615   5.787 -0.5559  0.0755  0.2408
 9374TIP3    H149537   6.474   4.564   5.742 -0.4841  0.5978 -0.2666
 9374TIP3    H249538   6.392   4.690   5.729 -0.1182  1.0236  1.3110
 9375TIP3   OH249539   4.344   5.892  16.477 -0.0061  0.5939  0.1660
 9375TIP3    H149540   4.312   5.841  16.551 -0.7953  1.3570  0.3636
 9375TIP3    H249541   4.432   5.919  16.502  0.5901 -1.0013 -0.1176
 9376TIP3   OH249542   0.739   2.444  14.508 -0.4325 -0.0226 -0.3404
 9376TIP3    H149543   0.672   2.380  14.534  0.3620 -0.1176  1.6643
 9376TIP3    H249544   0.691   2.515  14.467 -1.4003 -1.6263 -2.1361
 9377TIP3   OH249545   4.941   1.639  13.406  0.0450  0.3147 -0.9211
 9377TIP3    H149546   4.950   1.623  13.312  0.0229  0.3392 -0.9275
 9377TIP3    H249547   4.855   1.603  13.428  0.8097 -1.3944 -0.5470
 9378TIP3   OH249548   6.139   6.447   3.543 -0.3038  0.7747  0.5752
 9378TIP3    H149549   6.153   6.358   3.510  0.8244  0.7397  1.0863
 9378TIP3    H249550   6.056   6.443   3.589 -0.2166 -0.0414  0.6772
 9379TIP3   OH249551   5.558   3.179  14.303  0.1948  0.2120  0.2669
 9379TIP3    H149552   5.530   3.110  14.243 -0.0365 -0.6842  1.3675
 9379TIP3    H249553   5.607   3.240  14.248  0.0827 -0.6259 -0.8077
 9380TIP3   OH249554   5.355   2.415  13.616 -0.0765  0.3963  0.7088
 9380TIP3    H149555   5.350   2.327  13.651  0.4338 -0.5332 -1.3845
 9380TIP3    H249556   5.434   2.452  13.655  0.3712 -0.5212  0.7035
 9381TIP3   OH249557   2.326   3.707  13.078  0.4442 -0.7519 -0.0851
 9381TIP3    H149558   2.357   3.788  13.119 -1.1980 -0.5208  0.7580
 9381TIP3    H249559   2.369   3.706  12.992  0.2434  1.1868 -0.2573
 9382TIP3   OH249560   5.467   6.595   5.907  0.1499 -0.1357  0.1533
 9382TIP3    H149561   5.507   6.649   5.975 -2.1064  1.3049  0.4410
 9382TIP3    H249562   5.399   6.545   5.953 -0.4493 -0.2158 -0.7892
 9383TIP3   OH249563   5.921   6.190   5.472 -0.0811 -0.0909 -0.1227
 9383TIP3    H149564   5.948   6.262   5.529  0.0639  0.2364 -0.5914
 9383TIP3    H249565   5.985   6.191   5.400 -1.2031  0.5699 -1.1488
 9384TIP3   OH249566   2.974   6.675  13.891  0.1895  0.4870 -0.6527
 9384TIP3    H149567   2.991   6.731  13.815  0.2834  0.0051 -0.9900
 9384TIP3    H249568   2.999   6.587  13.862 -1.8927 -0.0842 -0.8178
 9385TIP3   OH249569   5.502   6.611  15.199  0.0209  0.2383 -0.4975
 9385TIP3    H149570   5.547   6.694  15.184  1.4964 -0.7007 -1.5561
 9385TIP3    H249571   5.572   6.548  15.211 -1.0420 -1.1220 -1.1920
 9386TIP3   OH249572   3.862   5.162   4.048  0.5767 -0.0491 -0.3822
 9386TIP3    H149573   3.780   5.190   4.087  0.1532 -1.4146 -0.2399
 9386TIP3    H249574   3.872   5.218   3.971 -0.9283 -0.4299 -0.8875
 9387TIP3   OH249575   3.620   0.212   0.305  0.6752  0.6180  0.0070
 9387TIP3    H149576   3.588   0.218   0.215  1.0286  1.1276 -0.0873
 9387TIP3    H249577   3.694   0.273   0.309  0.3613  0.9658  0.7695
 9388TIP3   OH249578   0.432   5.501   3.921 -0.3853  0.1935 -0.0758
 9388TIP3    H149579   0.504   5.475   3.979 -0.9426 -0.4069  0.3707
 9388TIP3    H249580   0.471   5.561   3.858  1.0076 -1.8255 -1.2370
 9389TIP3   OH249581   0.397   2.076  15.677  0.2495  0.2903  0.0846
 9389TIP3    H149582   0.310   2.101  15.709  0.1110  1.1025 -0.8682
 9389TIP3    H249583   0.427   2.010  15.739 -0.6157  0.7408  1.0167
 9390TIP3   OH249584   2.363   2.913  16.435 -0.1141  0.0570  0.2685
 9390TIP3    H149585   2.424   2.944  16.368  1.3339 -1.9976  0.5407
 9390TIP3    H249586   2.292   2.977  16.434  1.9081  2.4780 -0.2188
 9391TIP3   OH249587   5.788   4.015   2.045 -0.5119 -0.4513 -0.6400
 9391TIP3    H149588   5.882   4.027   2.033 -0.6971  1.5909 -0.4486
 9391TIP3    H249589   5.768   3.931   2.003  1.3613 -0.8834 -0.7449
 9392TIP3   OH249590   2.776   2.804  14.397  0.2979 -0.2781  0.5754
 9392TIP3    H149591   2.751   2.873  14.335  0.5523 -0.7928 -0.1080
 9392TIP3    H249592   2.816   2.851  14.471 -1.7371  0.5063  1.2542
 9393TIP3   OH249593   3.862   1.784  12.204  0.3172  0.7365 -0.0652
 9393TIP3    H149594   3.842   1.868  12.163  0.1335  0.8009  0.1489
 9393TIP3    H249595   3.790   1.771  12.266 -0.4232 -0.2520 -1.0916
 9394TIP3   OH249596   6.024   1.231   3.927 -0.4580  0.2862  0.0195
 9394TIP3    H149597   6.039   1.137   3.920 -1.9371  0.0148  0.1682
 9394TIP3    H249598   6.111   1.270   3.926  0.1819 -1.1092  0.3668
 9395TIP3   OH249599   0.574   3.070  13.325 -0.1328  0.1147 -0.1067
 9395TIP3    H149600   0.650   3.048  13.379  1.3803  1.4328 -1.5542
 9395TIP3    H249601   0.555   2.991  13.276  0.5172 -0.1413  0.0479
 9396TIP3   OH249602   3.439   2.825   5.367 -0.5519 -0.2178 -0.3147
 9396TIP3    H149603   3.470   2.787   5.284  0.4914 -0.4561  0.1654
 9396TIP3    H249604   3.428   2.918   5.348  0.6676 -0.0884 -0.4611
 9397TIP3   OH249605   4.340   2.164  11.889  0.0900  0.0709  0.6879
 9397TIP3    H149606   4.324   2.197  11.977  1.0345 -0.6347  1.1401
 9397TIP3    H249607   4.361   2.071  11.901 -0.1914 -0.1407 -0.3245
 9398TIP3   OH249608   4.287   0.622   5.729  0.3200  0.3121  0.0330
 9398TIP3    H149609   4.263   0.557   5.663 -0.6426 -0.5352  1.1671
 9398TIP3    H249610   4.363   0.666   5.692 -1.1806  1.0586 -2.3919
 9399TIP3   OH249611   5.856   5.706   3.411  0.5020  0.2143 -0.0667
 9399TIP3    H149612   5.786   5.648   3.441 -0.6388  1.6541  0.1758
 9399TIP3    H249613   5.813   5.764   3.347  1.4625  1.1177  0.0757
 9400TIP3   OH249614   4.750   3.951  13.059 -0.0380  0.0085  0.1565
 9400TIP3    H149615   4.721   3.994  13.140  1.4336 -0.3604  0.9297
 9400TIP3    H249616   4.718   3.861  13.067 -1.8274  0.5205 -0.7614
 9401TIP3   OH249617   2.986   5.230  15.760 -0.2079  0.0848  0.1077
 9401TIP3    H149618   3.012   5.139  15.747 -0.5692 -0.1663  1.0331
 9401TIP3    H249619   2.966   5.262  15.672  1.5575 -0.2127 -0.4359
 9402TIP3   OH249620   1.035   4.941  10.811  0.0163  0.0900  0.2651
 9402TIP3    H149621   0.953   4.943  10.761 -1.7004  1.8351  2.9192
 9402TIP3    H249622   1.092   4.884  10.759 -2.1205  0.4212 -2.7827
 9403TIP3   OH249623   1.068   3.548  14.632  0.8256 -0.3572 -0.1944
 9403TIP3    H149624   1.043   3.487  14.563  2.7068 -1.0887 -0.2825
 9403TIP3    H249625   1.162   3.564  14.618  0.6899  1.5022  0.6561
 9404TIP3   OH249626   0.463   5.730  16.577 -0.3441 -0.0164 -0.6647
 9404TIP3    H149627   0.439   5.696  16.491 -1.0575  0.4972 -0.6807
 9404TIP3    H249628   0.410   5.678  16.638 -2.7600  2.1002 -0.7880
 9405TIP3   OH249629   5.270   3.774  11.213  0.3562  0.0000  0.5603
 9405TIP3    H149630   5.216   3.850  11.189 -1.4252 -1.1570  0.7086
 9405TIP3    H249631   5.351   3.812  11.248 -0.3101  1.8149  0.2472
 9406TIP3   OH249632   1.603   3.572   4.681  0.0333 -0.4216 -0.8418
 9406TIP3    H149633   1.534   3.637   4.698 -0.7026 -1.3371 -0.1829
 9406TIP3    H249634   1.640   3.597   4.597 -0.1336  0.9361 -0.5271
 9407TIP3   OH249635   3.654   4.891  14.134  0.3638 -0.1125 -0.2919
 9407TIP3    H149636   3.572   4.845  14.119 -0.7617  1.7855 -0.3414
 9407TIP3    H249637   3.699   4.840  14.201  0.1399 -2.3379 -1.7289
 9408TIP3   OH249638   5.166   6.721   1.094 -0.0380 -0.1150 -0.2562
 9408TIP3    H149639   5.113   6.662   1.149  0.8668 -0.5644  0.1551
 9408TIP3    H249640   5.254   6.685   1.099  0.5626  1.3547  0.1033
 9409TIP3   OH249641   6.270   6.471  15.266  0.1106 -0.6158 -0.3472
 9409TIP3    H149642   6.221   6.437  15.340  0.2828 -0.2323 -0.0496
 9409TIP3    H249643   6.206   6.523  15.217  0.3042  0.2052  0.2538
 9410TIP3   OH249644   6.203   1.512   5.988  0.0640  0.3368  0.3791
 9410TIP3    H149645   6.144   1.437   5.985 -0.1261  0.4412  1.2799
 9410TIP3    H249646   6.245   1.507   6.074  1.8535 -0.0884 -0.4700
 9411TIP3   OH249647   4.372   3.378   5.833 -0.3350  0.8057 -0.0170
 9411TIP3    H149648   4.312   3.434   5.882 -1.1494  0.2216 -0.3195
 9411TIP3    H249649   4.370   3.295   5.881  1.0320  1.0815  0.5632
 9412TIP3   OH249650   3.432   3.524   1.491  0.1477  0.2575  0.2215
 9412TIP3    H149651   3.355   3.468   1.493  0.0377  0.4089  1.6280
 9412TIP3    H249652   3.439   3.558   1.581  2.5288 -0.6901  0.4734
 9413TIP3   OH249653   5.223   3.755  11.608 -0.1134  0.2597 -0.4404
 9413TIP3    H149654   5.230   3.660  11.602 -2.2803 -0.0870  1.3592
 9413TIP3    H249655   5.290   3.787  11.548 -0.3669 -2.3835 -2.3574
 9414TIP3   OH249656   6.695   6.052  11.666 -0.1240 -0.1596 -0.3253
 9414TIP3    H149657   6.611   6.091  11.691  0.2825  0.3984  0.1700
 9414TIP3    H249658   6.704   5.976  11.723 -1.0909 -1.2480 -1.5394
 9415TIP3   OH249659   2.954   3.411   4.744 -0.5134 -0.6162  0.0045
 9415TIP3    H149660   2.900   3.470   4.691 -0.6005  0.5954  1.3913
 9415TIP3    H249661   2.899   3.335   4.759 -0.8507 -0.5416 -0.7768
 9416TIP3   OH249662   0.693   4.032   1.614  0.0642  0.1930  0.0670
 9416TIP3    H149663   0.740   3.954   1.643  0.1743  0.1873 -0.1231
 9416TIP3    H249664   0.601   4.007   1.615 -0.0624  0.6085  1.6961
 9417TIP3   OH249665   6.482   5.858   2.232  0.1376  0.0013 -0.4730
 9417TIP3    H149666   6.572   5.880   2.257  0.1399 -1.9467  1.5942
 9417TIP3    H249667   6.490   5.774   2.186 -0.6664 -0.6202  0.4803
 9418TIP3   OH249668   3.739   2.841  13.119 -0.0081  0.3283  0.2979
 9418TIP3    H149669   3.760   2.834  13.212  0.5970  1.1820  0.2378
 9418TIP3    H249670   3.733   2.750  13.089 -0.7702  0.0351  1.2843
 9419TIP3   OH249671   4.557   4.042   5.741  0.3336 -0.3786 -0.3769
 9419TIP3    H149672   4.598   4.067   5.823 -0.5793  0.5122 -0.1677
 9419TIP3    H249673   4.605   4.090   5.674 -0.4603  0.8368 -0.1115
 9420TIP3   OH249674   6.170   1.017  16.539 -0.4501 -0.3332 -0.1174
 9420TIP3    H149675   6.195   0.949  16.602 -2.8956 -2.1820 -0.9667
 9420TIP3    H249676   6.237   1.014  16.472  0.9178  0.0200  1.1716
 9421TIP3   OH249677   1.034   1.963   4.806  0.1943  0.2357 -0.2132
 9421TIP3    H149678   0.992   2.049   4.807  1.2046  0.8832 -3.0853
 9421TIP3    H249679   0.966   1.902   4.835 -0.3634  1.9845  2.5297
 9422TIP3   OH249680   6.377   6.304   5.823  0.0547 -0.0081  0.1572
 9422TIP3    H149681   6.346   6.222   5.784 -0.9345  0.4063  0.0468
 9422TIP3    H249682   6.464   6.282   5.858  0.1582 -0.8819 -0.6005
 9423TIP3   OH249683   0.198   1.819  14.270 -0.1077 -0.3284 -0.0167
 9423TIP3    H149684   0.196   1.724  14.261 -0.2495 -0.2194 -1.2531
 9423TIP3    H249685   0.145   1.836  14.348  1.2764 -1.3525  1.2130
 9424TIP3   OH249686   4.880   0.365  13.193  0.1326  0.5232 -0.4098
 9424TIP3    H149687   4.838   0.283  13.168 -2.0005  1.3472  0.2521
 9424TIP3    H249688   4.894   0.356  13.287  0.5501  0.6595 -0.4565
 9425TIP3   OH249689   2.076   3.921   0.204 -0.4008 -1.0547 -0.5684
 9425TIP3    H149690   2.084   3.848   0.266 -0.8392 -0.1196  0.6405
 9425TIP3    H249691   2.136   3.988   0.239 -2.6336  0.5360  0.4487
 9426TIP3   OH249692   2.234   2.483  12.979 -0.1558  0.0836 -0.3612
 9426TIP3    H149693   2.242   2.403  13.031 -1.0226 -0.4276 -1.0106
 9426TIP3    H249694   2.306   2.478  12.916 -1.1426 -0.9906 -1.4564
 9427TIP3   OH249695   1.452   3.949  15.829 -0.2638  0.0786 -0.0126
 9427TIP3    H149696   1.497   3.904  15.758  0.5082  1.3119 -0.3331
 9427TIP3    H249697   1.434   3.881  15.893 -2.6212 -1.4595 -2.1170
 9428TIP3   OH249698   3.989   4.774   2.843 -0.8001  0.0538 -0.0202
 9428TIP3    H149699   3.895   4.792   2.843 -0.7822  0.2045  0.9508
 9428TIP3    H249700   3.996   4.684   2.877 -0.5203  0.6011  1.4438
 9429TIP3   OH249701   6.483   0.128   3.587  0.3736 -0.1556 -0.2949
 9429TIP3    H149702   6.547   0.168   3.528 -0.6361  2.1313  0.0691
 9429TIP3    H249703   6.398   0.161   3.557 -0.2947 -0.1365  1.5076
 9430TIP3   OH249704   5.256   5.133   2.763 -0.0459 -0.7677  0.0689
 9430TIP3    H149705   5.210   5.140   2.846 -1.0489 -0.2864 -0.5101
 9430TIP3    H249706   5.275   5.040   2.754 -0.5228 -0.9158  0.5283
 9431TIP3   OH249707   1.441   3.628  13.104  0.1901  0.2661 -0.3018
 9431TIP3    H149708   1.471   3.701  13.050 -1.4967  1.7456  0.6541
 9431TIP3    H249709   1.510   3.616  13.169  0.0166  1.8077  0.2173
 9432TIP3   OH249710   6.448   5.309   2.124 -0.3331  0.4290 -0.1083
 9432TIP3    H149711   6.399   5.380   2.166  0.5786  1.4355 -0.6766
 9432TIP3    H249712   6.396   5.285   2.048 -0.4105  0.8385 -0.1869
 9433TIP3   OH249713   0.758   6.127  17.050 -0.1942  0.2126  0.0740
 9433TIP3    H149714   0.745   6.221  17.036 -1.3205  0.0876  0.1672
 9433TIP3    H249715   0.781   6.119  17.143 -2.0019  0.2578  0.5627
 9434TIP3   OH249716   3.264   4.002  13.463 -0.4106 -0.2432  0.2078
 9434TIP3    H149717   3.243   3.975  13.374 -1.3701 -1.2418  0.7172
 9434TIP3    H249718   3.206   3.950  13.518  1.1915 -0.7209  1.5029
 9435TIP3   OH249719   2.797   4.098   1.634 -0.1898 -0.2297  0.1890
 9435TIP3    H149720   2.849   4.175   1.609 -1.8355  0.4146 -1.4411
 9435TIP3    H249721   2.828   4.028   1.576  2.9452 -1.6201  3.1763
 9436TIP3   OH249722   2.322   0.549  16.684  0.0391  0.1856  0.1554
 9436TIP3    H149723   2.367   0.574  16.765  0.7599 -0.5508  0.0034
 9436TIP3    H249724   2.335   0.623  16.626  0.3742  0.3208  0.3955
 9437TIP3   OH249725   1.281   6.306   4.578  0.4009 -0.0583  0.4858
 9437TIP3    H149726   1.250   6.218   4.600  1.3285 -0.5525 -0.1435
 9437TIP3    H249727   1.216   6.364   4.618  0.5647 -0.9721  2.1756
 9438TIP3   OH249728   4.861   2.469  16.888 -0.6296 -0.4251 -0.3967
 9438TIP3    H149729   4.823   2.449  16.802 -0.7851  0.0550 -0.4410
 9438TIP3    H249730   4.834   2.396  16.944 -0.0987 -1.0092 -0.8787
 9439TIP3   OH249731   4.996   2.813  13.579  0.3250 -0.2253  0.1466
 9439TIP3    H149732   4.992   2.719  13.566 -1.4985 -0.2201  0.4589
 9439TIP3    H249733   5.082   2.828  13.618  0.9509 -1.6461 -0.5989
 9440TIP3   OH249734   6.088   3.209   1.128 -0.2104 -0.4248  0.2536
 9440TIP3    H149735   6.109   3.269   1.056 -0.1631  0.8165  1.2729
 9440TIP3    H249736   6.157   3.142   1.124 -0.4155 -0.5960 -1.0607
 9441TIP3   OH249737   2.067   4.404  12.815 -0.3803 -0.5769 -0.6336
 9441TIP3    H149738   2.023   4.344  12.875 -0.3282 -0.3034 -0.3119
 9441TIP3    H249739   2.106   4.470  12.873 -0.8005  0.0019 -1.0005
 9442TIP3   OH249740   3.971   4.842  16.650 -0.5450  0.1312  0.0932
 9442TIP3    H149741   3.940   4.791  16.575  1.9487 -0.7277 -0.4615
 9442TIP3    H249742   3.969   4.781  16.723 -0.0572  0.0139  0.0139
 9443TIP3   OH249743   3.469   4.855  12.621 -0.8182 -0.2113  0.6154
 9443TIP3    H149744   3.468   4.796  12.545 -0.0264 -1.3856  1.4839
 9443TIP3    H249745   3.397   4.824  12.676 -1.4083  0.6552  0.3381
 9444TIP3   OH249746   5.269   1.607  12.897 -0.7715  0.0024  0.3731
 9444TIP3    H149747   5.300   1.591  12.986  0.4767 -0.1157 -0.0658
 9444TIP3    H249748   5.204   1.538  12.881 -1.1034  0.1092  1.2329
 9445TIP3   OH249749   0.939   5.240   2.494  0.4916  0.8067  0.2872
 9445TIP3    H149750   0.909   5.269   2.408  1.3455  0.3458 -0.1795
 9445TIP3    H249751   1.034   5.234   2.485  0.6172  1.0708  1.3692
 9446TIP3   OH249752   2.067   2.148  12.529 -0.1094 -0.4434 -0.2040
 9446TIP3    H149753   2.010   2.188  12.463  1.6142  2.5396 -0.0975
 9446TIP3    H249754   2.042   2.191  12.611 -0.1131 -1.7875  0.5183
 9447TIP3   OH249755   0.506   6.094  11.172  0.7513  0.1911  1.0009
 9447TIP3    H149756   0.535   6.084  11.082  0.0054 -0.0374  0.7788
 9447TIP3    H249757   0.507   6.005  11.208 -1.5339 -0.1586  0.3861
 9448TIP3   OH249758   5.316   2.569   3.556 -0.0725  0.0025 -0.8714
 9448TIP3    H149759   5.259   2.646   3.549 -0.6264 -0.0926  1.6802
 9448TIP3    H249760   5.397   2.603   3.595 -0.7740 -0.7937  1.4789
 9449TIP3   OH249761   1.787   2.232   4.876 -0.1591  0.2153  0.4114
 9449TIP3    H149762   1.853   2.192   4.818  0.1482  2.1553 -0.6841
 9449TIP3    H249763   1.724   2.271   4.815 -0.0729  1.9294  1.3738
 9450TIP3   OH249764   0.833   0.719   3.525  0.0415 -0.1897 -0.0291
 9450TIP3    H149765   0.826   0.812   3.505 -0.1087  0.0053  0.8893
 9450TIP3    H249766   0.767   0.677   3.469 -0.0953  0.2805 -0.2274
 9451TIP3   OH249767   5.812   2.234   3.410 -0.4054  0.0359 -0.4610
 9451TIP3    H149768   5.726   2.272   3.426 -0.3698 -0.1827  0.2870
 9451TIP3    H249769   5.871   2.309   3.404  0.2080  0.1716  4.1019
 9452TIP3   OH249770   5.217   2.333  13.385  0.1278 -0.1457  0.6112
 9452TIP3    H149771   5.288   2.366  13.440  2.0266 -2.4335 -0.3056
 9452TIP3    H249772   5.251   2.338  13.296 -1.9689  1.2234 -0.1970
 9453TIP3   OH249773   0.643   6.250  15.176  0.2066  0.4177 -0.0516
 9453TIP3    H149774   0.719   6.267  15.231 -0.3216  2.6235  0.0673
 9453TIP3    H249775   0.600   6.174  15.216  2.0355 -0.5573  0.1519
 9454TIP3   OH249776   4.086   5.167  14.253 -0.1024  0.0472  0.6865
 9454TIP3    H149777   4.108   5.184  14.161 -0.3522  1.2245  0.8266
 9454TIP3    H249778   4.018   5.100  14.249  0.9369 -1.0225  0.0940
 9455TIP3   OH249779   5.832   5.687  16.073 -0.0418  0.1915 -0.0601
 9455TIP3    H149780   5.896   5.724  16.134  0.8879 -2.2400  0.5254
 9455TIP3    H249781   5.873   5.607  16.041 -3.0917 -1.9070  0.9083
 9456TIP3   OH249782   2.018   2.010  15.380  0.4740  0.1297  0.0302
 9456TIP3    H149783   1.968   1.929  15.390 -0.4122  0.5770 -0.6979
 9456TIP3    H249784   2.030   2.042  15.470 -0.8887  0.2098  0.2112
 9457TIP3   OH249785   6.070   2.002   5.596  0.2590  0.0390  0.5417
 9457TIP3    H149786   5.985   1.966   5.573  0.4466  1.5775 -3.1040
 9457TIP3    H249787   6.132   1.932   5.577  0.1674  0.4676 -1.4855
 9458TIP3   OH249788   1.782   4.447   0.829 -0.6587  0.4437 -0.0750
 9458TIP3    H149789   1.741   4.371   0.871 -0.0918 -0.5265 -1.2106
 9458TIP3    H249790   1.728   4.521   0.855 -2.3037 -0.5946 -0.3900
 9459TIP3   OH249791   1.101   0.472  15.444 -0.6170  0.3968 -0.2059
 9459TIP3    H149792   1.194   0.453  15.438 -0.4251  1.4761 -0.8279
 9459TIP3    H249793   1.088   0.498  15.536 -0.1011  1.2343 -0.3610
 9460TIP3   OH249794   5.586   1.774  14.324  0.2214 -0.4992 -0.0440
 9460TIP3    H149795   5.543   1.854  14.295  0.5631 -0.3484 -0.1361
 9460TIP3    H249796   5.679   1.797  14.329  0.6935 -1.5727 -2.4799
 9461TIP3   OH249797   6.258   2.308   0.843  0.1986  0.3524  0.1203
 9461TIP3    H149798   6.184   2.369   0.852 -0.8512 -0.7072 -0.8550
 9461TIP3    H249799   6.243   2.242   0.910 -0.1585 -0.2438 -0.5278
 9462TIP3   OH249800   2.343   5.470  15.227  0.3417  0.0774 -0.1033
 9462TIP3    H149801   2.358   5.564  15.239 -0.0369 -0.0520  1.5845
 9462TIP3    H249802   2.343   5.458  15.132 -0.4852  1.9418 -0.3854
 9463TIP3   OH249803   4.127   3.891  13.615 -0.1887 -0.2615 -0.3830
 9463TIP3    H149804   4.105   3.820  13.675  0.2485 -0.7824 -0.8226
 9463TIP3    H249805   4.043   3.932  13.595 -0.4924 -0.8619 -0.3661
 9464TIP3   OH249806   2.441   0.244  12.457 -0.8502  0.0104 -0.4517
 9464TIP3    H149807   2.491   0.212  12.532  0.3187 -1.0124 -1.6023
 9464TIP3    H249808   2.466   0.336  12.449 -1.9409  0.4862  1.1110
 9465TIP3   OH249809   4.313   2.753  14.507  0.0026  0.0511  0.0078
 9465TIP3    H149810   4.350   2.790  14.427  0.3192 -0.7335 -0.2115
 9465TIP3    H249811   4.256   2.683  14.478  0.7217 -0.7527  0.4922
 9466TIP3   OH249812   1.568   5.762  16.912  0.2906 -0.3229  0.1049
 9466TIP3    H149813   1.544   5.739  17.002 -1.7687 -1.8592 -0.7437
 9466TIP3    H249814   1.524   5.696  16.858  0.1198  1.4959 -2.1355
 9467TIP3   OH249815   0.980   0.811   6.155  0.5634  0.7188 -0.1797
 9467TIP3    H149816   1.041   0.871   6.115  1.1417  1.3062  1.5017
 9467TIP3    H249817   0.973   0.840   6.246 -1.2938 -0.0577 -0.0158
 9468TIP3   OH249818   4.935   6.689   5.145  0.1988  0.2320  0.0874
 9468TIP3    H149819   4.880   6.745   5.090 -0.9252  0.7326  1.6619
 9468TIP3    H249820   4.983   6.750   5.201 -1.1860 -0.3200  1.9582
 9469TIP3   OH249821   3.703   2.878   4.265 -0.2714 -0.6511 -0.1911
 9469TIP3    H149822   3.648   2.896   4.341  1.1763  0.7948  0.5762
 9469TIP3    H249823   3.688   2.952   4.207  2.0816  0.7518  0.8189
 9470TIP3   OH249824   4.093   2.432  14.735  0.2185  0.5295  0.0898
 9470TIP3    H149825   4.111   2.526  14.742  0.8332  0.5885 -1.8488
 9470TIP3    H249826   4.072   2.418  14.643  0.0396 -1.2372  0.3625
 9471TIP3   OH249827   2.648   4.761  16.451 -0.0316 -0.5778  0.2193
 9471TIP3    H149828   2.698   4.808  16.518  0.2679  0.7663 -0.8969
 9471TIP3    H249829   2.607   4.830  16.398 -0.5898 -1.6026 -0.7382
 9472TIP3   OH249830   4.006   4.186  12.926  0.4608  0.2266  0.5145
 9472TIP3    H149831   3.968   4.270  12.952 -0.6878  0.0654 -0.5102
 9472TIP3    H249832   3.931   4.126  12.926  0.8798 -0.3275 -0.6781
 9473TIP3   OH249833   5.934   2.925  13.537  0.2807 -0.4706  0.1793
 9473TIP3    H149834   5.958   2.995  13.477 -0.9134 -0.4783 -0.3288
 9473TIP3    H249835   6.006   2.862  13.530  1.1472  0.4876  0.3145
 9474TIP3   OH249836   3.093   4.423  14.999  0.4256 -0.1422 -0.6928
 9474TIP3    H149837   3.012   4.466  14.971 -0.8331 -1.9923 -0.0698
 9474TIP3    H249838   3.145   4.414  14.919 -0.9248 -0.8216 -1.5265
 9475TIP3   OH249839   0.473   5.837  11.379 -0.1923 -0.2531 -0.1288
 9475TIP3    H149840   0.532   5.769  11.410  0.5175 -0.7585 -2.3654
 9475TIP3    H249841   0.406   5.845  11.447  1.4146 -0.9775  1.6080
 9476TIP3   OH249842   0.504   3.087   0.057  0.5313  0.4016 -0.0670
 9476TIP3    H149843   0.569   3.156   0.041  0.9422  0.5022  1.8492
 9476TIP3    H249844   0.555   3.009   0.074  0.1188  0.2317  0.4092
 9477TIP3   OH249845   5.508   4.263  16.570 -0.5184 -0.1388  0.0289
 9477TIP3    H149846   5.556   4.326  16.623  0.1671 -0.4737 -0.1738
 9477TIP3    H249847   5.418   4.296  16.568 -0.4683  0.0995  1.0512
 9478TIP3   OH249848   5.678   3.657   1.624 -0.0328  0.1577 -0.8445
 9478TIP3    H149849   5.734   3.697   1.557  0.4768  0.8342 -0.0399
 9478TIP3    H249850   5.605   3.619   1.575  1.4733 -1.4184 -2.0029
 9479TIP3   OH249851   2.154   3.124  13.343  0.6775 -0.5238  0.5078
 9479TIP3    H149852   2.246   3.149  13.359  0.2983  2.4052 -1.0967
 9479TIP3    H249853   2.143   3.134  13.249 -1.3998 -0.3138  0.7377
 9480TIP3   OH249854   4.226   1.289   5.578  0.2629  0.1497  0.2867
 9480TIP3    H149855   4.218   1.320   5.669 -2.2240  1.9592 -0.4411
 9480TIP3    H249856   4.299   1.340   5.543 -0.0386  0.9422  0.7578
 9481TIP3   OH249857   4.404   4.454  11.456  0.3910 -0.0238 -0.2522
 9481TIP3    H149858   4.344   4.488  11.522 -1.2826 -0.2029 -1.6194
 9481TIP3    H249859   4.390   4.359  11.458  1.1418 -0.1379 -0.1205
 9482TIP3   OH249860   2.349   6.363   5.068 -0.0487 -0.1902 -0.0983
 9482TIP3    H149861   2.269   6.327   5.031 -1.3629  0.9018  1.5871
 9482TIP3    H249862   2.374   6.302   5.136 -1.3179  1.0618  1.5812
 9483TIP3   OH249863   6.575   2.480   5.710  0.2212  0.0865  0.0118
 9483TIP3    H149864   6.640   2.413   5.728 -0.5021 -0.4933  0.5210
 9483TIP3    H249865   6.565   2.479   5.615  0.3244 -0.4238  0.0068
 9484TIP3   OH249866   6.347   4.966  13.728 -0.1487  0.6699 -0.1929
 9484TIP3    H149867   6.330   4.980  13.635 -1.4806 -1.1560 -0.2805
 9484TIP3    H249868   6.363   4.872  13.735 -0.7062  0.6747  1.5078
 9485TIP3   OH249869   4.227   4.437  15.203  0.1560 -0.5969  0.0772
 9485TIP3    H149870   4.297   4.381  15.169  1.0020  0.2377  0.4132
 9485TIP3    H249871   4.221   4.509  15.140 -0.4755 -0.7048  0.0033
 9486TIP3   OH249872   1.383   0.983  12.691 -0.3639 -0.4788  0.2921
 9486TIP3    H149873   1.411   0.934  12.614 -1.5402 -0.7668  0.0270
 9486TIP3    H249874   1.387   1.075  12.664 -3.1672 -0.6506 -1.0153
 9487TIP3   OH249875   1.125   0.386  13.987 -0.2680 -0.1746  0.3887
 9487TIP3    H149876   1.034   0.401  13.963 -0.0569  0.3543 -0.0989
 9487TIP3    H249877   1.122   0.363  14.080 -1.0698 -1.9570 -0.0438
 9488TIP3   OH249878   2.073   2.087   5.804  0.5488  0.0351 -0.2237
 9488TIP3    H149879   2.095   1.998   5.832 -1.5655 -1.1847 -2.1933
 9488TIP3    H249880   2.017   2.121   5.875  0.9108 -0.3932  0.2762
 9489TIP3   OH249881   5.550   2.663   2.727  0.4499 -0.1548  0.3981
 9489TIP3    H149882   5.568   2.706   2.810 -0.5590  1.3812 -0.1375
 9489TIP3    H249883   5.579   2.725   2.660 -0.2017 -0.6803 -0.4025
 9490TIP3   OH249884   5.373   6.772   3.184 -0.1095  0.1219  0.0998
 9490TIP3    H149885   5.292   6.739   3.222 -0.8402 -1.2062 -2.4203
 9490TIP3    H249886   5.354   6.864   3.163 -0.3740  0.2742  0.9542
 9491TIP3   OH249887   2.124   2.565   4.504  0.0573 -0.2092  0.1145
 9491TIP3    H149888   2.063   2.632   4.472  0.5322  0.2188  0.1007
 9491TIP3    H249889   2.204   2.613   4.525  0.4917 -0.8110 -0.1431
 9492TIP3   OH249890   6.529   6.575   0.550 -0.4302 -0.3979  0.8144
 9492TIP3    H149891   6.590   6.505   0.571  0.2034 -0.4689 -1.0776
 9492TIP3    H249892   6.556   6.648   0.605  0.6633 -0.7870  0.8121
 9493TIP3   OH249893   3.699   2.076  16.748  0.8773 -0.6091  0.2829
 9493TIP3    H149894   3.681   2.074  16.842  1.7398 -1.0897  0.4429
 9493TIP3    H249895   3.640   2.144  16.714  1.9750  1.0087  1.4713
 9494TIP3   OH249896   1.187   3.250  16.541 -0.0392 -0.2471  0.9085
 9494TIP3    H149897   1.131   3.275  16.615  3.4666  0.5747  3.5832
 9494TIP3    H249898   1.207   3.333  16.498 -1.4306 -0.6383 -0.5891
 9495TIP3   OH249899   2.346   6.690  14.091 -0.4946 -0.5192 -0.1775
 9495TIP3    H149900   2.420   6.712  14.148  0.5367  2.2929 -2.3542
 9495TIP3    H249901   2.277   6.751  14.118 -0.7088 -0.5625 -0.6325
 9496TIP3   OH249902   6.490   4.124  16.963 -0.4225 -0.1675  0.7442
 9496TIP3    H149903   6.407   4.119  16.915  0.0667 -2.5976  0.0142
 9496TIP3    H249904   6.536   4.197  16.923 -1.7058  0.4329  0.3091
 9497TIP3   OH249905   5.766   5.949  12.832  0.2425 -0.4344  0.6067
 9497TIP3    H149906   5.861   5.941  12.828  0.2834  0.4400 -0.8670
 9497TIP3    H249907   5.737   5.871  12.881  1.7533 -0.2163  1.9298
 9498TIP3   OH249908   5.888   5.337  11.470  0.6711 -0.4104 -0.6663
 9498TIP3    H149909   5.845   5.286  11.402  1.1406  0.7287 -1.8586
 9498TIP3    H249910   5.976   5.299  11.477  0.0311 -1.7807  0.7312
 9499TIP3   OH249911   0.587   3.989   4.403 -0.1780  0.0878 -0.0150
 9499TIP3    H149912   0.666   3.939   4.418 -0.4718 -0.8027 -1.2933
 9499TIP3    H249913   0.526   3.959   4.471 -0.3665 -1.3548 -0.7824
 9500TIP3   OH249914   0.647   0.331   2.841 -0.4764  0.3681  0.0751
 9500TIP3    H149915   0.721   0.271   2.844  0.4530  1.4884  0.0556
 9500TIP3    H249916   0.570   0.274   2.841  0.3621 -0.7997  0.6039
 9501TIP3   OH249917   2.003   2.746   2.021 -0.0867  0.4813 -0.3915
 9501TIP3    H149918   2.072   2.682   2.036  2.1939  2.6022 -1.2020
 9501TIP3    H249919   2.045   2.817   1.972 -2.9522  1.7215 -1.2928
 9502TIP3   OH249920   1.227   4.573  15.020  0.2037 -1.2838 -0.4840
 9502TIP3    H149921   1.173   4.497  15.001  2.7261 -3.1858 -0.5670
 9502TIP3    H249922   1.308   4.558  14.971  1.9694 -0.0565  1.8563
 9503TIP3   OH249923   5.223   1.180   3.864  0.5010  0.0359 -0.2315
 9503TIP3    H149924   5.303   1.132   3.888  0.4808 -0.3117 -0.8438
 9503TIP3    H249925   5.155   1.113   3.859  0.0333  0.4087  0.8437
 9504TIP3   OH249926   6.073   0.623  13.114 -0.2060  0.1742 -0.3600
 9504TIP3    H149927   6.068   0.531  13.088 -0.2014 -0.4860  1.7783
 9504TIP3    H249928   6.001   0.665  13.067 -1.6684 -1.4034  0.3566
 9505TIP3   OH249929   5.522   5.145   5.045  0.3195  0.2470 -0.0864
 9505TIP3    H149930   5.440   5.119   5.087 -0.0507 -0.5150 -1.2354
 9505TIP3    H249931   5.502   5.228   5.002  0.1510  0.0860 -0.3252
 9506TIP3   OH249932   3.357   0.244  11.808  0.2803 -0.6037  0.0218
 9506TIP3    H149933   3.271   0.202  11.802  0.5430 -1.1625  0.1072
 9506TIP3    H249934   3.410   0.201  11.740  0.6814 -0.7264  0.4032
 9507TIP3   OH249935   0.488   2.158  12.078 -0.1899 -0.0162 -0.4944
 9507TIP3    H149936   0.454   2.163  11.989 -0.5121 -0.1041 -0.3754
 9507TIP3    H249937   0.509   2.249  12.101  1.0387 -0.1176 -1.0992
 9508TIP3   OH249938   2.472   1.232   0.055  0.2356  0.4298 -0.0836
 9508TIP3    H149939   2.381   1.219   0.082 -0.1092  2.3293 -0.2059
 9508TIP3    H249940   2.523   1.215   0.134 -0.3921  1.2857  0.5276
 9509TIP3   OH249941   0.876   2.020   5.070  0.3560 -0.5071  0.4634
 9509TIP3    H149942   0.867   1.939   5.020  1.1022 -0.3867  0.1194
 9509TIP3    H249943   0.836   2.000   5.155  0.1472 -1.0944  0.2325
 9510TIP3   OH249944   5.953   3.472   5.372 -0.5022 -0.6204 -0.1307
 9510TIP3    H149945   5.965   3.382   5.343 -1.9891 -1.1305  0.7214
 9510TIP3    H249946   5.937   3.465   5.466  1.5610  0.7581  0.3763
 9511TIP3   OH249947   4.196   2.092  17.121  0.4954 -0.4208 -0.0408
 9511TIP3    H149948   4.173   2.174  17.077 -1.1566  0.0350  1.5915
 9511TIP3    H249949   4.256   2.118  17.191 -0.1436 -0.5637  0.5701
 9512TIP3   OH249950   6.736   5.431  15.399  0.0930  0.8553 -0.3498
 9512TIP3    H149951   6.677   5.362  15.430  0.3618  0.7718 -0.0189
 9512TIP3    H249952   6.798   5.386  15.342 -0.7705  1.1067 -1.5188
 9513TIP3   OH249953   6.213   4.707   4.473  0.4754  0.1959  0.0154
 9513TIP3    H149954   6.177   4.648   4.407  0.8322  0.4042 -0.3750
 9513TIP3    H249955   6.223   4.791   4.427 -0.2159  0.6134  0.6171
 9514TIP3   OH249956   5.566   0.641   5.759 -0.1783  0.0801 -0.8134
 9514TIP3    H149957   5.634   0.659   5.695  1.1136 -0.5755  0.3182
 9514TIP3    H249958   5.607   0.660   5.844 -0.7996 -1.9614  0.0203
 9515TIP3   OH249959   1.516   2.953  14.361 -0.0223  0.1310 -0.2334
 9515TIP3    H149960   1.470   2.966  14.278  0.1355  1.6112 -0.1241
 9515TIP3    H249961   1.539   3.042  14.389 -0.0019 -0.3518  1.3578
 9516TIP3   OH249962   3.337   2.725   5.755  0.2184 -0.1999  0.5101
 9516TIP3    H149963   3.398   2.762   5.691 -0.3690 -0.6486 -0.3306
 9516TIP3    H249964   3.256   2.774   5.742  0.4883  0.6536  1.8801
 9517TIP3   OH249965   1.403   2.861   5.549 -0.3684  0.3681 -0.0204
 9517TIP3    H149966   1.320   2.815   5.557  0.4649 -1.2707 -0.5113
 9517TIP3    H249967   1.448   2.844   5.632 -0.4483  1.1674  0.2038
 9518TIP3   OH249968   3.123   6.210  15.402 -0.0879 -0.2312 -0.1043
 9518TIP3    H149969   3.120   6.206  15.497  1.3123 -0.8628 -0.0666
 9518TIP3    H249970   3.140   6.302  15.381  1.7702 -0.4288  0.3597
 9519TIP3   OH249971   1.304   1.601  14.770 -0.3949 -0.5426  0.2227
 9519TIP3    H149972   1.256   1.525  14.803  0.5116 -0.9829  0.5409
 9519TIP3    H249973   1.304   1.590  14.675 -1.3052 -0.2927  0.1757
 9520TIP3   OH249974   0.181   1.649  10.348 -0.2662 -0.0619  0.0309
 9520TIP3    H149975   0.145   1.688  10.428  0.0807  0.5772 -0.1157
 9520TIP3    H249976   0.120   1.675  10.279 -0.6047 -0.6742  0.0984
 9521TIP3   OH249977   0.518   2.142   5.255  0.4778  0.2170 -0.1333
 9521TIP3    H149978   0.606   2.164   5.224  1.9908 -1.7429  2.3421
 9521TIP3    H249979   0.503   2.199   5.329 -0.5381  0.7900 -0.7613
 9522TIP3   OH249980   3.155   1.008   0.627  0.2103 -0.2961  0.4950
 9522TIP3    H149981   3.079   1.011   0.685 -0.5583 -1.9262 -0.3713
 9522TIP3    H249982   3.119   0.989   0.541  1.5792 -0.8482  0.0158
 9523TIP3   OH249983   6.086   3.864   4.552 -0.6381  0.0695  0.2193
 9523TIP3    H149984   6.005   3.815   4.537 -0.3804 -0.3683  0.2515
 9523TIP3    H249985   6.134   3.812   4.617  0.7607 -0.9675 -1.5424
 9524TIP3   OH249986   0.221   6.283  13.203 -0.0777  0.5107 -0.0359
 9524TIP3    H149987   0.244   6.261  13.113  1.4932  0.7382  0.2793
 9524TIP3    H249988   0.209   6.199  13.247  0.3045  0.3874 -0.1746
 9525TIP3   OH249989   0.723   3.951   1.146  0.0099  0.4193  0.3759
 9525TIP3    H149990   0.663   3.977   1.216  0.0388  1.9544 -0.1254
 9525TIP3    H249991   0.674   3.886   1.095  0.0268 -0.7965  1.8266
 9526TIP3   OH249992   1.192   1.850  16.606 -0.4023  0.2661 -0.8088
 9526TIP3    H149993   1.148   1.823  16.686  3.0181  0.2799  1.2492
 9526TIP3    H249994   1.199   1.769  16.555 -0.0748 -0.3853  0.2386
 9527TIP3   OH249995   5.638   2.723   5.560 -0.5550 -0.0335 -0.0055
 9527TIP3    H149996   5.613   2.715   5.468  1.0924  1.6875 -0.6853
 9527TIP3    H249997   5.600   2.807   5.587 -0.3425 -0.1421  0.6396
 9528TIP3   OH249998   1.100   6.373  16.086  0.1811  0.0554  0.1638
 9528TIP3    H149999   1.047   6.418  16.152 -0.5550  0.2469 -0.5416
 9528TIP3    H250000   1.178   6.345  16.133 -1.4027 -1.9957  1.7735
 9529TIP3   OH250001   6.728   5.571  12.945  0.2827  0.0845  0.2328
 9529TIP3    H150002   6.691   5.585  13.032  0.9457  1.8558  0.2519
 9529TIP3    H250003   6.822   5.574  12.958  0.3945  2.1633 -0.7812
 9530TIP3   OH250004   0.916   5.545  11.181  0.5935  0.0524  0.4383
 9530TIP3    H150005   0.911   5.460  11.138 -0.3681  0.0901  0.4456
 9530TIP3    H250006   0.831   5.586  11.163  0.6722  0.6081  1.2654
 9531TIP3   OH250007   4.673   0.740  11.257 -0.5053  0.5164  0.0616
 9531TIP3    H150008   4.676   0.646  11.274  3.0576  0.2395 -1.2474
 9531TIP3    H250009   4.674   0.780  11.344 -0.1345 -0.6701  0.6237
 9532TIP3   OH250010   1.317   5.300   4.765  0.0912 -0.0695 -0.7272
 9532TIP3    H150011   1.254   5.352   4.716  0.8569 -0.0719 -1.7300
 9532TIP3    H250012   1.332   5.349   4.845 -1.7397 -0.4294 -0.1077
 9533TIP3   OH250013   2.344   2.361  13.881 -0.3122 -0.3164 -0.1603
 9533TIP3    H150014   2.269   2.376  13.939  0.4850 -1.0430  1.1138
 9533TIP3    H250015   2.315   2.290  13.823 -1.0024  0.1882 -0.4512
 9534TIP3   OH250016   0.199   1.131   0.958 -0.7044 -0.1763 -0.1407
 9534TIP3    H150017   0.192   1.186   0.880 -0.0806 -1.0003 -0.8012
 9534TIP3    H250018   0.271   1.168   1.008 -1.2401  0.4803  0.1619
 9535TIP3   OH250019   2.317   1.872  14.384  0.5191  0.4293 -0.1788
 9535TIP3    H150020   2.335   1.947  14.327  0.7508  0.3672 -0.1881
 9535TIP3    H250021   2.333   1.905  14.472  0.4916  0.4285 -0.1736
 9536TIP3   OH250022   0.653   5.307   1.627  0.3983  0.3246 -0.7967
 9536TIP3    H150023   0.648   5.214   1.607  1.0697  0.2793 -0.7830
 9536TIP3    H250024   0.567   5.342   1.603 -0.2916 -0.5082  0.3425
 9537TIP3   OH250025   5.332   5.605  13.630  0.1736 -0.2996 -0.0727
 9537TIP3    H150026   5.372   5.547  13.566 -0.6543 -0.7791 -0.1785
 9537TIP3    H250027   5.238   5.585  13.625  0.0189  0.1492  0.7883
 9538TIP3   OH250028   2.385   5.790  13.825 -0.0125  0.8887  0.3319
 9538TIP3    H150029   2.411   5.707  13.865 -0.2309  1.0509  0.8171
 9538TIP3    H250030   2.308   5.817  13.875 -0.7376  0.7359 -0.6497
 9539TIP3   OH250031   6.354   0.947  16.374  0.4268 -0.4691 -0.5658
 9539TIP3    H150032   6.414   1.014  16.341  2.0611 -1.8751 -0.6244
 9539TIP3    H250033   6.407   0.867  16.376 -0.5773 -1.1673  2.2740
 9540TIP3   OH250034   4.274   1.882  16.192  0.8408 -0.2058 -1.0670
 9540TIP3    H150035   4.228   1.824  16.132  1.1303 -2.3030  0.6072
 9540TIP3    H250036   4.353   1.909  16.145  0.1094 -0.1644 -2.3129
 9541TIP3   OH250037   0.818   0.556   1.395  0.0301 -0.2838 -0.0650
 9541TIP3    H150038   0.742   0.561   1.452  0.6678  0.1712  0.7703
 9541TIP3    H250039   0.880   0.501   1.443  1.0372  1.0663  0.2447
 9542TIP3   OH250040   2.924   1.623   1.394  0.1078 -0.5866  0.7543
 9542TIP3    H150041   3.008   1.661   1.367 -0.1388 -0.0345  0.7742
 9542TIP3    H250042   2.945   1.572   1.472  0.2174  0.4581  1.4118
 9543TIP3   OH250043   4.293   0.068  15.573  0.1248 -0.3171 -0.4927
 9543TIP3    H150044   4.383   0.092  15.553  0.0520 -0.1788 -0.6575
 9543TIP3    H250045   4.248   0.152  15.586 -0.4064 -0.2905 -2.2144
 9544TIP3   OH250046   1.588   6.102  16.016  0.2122  0.1766 -0.1679
 9544TIP3    H150047   1.611   6.024  15.966  0.5917  0.1999 -0.0327
 9544TIP3    H250048   1.492   6.100  16.021  0.2904 -1.7674  2.2009
 9545TIP3   OH250049   1.157   1.760   5.726  0.1383 -0.1165 -0.1889
 9545TIP3    H150050   1.144   1.675   5.684 -0.2994 -0.4120  0.5195
 9545TIP3    H250051   1.241   1.753   5.771  0.1732 -0.1283 -0.2578
 9546TIP3   OH250052   5.406   0.999   3.951 -0.0969 -0.5726  0.0094
 9546TIP3    H150053   5.388   0.911   3.984  1.0847 -0.8139  0.0653
 9546TIP3    H250054   5.485   0.989   3.898  0.6945  0.6432  0.9051
 9547TIP3   OH250055   5.617   3.119  11.991  0.3553  0.4090  0.3022
 9547TIP3    H150056   5.679   3.047  12.005 -0.2530  0.2176  2.3534
 9547TIP3    H250057   5.647   3.188  12.050 -0.4441  0.9319  0.1093
 9548TIP3   OH250058   4.995   0.814   5.909 -0.4266 -0.3053 -0.0455
 9548TIP3    H150059   4.991   0.792   6.002  0.5399  1.9136  0.5978
 9548TIP3    H250060   4.903   0.814   5.880 -0.6714 -1.9174  0.6349
 9549TIP3   OH250061   1.503   0.849  13.411  0.1683 -0.5478 -0.0632
 9549TIP3    H150062   1.505   0.838  13.506  0.1849 -0.2786 -0.0310
 9549TIP3    H250063   1.562   0.923  13.395  0.0785 -0.5212 -0.2713
 9550TIP3   OH250064   1.963   6.668   3.275  0.4299  0.2427  0.2401
 9550TIP3    H150065   2.028   6.623   3.221  1.0247 -0.1712  1.2751
 9550TIP3    H250066   1.902   6.705   3.212  0.8507 -0.6099 -0.7019
 9551TIP3   OH250067   3.991   3.548  14.721 -0.3852 -0.3761 -0.0320
 9551TIP3    H150068   4.081   3.534  14.750  0.0414 -0.0039 -1.1169
 9551TIP3    H250069   3.959   3.620  14.775 -0.2887 -0.9797  0.8566
 9552TIP3   OH250070   4.878   4.427   5.457  0.5289 -0.1235 -0.3707
 9552TIP3    H150071   4.957   4.385   5.424 -0.1213 -0.0608 -2.1095
 9552TIP3    H250072   4.910   4.496   5.516  1.6672 -1.4163  0.5694
 9553TIP3   OH250073   6.406   6.698   5.073 -0.8494  0.4046  0.8387
 9553TIP3    H150074   6.459   6.725   5.147  1.1635  0.7768 -0.6508
 9553TIP3    H250075   6.392   6.605   5.085  0.6899  0.1727  0.9847
 9554TIP3   OH250076   5.057   2.662   1.586 -0.0237 -0.4042 -0.3771
 9554TIP3    H150077   5.039   2.727   1.654  0.7024  0.7007 -1.2149
 9554TIP3    H250078   5.133   2.615   1.618  1.2443  1.0997 -1.0598
 9555TIP3   OH250079   1.517   5.977  14.225 -0.1089 -0.1470 -0.5396
 9555TIP3    H150080   1.481   6.064  14.206  0.0067  0.5305  2.0043
 9555TIP3    H250081   1.444   5.929  14.263  0.5777 -0.1186  0.8755
 9556TIP3   OH250082   2.857   5.645   1.280 -0.0219  0.5560  0.0354
 9556TIP3    H150083   2.774   5.603   1.300  0.0941  0.4305  0.2539
 9556TIP3    H250084   2.912   5.627   1.356 -0.4106  2.2715  0.7883
 9557TIP3   OH250085   2.154   5.404   3.913 -0.4482 -0.1467  0.3908
 9557TIP3    H150086   2.151   5.309   3.925 -1.8224 -0.0094  1.3555
 9557TIP3    H250087   2.204   5.436   3.987 -0.7224 -0.0506  0.5342
 9558TIP3   OH250088   6.801   4.631  14.886 -1.2380  0.4050 -0.5247
 9558TIP3    H150089   6.876   4.611  14.830 -0.2227  0.5730  0.7476
 9558TIP3    H250090   6.731   4.654  14.825 -0.4146 -0.2498 -1.7524
 9559TIP3   OH250091   6.113   2.584   5.291 -0.5081  0.7349  0.3548
 9559TIP3    H150092   6.049   2.527   5.334  0.4781 -0.4148  0.3546
 9559TIP3    H250093   6.129   2.543   5.206 -0.6981  1.7069 -0.1678
 9560TIP3   OH250094   5.863   5.631  15.181 -0.0159  0.1094 -0.1826
 9560TIP3    H150095   5.913   5.657  15.104  1.2839 -2.9421 -0.5006
 9560TIP3    H250096   5.779   5.599  15.146 -0.0717  0.2411 -0.1696
 9561TIP3   OH250097   5.148   2.424   0.064 -0.0568 -0.3459 -0.3067
 9561TIP3    H150098   5.087   2.414  -0.009 -0.6701 -0.8504  0.2632
 9561TIP3    H250099   5.124   2.355   0.125  0.4796  0.0420  0.3603
 9562TIP3   OH250100   0.948   5.614   3.243  0.7084  0.2377  0.0592
 9562TIP3    H150101   0.983   5.696   3.208 -0.2215  0.3758 -0.5988
 9562TIP3    H250102   0.944   5.627   3.337 -1.8292  1.9774 -0.1817
 9563TIP3   OH250103   0.154   4.871  11.858  0.0831 -0.7193  0.0462
 9563TIP3    H150104   0.091   4.857  11.787 -2.4885  1.3460  1.7057
 9563TIP3    H250105   0.140   4.797  11.917 -0.6138 -0.4478  0.2387
 9564TIP3   OH250106   3.824   1.230  12.847 -0.0838  0.8732 -0.0964
 9564TIP3    H150107   3.859   1.266  12.929 -0.3308  0.7379  0.0720
 9564TIP3    H250108   3.805   1.138  12.868  0.0671  0.7807 -0.3738
 9565TIP3   OH250109   3.461   1.386  10.598 -0.1262 -0.4126 -0.1956
 9565TIP3    H150110   3.419   1.406  10.514  0.0061 -0.4621 -0.2735
 9565TIP3    H250111   3.487   1.472  10.632  0.2901 -0.4345 -0.4525
 9566TIP3   OH250112   4.665   0.846   4.483 -0.0632 -0.0135 -0.0293
 9566TIP3    H150113   4.640   0.853   4.575  0.1754  0.8516 -0.0216
 9566TIP3    H250114   4.734   0.780   4.482 -2.5037 -2.7640 -0.1010
 9567TIP3   OH250115   2.439   5.450   5.823  0.3329  0.8403 -0.5557
 9567TIP3    H150116   2.453   5.463   5.917  1.4753 -1.1218 -0.3872
 9567TIP3    H250117   2.349   5.418   5.817  1.4098 -2.8317  0.4282
 9568TIP3   OH250118   1.531   4.448   5.858  0.4887  0.0128 -0.4900
 9568TIP3    H150119   1.472   4.388   5.813 -1.1277  0.9084  0.3403
 9568TIP3    H250120   1.570   4.396   5.928 -0.9501 -0.0965  0.2728
 9569TIP3   OH250121   3.414   4.858  16.660  0.1801 -0.1636  0.7920
 9569TIP3    H150122   3.391   4.880  16.569 -0.6035  0.4853  1.1281
 9569TIP3    H250123   3.332   4.827  16.698  0.7818 -1.5977  0.9556
 9570TIP3   OH250124   5.319   5.099  15.066  0.3445 -0.4272  0.3526
 9570TIP3    H150125   5.326   5.192  15.045  1.3550 -0.4246  0.6117
 9570TIP3    H250126   5.238   5.070  15.025 -0.5687  0.8201  1.2183
 9571TIP3   OH250127   4.381   0.500  11.233  1.2418 -0.3679 -0.1501
 9571TIP3    H150128   4.359   0.589  11.207 -2.5058 -0.8860  0.6669
 9571TIP3    H250129   4.313   0.446  11.193  1.4301 -2.4290  2.0840
 9572TIP3   OH250130   2.274   3.890   5.499 -0.7468 -0.2219 -0.0636
 9572TIP3    H150131   2.248   3.978   5.470  3.3817  1.2890  0.2628
 9572TIP3    H250132   2.258   3.890   5.593  0.5477  0.7924  0.1866
 9573TIP3   OH250133   5.338   0.306  16.194 -0.1216  0.3437 -0.1396
 9573TIP3    H150134   5.379   0.365  16.256 -0.7121  1.0892 -0.4460
 9573TIP3    H250135   5.404   0.295  16.125  0.2307  0.1357  0.2221
 9574TIP3   OH250136   0.812   2.857   2.321  0.0650  0.2982  0.1485
 9574TIP3    H150137   0.836   2.839   2.230 -0.8434 -0.8384  0.1116
 9574TIP3    H250138   0.755   2.784   2.345 -0.6787  1.2254  1.2499
 9575TIP3   OH250139   6.802   0.870   1.838  0.3964 -0.8149 -0.2484
 9575TIP3    H150140   6.785   0.936   1.906  1.3843 -1.9076  1.1060
 9575TIP3    H250141   6.723   0.816   1.837 -0.3702  0.2578 -1.2822
 9576TIP3   OH250142   2.852   2.997  14.589  0.2520 -0.0181  0.0377
 9576TIP3    H150143   2.847   3.001  14.685 -1.4720 -1.9907  0.1093
 9576TIP3    H250144   2.851   3.088  14.561  0.1017  0.5854  1.8673
 9577TIP3   OH250145   2.978   5.314  10.700 -0.0624  0.6412 -0.0469
 9577TIP3    H150146   3.059   5.339  10.655 -0.7120  2.7310 -0.1748
 9577TIP3    H250147   2.951   5.233  10.658  0.3476  1.5461 -2.1937
 9578TIP3   OH250148   6.207   6.175   0.403 -0.2018  0.3944  0.7517
 9578TIP3    H150149   6.225   6.261   0.364  0.6993  0.2764  0.8966
 9578TIP3    H250150   6.287   6.153   0.450 -0.0882 -0.9492 -0.0471
 9579TIP3   OH250151   6.731   4.715   3.908 -0.3448 -0.2175 -0.3091
 9579TIP3    H150152   6.690   4.629   3.900  0.5967 -0.7378  0.2451
 9579TIP3    H250153   6.691   4.767   3.839 -0.8004 -1.1533 -0.7709
 9580TIP3   OH250154   4.579   1.372  11.661  0.1305  0.0194 -0.1380
 9580TIP3    H150155   4.660   1.420  11.646  1.4332 -1.1742  2.4755
 9580TIP3    H250156   4.529   1.427  11.722 -0.7058  0.3510 -1.0837
 9581TIP3   OH250157   4.751   6.341   2.020 -0.1778  0.2970  0.1920
 9581TIP3    H150158   4.784   6.269   2.074 -1.2389 -0.1839  0.2428
 9581TIP3    H250159   4.829   6.385   1.987  0.5151  0.8733  2.4292
 9582TIP3   OH250160   6.028   4.045  13.857  0.3297 -0.1366  0.4297
 9582TIP3    H150161   6.068   4.125  13.891  1.2757 -0.6527  0.5615
 9582TIP3    H250162   6.055   3.977  13.918  0.0994 -0.6744 -0.0647
 9583TIP3   OH250163   5.168   4.022   4.177  0.5120 -0.2104 -0.3774
 9583TIP3    H150164   5.079   4.044   4.152 -0.3283 -0.1937  2.2975
 9583TIP3    H250165   5.175   3.928   4.160  0.2644 -0.0677 -1.3086
 9584TIP3   OH250166   1.352   1.246   0.739  0.1267 -0.1690  0.6307
 9584TIP3    H150167   1.280   1.201   0.694 -1.6325  0.4553  2.6816
 9584TIP3    H250168   1.378   1.186   0.808  2.0924 -0.6576 -0.4567
 9585TIP3   OH250169   5.872   4.527   2.403 -0.2688 -0.0530 -0.2185
 9585TIP3    H150170   5.933   4.461   2.370  0.4789  0.6300 -0.2512
 9585TIP3    H250171   5.924   4.577   2.466 -0.6713  0.8117 -0.5618
 9586TIP3   OH250172   1.029   2.076   2.888 -0.1697  0.2268  0.4115
 9586TIP3    H150173   1.008   2.050   2.978  0.1464  0.0042  0.4232
 9586TIP3    H250174   0.951   2.122   2.858 -1.2388 -1.7621 -0.0173
 9587TIP3   OH250175   4.668   3.295  14.708 -0.0837  0.2234  0.2224
 9587TIP3    H150176   4.762   3.291  14.722  0.0298 -1.2605 -0.7878
 9587TIP3    H250177   4.634   3.219  14.756 -0.4677 -0.6734 -1.3858
 9588TIP3   OH250178   6.429   1.918   5.618  0.8988  0.0358 -0.0826
 9588TIP3    H150179   6.381   1.951   5.694  0.5968 -2.2169  0.7813
 9588TIP3    H250180   6.475   1.841   5.651 -0.7731 -2.1789 -2.5625
 9589TIP3   OH250181   4.448   6.132  11.053  0.4187 -0.0732  0.1281
 9589TIP3    H150182   4.539   6.120  11.028  0.1417 -1.6965 -0.2387
 9589TIP3    H250183   4.428   6.056  11.108 -1.0446 -0.4284 -0.8298
 9590TIP3   OH250184   3.797   2.255  12.437  0.5216 -0.2681  0.3087
 9590TIP3    H150185   3.849   2.334  12.420 -0.2008 -0.0211 -0.9016
 9590TIP3    H250186   3.820   2.195  12.366  0.0334 -0.6111  0.4300
 9591TIP3   OH250187   1.845   3.698   5.996 -0.1538  0.3949  0.2063
 9591TIP3    H150188   1.815   3.785   5.968 -2.4606 -0.0927  0.9269
 9591TIP3    H250189   1.782   3.672   6.063  1.2762 -1.2983  0.9699
 9592TIP3   OH250190   0.163   4.480  12.259 -0.7202  0.6651  0.2558
 9592TIP3    H150191   0.237   4.422  12.276 -2.6350 -0.9875  4.0309
 9592TIP3    H250192   0.132   4.453  12.172  2.3961  0.8197 -1.0495
 9593TIP3   OH250193   5.317   1.816   1.683  0.1284  0.4405  0.0453
 9593TIP3    H150194   5.345   1.742   1.628  0.0296  0.5508 -0.1534
 9593TIP3    H250195   5.233   1.842   1.647  0.2028  0.7057  0.0643
 9594TIP3   OH250196   0.675   5.513  13.919  0.1000 -0.1688 -0.4735
 9594TIP3    H150197   0.627   5.478  13.844  2.1351 -1.5400 -1.2262
 9594TIP3    H250198   0.728   5.584  13.882  0.3367 -0.1592 -0.1197
 9595TIP3   OH250199   4.593   6.113   0.841 -0.1409  0.3309 -0.0694
 9595TIP3    H150200   4.586   6.203   0.809 -1.6635  0.2100 -0.1513
 9595TIP3    H250201   4.503   6.087   0.858  0.0778 -1.8126 -1.7806
 9596TIP3   OH250202   4.739   4.723  16.235  0.0689 -0.4237 -0.3843
 9596TIP3    H150203   4.736   4.704  16.141  0.0876  1.8631 -0.9171
 9596TIP3    H250204   4.696   4.808  16.243 -0.7981 -1.0140  1.8438
 9597TIP3   OH250205   0.008   5.415   3.225 -0.3601  0.0121 -0.1935
 9597TIP3    H150206  -0.037   5.462   3.154 -1.8658 -0.7730  0.1919
 9597TIP3    H250207  -0.063   5.389   3.284  0.6000 -1.4697  0.3462
 9598TIP3   OH250208   2.973   6.430  15.605  0.2959  0.0655  0.6115
 9598TIP3    H150209   2.894   6.426  15.550  1.9038 -1.3819 -1.7707
 9598TIP3    H250210   2.987   6.523  15.621 -1.1673  0.4189 -0.0244
 9599TIP3   OH250211   5.448   6.477  13.978 -0.2733 -0.6406 -0.1984
 9599TIP3    H150212   5.468   6.571  13.972  0.2562 -0.8177 -1.6309
 9599TIP3    H250213   5.355   6.471  13.954  0.2485 -0.6659 -2.4610
 9600TIP3   OH250214   1.488   6.319   2.305  0.0565 -0.0827 -0.0516
 9600TIP3    H150215   1.409   6.374   2.301 -1.4594 -2.0147  1.3606
 9600TIP3    H250216   1.479   6.260   2.230  1.2410  0.9601 -1.0592
 9601TIP3   OH250217   6.213   6.648   4.557 -0.4619 -0.2624  0.4775
 9601TIP3    H150218   6.303   6.674   4.539 -0.3025 -0.1859  1.3689
 9601TIP3    H250219   6.189   6.592   4.482 -0.1655  0.8515 -0.4822
 9602TIP3   OH250220   3.488   6.452   5.258 -0.6364  0.0846  0.0110
 9602TIP3    H150221   3.435   6.532   5.254 -1.9370 -0.4310  3.2880
 9602TIP3    H250222   3.556   6.472   5.322  1.0787 -0.4240 -1.5828
 9603TIP3   OH250223   0.754   5.722   3.967 -0.2052 -0.0901  0.1889
 9603TIP3    H150224   0.842   5.703   3.933 -1.2500 -1.4745 -1.9621
 9603TIP3    H250225   0.744   5.660   4.040  0.0938 -0.9198 -0.4579
 9604TIP3   OH250226   2.302   3.650  11.828  0.0967  0.0054 -0.3348
 9604TIP3    H150227   2.290   3.620  11.919  0.4818  2.0662  0.4450
 9604TIP3    H250228   2.241   3.723  11.818 -0.6519 -0.8108 -2.0894
 9605TIP3   OH250229   4.387   3.502   3.573  0.1812  0.1345 -0.1142
 9605TIP3    H150230   4.423   3.472   3.657 -0.5405 -0.6514 -0.0657
 9605TIP3    H250231   4.457   3.552   3.533  0.6226  0.3104  0.8539
 9606TIP3   OH250232   6.247   2.455  15.865 -0.1694 -1.1762  0.3118
 9606TIP3    H150233   6.264   2.403  15.943 -2.7865 -2.0364  0.3812
 9606TIP3    H250234   6.245   2.545  15.896  0.1313 -1.3985  0.9857
 9607TIP3   OH250235   0.585   5.175  15.665 -0.3261 -0.2480  0.1862
 9607TIP3    H150236   0.596   5.217  15.750 -1.8108 -1.8507  1.2401
 9607TIP3    H250237   0.542   5.242  15.611  2.7014  1.6171 -0.1590
 9608TIP3   OH250238   4.014   3.819   1.458  0.1951 -0.0472 -0.1230
 9608TIP3    H150239   4.045   3.860   1.377  3.0138  0.7298  1.2420
 9608TIP3    H250240   4.075   3.849   1.525 -2.1044 -0.5912  2.3569
 9609TIP3   OH250241   2.425   3.025  11.165 -0.0656 -0.0211  0.2384
 9609TIP3    H150242   2.508   2.999  11.124 -1.4255 -1.6524 -1.6956
 9609TIP3    H250243   2.391   3.094  11.108 -0.6986 -0.3782  0.1749
 9610TIP3   OH250244   3.209   1.386   6.271  0.4825  0.0113  0.3772
 9610TIP3    H150245   3.178   1.297   6.252 -1.2568  0.4565  0.9724
 9610TIP3    H250246   3.302   1.375   6.290  0.2803 -1.6997  0.5428
 9611TIP3   OH250247   3.448   2.366   0.803 -0.0255  0.4763 -0.2576
 9611TIP3    H150248   3.518   2.378   0.867  0.2423 -0.6550 -0.3135
 9611TIP3    H250249   3.390   2.301   0.843 -0.5558  0.7355 -0.6003
 9612TIP3   OH250250   0.740   3.706   2.638  0.3977  0.2852 -0.5616
 9612TIP3    H150251   0.670   3.747   2.689  1.2273  0.4429  0.4719
 9612TIP3    H250252   0.812   3.769   2.640  0.8705 -0.2342 -0.9083
 9613TIP3   OH250253   1.503   0.455  12.225  0.1658  0.2590  0.4201
 9613TIP3    H150254   1.562   0.466  12.150  0.3378  0.0812  0.5265
 9613TIP3    H250255   1.427   0.508  12.204 -0.3913 -0.8606 -0.5117
 9614TIP3   OH250256   1.919   4.033  13.954 -0.0609  0.1746 -0.1821
 9614TIP3    H150257   1.877   4.117  13.937  0.2845  0.0546 -1.8668
 9614TIP3    H250258   1.950   4.004  13.868  1.2865 -0.9021  0.6203
 9615TIP3   OH250259   5.045   3.816  10.961 -0.0243  0.1032  1.0280
 9615TIP3    H150260   5.095   3.734  10.962  0.0627  0.0601 -1.5869
 9615TIP3    H250261   5.019   3.828  10.870 -2.4077  1.6065  1.8181
 9616TIP3   OH250262   0.096   0.369  13.238  0.4687  0.2953 -0.1177
 9616TIP3    H150263   0.174   0.319  13.213 -0.4952 -1.2474 -0.1542
 9616TIP3    H250264   0.067   0.410  13.156  1.0043  0.5583 -0.1830
 9617TIP3   OH250265   0.017   4.378   3.565 -0.2808 -0.3338  0.1091
 9617TIP3    H150266  -0.078   4.386   3.572 -0.3293 -1.3041  0.8575
 9617TIP3    H250267   0.045   4.355   3.654  0.3666 -2.5296 -0.6038
 9618TIP3   OH250268   2.400   0.210  15.174  0.6279  0.5712 -0.3283
 9618TIP3    H150269   2.392   0.115  15.162 -0.6627  0.6505 -0.2301
 9618TIP3    H250270   2.321   0.235  15.222  0.4688  1.8399 -1.2112
 9619TIP3   OH250271   2.695   5.523   5.543  0.7632 -0.0013  0.1842
 9619TIP3    H150272   2.785   5.500   5.523  1.0431  0.7210  0.5997
 9619TIP3    H250273   2.643   5.459   5.494  1.4952 -0.6754  0.2549
 9620TIP3   OH250274   5.364   3.531  17.039 -0.6113  0.1853 -0.6336
 9620TIP3    H150275   5.283   3.511  16.992 -0.6219 -0.7863 -0.2200
 9620TIP3    H250276   5.335   3.572  17.121 -0.8372 -2.0985  0.5070
 9621TIP3   OH250277   2.196   3.111   3.187 -0.4054  0.3766  0.5030
 9621TIP3    H150278   2.108   3.075   3.187 -0.4392  0.4554  0.2341
 9621TIP3    H250279   2.204   3.155   3.102  0.0376  0.0061  0.3479
 9622TIP3   OH250280   5.082   5.261  16.632 -0.1937 -0.2204 -0.1233
 9622TIP3    H150281   5.109   5.173  16.606  2.3545  0.8864 -1.5747
 9622TIP3    H250282   5.055   5.303  16.550  0.0415  0.7905  0.2960
 9623TIP3   OH250283   0.657   2.199  11.690 -0.1692 -0.2176  0.4520
 9623TIP3    H150284   0.637   2.255  11.616 -0.3857 -0.7005  0.1374
 9623TIP3    H250285   0.573   2.184  11.733 -0.2367 -0.8901  0.1031
 9624TIP3   OH250286   1.759   2.064   3.295 -0.0705 -0.1371 -0.1415
 9624TIP3    H150287   1.785   2.155   3.314 -1.4707  0.3735 -0.5047
 9624TIP3    H250288   1.696   2.072   3.224  0.3888 -1.4855 -0.7255
 9625TIP3   OH250289   4.403   5.674   2.479  0.4780  0.2546 -0.1603
 9625TIP3    H150290   4.412   5.750   2.536 -0.5289  1.6500 -1.7551
 9625TIP3    H250291   4.309   5.671   2.459  0.8302 -0.0209 -1.9119
 9626TIP3   OH250292   6.700   5.858   2.391  0.5373 -0.0318 -0.0845
 9626TIP3    H150293   6.723   5.769   2.419 -1.3629 -1.1325 -1.7930
 9626TIP3    H250294   6.753   5.873   2.313  0.4932  0.1248 -0.0829
 9627TIP3   OH250295   0.415   5.632  14.519  0.0820  0.1842  0.2323
 9627TIP3    H150296   0.435   5.669  14.605 -1.0889 -0.6988  0.9026
 9627TIP3    H250297   0.499   5.599  14.488  0.4814  0.3203  1.1276
 9628TIP3   OH250298   4.786   1.386   0.840  0.2186  0.4323 -0.3993
 9628TIP3    H150299   4.693   1.366   0.840  0.4786 -0.8598 -0.0693
 9628TIP3    H250300   4.800   1.434   0.759 -0.6807  0.4100 -0.5782
 9629TIP3   OH250301   5.434   3.446  12.060  0.1798 -0.0212 -0.3557
 9629TIP3    H150302   5.340   3.427  12.069  0.7270 -1.7759  3.2219
 9629TIP3    H250303   5.443   3.536  12.092 -0.1311 -0.4444  1.0081
 9630TIP3   OH250304   5.491   2.065  15.370  0.0041 -0.3677  0.3813
 9630TIP3    H150305   5.489   1.975  15.339 -0.8273 -0.4015  0.5137
 9630TIP3    H250306   5.445   2.115  15.302 -1.0158 -0.3060  1.0847
 9631TIP3   OH250307   3.334   1.599  11.206 -0.0088 -0.1528  0.1081
 9631TIP3    H150308   3.310   1.514  11.242 -1.8400 -0.0626 -0.7454
 9631TIP3    H250309   3.252   1.649  11.207  0.1233  0.2980 -2.8136
 9632TIP3   OH250310   4.503   0.876   2.156  0.1327  0.0216  0.5686
 9632TIP3    H150311   4.429   0.935   2.136 -1.3782 -2.2402 -0.9555
 9632TIP3    H250312   4.556   0.926   2.218 -2.2060  2.1168  1.0811
 9633TIP3   OH250313   3.021   4.913  13.765 -0.7085 -0.1569 -0.0349
 9633TIP3    H150314   2.988   4.925  13.676 -0.7003 -0.3255 -0.0613
 9633TIP3    H250315   3.044   5.001  13.794  1.0037 -0.2994 -0.8525
 9634TIP3   OH250316   4.067   4.351  11.072  0.0038 -0.1233 -0.0324
 9634TIP3    H150317   4.061   4.256  11.081  2.4939 -0.3289  0.3096
 9634TIP3    H250318   4.111   4.364  10.987 -0.9665  0.7707 -0.4182
 9635TIP3   OH250319   2.218   5.917   1.858  0.4993 -0.6678  0.5222
 9635TIP3    H150320   2.250   5.978   1.925  1.0179 -1.3052  0.8630
 9635TIP3    H250321   2.287   5.917   1.791 -0.6190  1.0126 -0.7197
 9636TIP3   OH250322   0.409   5.517  11.570 -0.3735 -0.6218  0.0558
 9636TIP3    H150323   0.499   5.549  11.571 -0.7106  0.3221  0.8301
 9636TIP3    H250324   0.417   5.422  11.581  0.5615 -0.6541 -0.7795
 9637TIP3   OH250325   1.845   1.852  12.939  0.3966  0.2843 -0.2891
 9637TIP3    H150326   1.816   1.824  13.026  0.3712  1.8779  0.2549
 9637TIP3    H250327   1.829   1.946  12.938  2.3543  0.6586 -1.2425
 9638TIP3   OH250328   1.751   6.675  11.690  0.6004  0.8419  0.1089
 9638TIP3    H150329   1.805   6.723  11.627  0.9942  2.7193  1.7905
 9638TIP3    H250330   1.813   6.638  11.752  0.0941  2.9813  2.0380
 9639TIP3   OH250331   5.610   1.744  11.046  0.6508  0.3130  0.4748
 9639TIP3    H150332   5.649   1.831  11.054 -0.3277  0.9001 -0.7048
 9639TIP3    H250333   5.561   1.747  10.964 -0.2113 -1.0364  0.8925
 9640TIP3   OH250334   0.799   2.893   2.632 -0.6173 -0.0836  0.2625
 9640TIP3    H150335   0.878   2.904   2.579 -1.8862  0.7766 -1.5653
 9640TIP3    H250336   0.766   2.982   2.644 -2.2046 -0.5388 -0.4945
 9641TIP3   OH250337   6.051   3.258   1.912  0.0296  0.3389 -0.2438
 9641TIP3    H150338   5.958   3.242   1.898 -0.4569  1.4504  1.3454
 9641TIP3    H250339   6.096   3.196   1.855 -1.6655 -2.3601  1.1570
 9642TIP3   OH250340   4.777   0.034   0.293  0.2059  0.4672  0.4519
 9642TIP3    H150341   4.762  -0.015   0.374 -2.0269  0.2289 -0.0276
 9642TIP3    H250342   4.753  -0.028   0.224 -0.2591  1.4384 -0.2717
 9643TIP3   OH250343   0.866   4.398  16.227  0.6028  0.7536 -0.1703
 9643TIP3    H150344   0.905   4.321  16.270  2.8837  0.8085 -1.9293
 9643TIP3    H250345   0.899   4.472  16.277 -1.8640  0.6994  1.7326
 9644TIP3   OH250346   1.259   3.896   3.524 -0.3285 -0.1255  0.0703
 9644TIP3    H150347   1.349   3.867   3.538 -1.0727 -2.2828  0.7486
 9644TIP3    H250348   1.230   3.848   3.447 -0.7262  1.0886 -0.5720
 9645TIP3   OH250349   4.997   1.914   5.571 -0.7578 -0.6821  0.1601
 9645TIP3    H150350   4.961   1.994   5.610  0.9446  0.3862 -0.3626
 9645TIP3    H250351   4.938   1.893   5.499 -2.1184 -0.8549  1.2666
 9646TIP3   OH250352   1.836   6.362   3.715  0.6635  0.3694  0.0147
 9646TIP3    H150353   1.837   6.415   3.635 -0.3856  1.4317  0.6702
 9646TIP3    H250354   1.847   6.272   3.684  0.3633  0.7633 -1.3221
 9647TIP3   OH250355   1.616   6.252   5.791 -0.3798  0.2431  0.4879
 9647TIP3    H150356   1.594   6.236   5.883  0.6339  0.4746  0.7761
 9647TIP3    H250357   1.704   6.288   5.793 -0.6451  0.9812 -0.5284
 9648TIP3   OH250358   3.398   5.134  13.667 -0.1737  0.7223 -0.1837
 9648TIP3    H150359   3.429   5.112  13.755 -0.5926  1.5980  0.1883
 9648TIP3    H250360   3.477   5.131  13.613  0.3062  1.3951  0.4631
 9649TIP3   OH250361   1.924   6.475  10.890 -0.7372 -0.1081 -0.3417
 9649TIP3    H150362   1.859   6.414  10.855  0.3537 -0.9370 -0.9982
 9649TIP3    H250363   1.921   6.462  10.985 -1.2215 -0.4510 -0.4005
 9650TIP3   OH250364   5.953   3.734   6.008 -0.3477  0.0483 -0.1742
 9650TIP3    H150365   5.969   3.824   5.981  1.5810 -0.5511 -1.2569
 9650TIP3    H250366   6.038   3.704   6.042 -0.8184 -1.4919 -0.2759
 9651TIP3   OH250367   3.415   2.684   1.525 -0.0992  0.5570  0.2966
 9651TIP3    H150368   3.462   2.698   1.443  0.2252 -2.2708 -0.0826
 9651TIP3    H250369   3.483   2.673   1.591 -0.3573  3.0113  1.0706
 9652TIP3   OH250370   3.402   3.294   4.013 -0.5968  0.1388 -0.4580
 9652TIP3    H150371   3.462   3.366   3.996  1.0619 -1.4178 -1.5393
 9652TIP3    H250372   3.317   3.326   3.981 -0.0079  1.7575 -0.4954
 9653TIP3   OH250373   5.292   3.155   0.929 -0.2858 -0.0925  0.7233
 9653TIP3    H150374   5.281   3.065   0.899  1.0224 -0.4773  1.3019
 9653TIP3    H250375   5.227   3.165   0.999 -1.1043 -0.2565 -0.0077
 9654TIP3   OH250376   0.624   4.731   6.022 -0.2292 -0.5016 -0.3491
 9654TIP3    H150377   0.607   4.804   6.082  1.6240  0.2270 -0.6446
 9654TIP3    H250378   0.550   4.671   6.035 -1.2547  0.9286  0.6593
 9655TIP3   OH250379   3.057   2.177  16.122 -0.1356 -0.1012  0.5590
 9655TIP3    H150380   2.962   2.162  16.119 -0.8439  3.4130  0.5975
 9655TIP3    H250381   3.078   2.176  16.216 -0.2285 -0.4163  0.5780
 9656TIP3   OH250382   4.043   6.061  13.340 -0.5092 -0.2523 -0.2076
 9656TIP3    H150383   3.947   6.067  13.334 -0.6639  2.6144  2.2483
 9656TIP3    H250384   4.073   6.151  13.330  1.8703 -0.9572 -0.0615
 9657TIP3   OH250385   1.492   4.851   0.183  0.4070 -0.2688  0.3376
 9657TIP3    H150386   1.554   4.922   0.198 -0.0192  0.3159 -0.5877
 9657TIP3    H250387   1.534   4.774   0.221  0.8902  0.4605  1.3251
 9658TIP3   OH250388   4.690   5.854  15.111  0.5616  0.3938 -0.2055
 9658TIP3    H150389   4.669   5.800  15.188  0.4129  1.8352  0.8013
 9658TIP3    H250390   4.628   5.927  15.116  0.3343  0.3468 -1.8947
 9659TIP3   OH250391   3.811   0.528   5.019  0.0927  0.0598 -0.1087
 9659TIP3    H150392   3.766   0.509   4.937 -0.8798 -1.5356  0.7394
 9659TIP3    H250393   3.862   0.449   5.037  2.7296  1.5073 -0.6396
 9660TIP3   OH250394   2.336   2.726   1.793  0.2799  0.1162  0.0028
 9660TIP3    H150395   2.332   2.736   1.697  3.7260 -1.3439 -0.4442
 9660TIP3    H250396   2.390   2.799   1.823  0.3778 -0.2060  0.6325
 9661TIP3   OH250397   0.683   5.934   3.436 -0.5149 -0.2306 -0.4230
 9661TIP3    H150398   0.718   5.972   3.355  0.3844 -0.7678 -0.3043
 9661TIP3    H250399   0.754   5.944   3.499 -0.1860 -2.1983 -0.4175
 9662TIP3   OH250400   0.501   5.242  16.682  0.1117  0.1718  0.6159
 9662TIP3    H150401   0.442   5.259  16.755  0.5160  4.7769  0.1796
 9662TIP3    H250402   0.560   5.175  16.714 -2.7598 -1.6679  2.5508
 9663TIP3   OH250403   1.366   4.568   1.099  0.1110  0.5492 -0.2698
 9663TIP3    H150404   1.282   4.591   1.141  0.6248  1.5519  0.2426
 9663TIP3    H250405   1.382   4.477   1.125 -0.4844  0.5699  0.1905
 9664TIP3   OH250406   6.380   4.132  11.589  0.2793 -0.8042  0.0964
 9664TIP3    H150407   6.470   4.131  11.622  0.4314  1.2987 -0.1265
 9664TIP3    H250408   6.344   4.048  11.616  1.4400 -0.5799  2.6664
 9665TIP3   OH250409   5.297   4.918   0.809 -0.4826  0.6420  0.3457
 9665TIP3    H150410   5.378   4.907   0.760  0.7088 -0.4975  2.4246
 9665TIP3    H250411   5.287   5.013   0.817  0.6411  0.8044  0.0291
 9666TIP3   OH250412   3.439   6.461   3.757  0.2125 -0.3668  0.5461
 9666TIP3    H150413   3.497   6.526   3.715  1.2833  0.1106  2.6462
 9666TIP3    H250414   3.356   6.508   3.768 -0.5474 -0.9107 -2.0780
 9667TIP3   OH250415   4.493   6.291   0.180  0.3667  0.3562  0.0254
 9667TIP3    H150416   4.572   6.259   0.136  0.2793  0.7261 -0.4155
 9667TIP3    H250417   4.425   6.288   0.113 -0.3435 -1.2578  0.7777
 9668TIP3   OH250418   0.430   1.735  11.265 -0.8372 -0.2162  0.0404
 9668TIP3    H150419   0.385   1.737  11.180 -0.9795 -1.3446  0.0733
 9668TIP3    H250420   0.363   1.706  11.327 -0.0472 -2.2358  0.0388
 9669TIP3   OH250421   5.869   6.698  11.176  0.0622  0.4607  0.1235
 9669TIP3    H150422   5.946   6.707  11.120 -0.2072  1.3915 -0.1117
 9669TIP3    H250423   5.848   6.788  11.202  0.9827 -0.0029  2.8133
 9670TIP3   OH250424   3.270   3.500   3.877 -0.3278 -0.1125  0.5489
 9670TIP3    H150425   3.285   3.593   3.891  0.6544 -0.6029  3.5003
 9670TIP3    H250426   3.355   3.466   3.848 -0.1372 -0.3319  1.3199
 9671TIP3   OH250427   6.666   3.060  16.561  0.5636 -0.5207 -0.6802
 9671TIP3    H150428   6.694   3.037  16.649  0.1256  2.8519  0.4967
 9671TIP3    H250429   6.742   3.104  16.522 -0.0194  0.2129 -1.0195
 9672TIP3   OH250430   6.200   5.357  12.520  0.2926 -0.5167  0.1256
 9672TIP3    H150431   6.289   5.324  12.509 -0.3684 -1.6468 -2.6879
 9672TIP3    H250432   6.205   5.449  12.491  0.4382 -0.8169 -0.8660
 9673TIP3   OH250433   5.042   0.898  16.650  0.4065  0.2614  0.3315
 9673TIP3    H150434   5.009   0.840  16.719  1.7890 -0.2495  0.6021
 9673TIP3    H250435   5.097   0.961  16.697 -0.5149  1.3744 -0.0533
 9674TIP3   OH250436   0.086   2.872  15.643 -0.3264  0.2528  0.2619
 9674TIP3    H150437   0.102   2.903  15.732  0.2488  0.1128  0.2096
 9674TIP3    H250438   0.103   2.947  15.587  0.9441 -0.0978  0.1460
 9675TIP3   OH250439   0.204   1.387  14.569  0.3994 -0.1454 -0.3237
 9675TIP3    H150440   0.202   1.483  14.570 -0.7756 -0.1604  0.6741
 9675TIP3    H250441   0.117   1.361  14.597 -0.0038 -1.5512 -2.6646
 9676TIP3   OH250442   5.155   5.973   6.122 -0.2472  0.3159  0.6966
 9676TIP3    H150443   5.094   5.975   6.196  0.8822  0.1206  1.6546
 9676TIP3    H250444   5.241   5.990   6.160  0.5403 -0.9581 -0.3813
 9677TIP3   OH250445   0.012   1.613   4.608  0.1232  0.8691  0.4563
 9677TIP3    H150446   0.103   1.633   4.586  0.5809  0.5795  1.9530
 9677TIP3    H250447  -0.005   1.529   4.565  0.8452  0.5186  0.8368
 9678TIP3   OH250448   0.442   3.347  11.595  0.0133  0.1298 -0.1382
 9678TIP3    H150449   0.396   3.333  11.513  0.4282  2.5333 -0.8619
 9678TIP3    H250450   0.377   3.389  11.652  0.1336 -0.2365  0.2731
 9679TIP3   OH250451   0.332   0.933   1.204 -0.2605 -0.3431 -0.1428
 9679TIP3    H150452   0.246   0.937   1.162 -0.0541  1.0042 -0.4995
 9679TIP3    H250453   0.314   0.906   1.293 -1.1155  0.2610 -0.1193
 9680TIP3   OH250454   0.671   3.750   5.039  0.1985 -0.5620  0.2702
 9680TIP3    H150455   0.763   3.732   5.054  0.6715 -0.4662 -2.0731
 9680TIP3    H250456   0.670   3.838   4.999 -1.2166  0.7442  2.9036
 9681TIP3   OH250457   2.284   2.829   1.503 -0.4777 -0.4939 -0.3758
 9681TIP3    H150458   2.263   2.906   1.451  0.0924  0.6361  0.9910
 9681TIP3    H250459   2.353   2.784   1.454  1.5983  1.7023  0.3540
 9682TIP3   OH250460   2.208   5.051   2.469  0.2152  0.0924  0.4579
 9682TIP3    H150461   2.214   4.956   2.473 -0.2021  0.0722  0.6543
 9682TIP3    H250462   2.231   5.074   2.379 -1.4164 -0.3245 -0.0817
 9683TIP3   OH250463   5.276   6.222   0.934  0.2079 -0.2341 -0.3677
 9683TIP3    H150464   5.282   6.311   0.899  2.1262  0.0828  0.6011
 9683TIP3    H250465   5.187   6.215   0.967  0.2047  1.5802  0.1311
 9684TIP3   OH250466   2.436   4.583   0.213  0.6424  1.1149 -0.3837
 9684TIP3    H150467   2.398   4.539   0.137  0.6417  0.4011  0.0153
 9684TIP3    H250468   2.486   4.514   0.258 -2.0109  0.5933  2.0640
 9685TIP3   OH250469   1.793   6.790   3.648  0.5041 -0.4978 -0.4788
 9685TIP3    H150470   1.859   6.728   3.679  0.1605 -1.7202 -2.0448
 9685TIP3    H250471   1.710   6.752   3.676  0.3907  1.1206  1.6360
 9686TIP3   OH250472   5.391   0.417   2.530 -0.1179 -0.2378  0.1910
 9686TIP3    H150473   5.384   0.429   2.435  3.8666  0.6252 -0.1901
 9686TIP3    H250474   5.436   0.333   2.540  2.0317  0.9259  1.0441
 9687TIP3   OH250475   1.138   4.885  14.207 -0.5177 -0.0969  0.5438
 9687TIP3    H150476   1.155   4.795  14.232 -2.6770 -0.6113  0.3496
 9687TIP3    H250477   1.124   4.932  14.289 -1.8288 -0.5218  0.5963
 9688TIP3   OH250478   1.614   1.517   3.255  0.4348  0.0371  0.2366
 9688TIP3    H150479   1.535   1.483   3.297  0.8513  1.2003  2.0969
 9688TIP3    H250480   1.622   1.466   3.174 -2.1493 -0.1628  0.0130
 9689TIP3   OH250481   2.993   3.967   4.873 -0.1704  0.1117 -0.5246
 9689TIP3    H150482   2.919   3.906   4.872 -1.1231  1.2264 -1.4214
 9689TIP3    H250483   2.992   4.005   4.960  0.7040 -1.4331  0.1937
 9690TIP3   OH250484   6.484   5.365   6.247 -0.5434 -0.0144 -0.5355
 9690TIP3    H150485   6.438   5.397   6.169  0.3323  0.9419 -0.6933
 9690TIP3    H250486   6.576   5.357   6.218 -0.3349 -0.3319  0.2004
 9691TIP3   OH250487   2.593   0.508  10.174  0.2669 -0.3207  0.2513
 9691TIP3    H150488   2.614   0.543  10.260  1.5859  0.7159 -0.4445
 9691TIP3    H250489   2.581   0.414  10.188  1.0252 -0.2469  1.4754
 9692TIP3   OH250490   1.703   5.471  10.746 -0.0490 -0.3153 -0.3912
 9692TIP3    H150491   1.608   5.477  10.750 -0.0603  0.8197 -1.5693
 9692TIP3    H250492   1.728   5.433  10.830 -1.5429 -0.7766 -0.1192
 9693TIP3   OH250493   4.441   0.158   2.190  0.6264  0.3627 -1.2140
 9693TIP3    H150494   4.470   0.243   2.222  0.6308 -0.6853  1.9183
 9693TIP3    H250495   4.389   0.122   2.262  0.1056 -2.0448 -2.6772
 9694TIP3   OH250496   0.570   1.065  15.446  0.2429 -0.4670 -0.2738
 9694TIP3    H150497   0.658   1.103  15.442  0.3106 -0.7023 -2.0964
 9694TIP3    H250498   0.516   1.134  15.484  1.3420 -0.6379  1.7084
 9695TIP3   OH250499   2.045   6.148   3.638 -0.1987  0.4285 -0.3585
 9695TIP3    H150500   2.044   6.109   3.725 -0.2986  2.3786  0.5675
 9695TIP3    H250501   2.130   6.126   3.602  0.3322  0.6290  0.7408
 9696TIP3   OH250502   0.103   3.486   5.056  0.2024  0.0515 -0.4738
 9696TIP3    H150503   0.197   3.479   5.039  0.4737  4.4778 -2.3672
 9696TIP3    H250504   0.096   3.534   5.138 -0.4879 -1.4230  0.3544
 9697TIP3   OH250505   2.272   3.496  11.594 -0.3030 -0.1452  0.1610
 9697TIP3    H150506   2.339   3.539  11.542 -0.9983 -0.2077 -0.8100
 9697TIP3    H250507   2.284   3.530  11.683  0.3978  0.5483 -0.1977
 9698TIP3   OH250508   6.759   0.819  14.978 -0.1916  0.0484  0.9415
 9698TIP3    H150509   6.728   0.881  15.044  0.9502  1.1103  0.5209
 9698TIP3    H250510   6.795   0.747  15.029  0.3455  0.6927  1.4948
 9699TIP3   OH250511   2.553   2.310  14.836 -0.2276  0.4482 -0.6147
 9699TIP3    H150512   2.608   2.381  14.803 -0.2752 -0.0941 -1.9346
 9699TIP3    H250513   2.562   2.315  14.931  1.6937  0.6845 -0.7712
 9700TIP3   OH250514   0.027   2.729   2.937  0.1401  0.3508 -0.4039
 9700TIP3    H150515   0.093   2.713   2.870  0.7261 -0.0455  0.2500
 9700TIP3    H250516   0.058   2.808   2.982  1.1219 -0.7810  1.0080
 9701TIP3   OH250517   3.504   4.706   0.824  0.2054  0.1613  0.2470
 9701TIP3    H150518   3.415   4.726   0.851  0.7667 -0.3785  2.7685
 9701TIP3    H250519   3.559   4.758   0.882  1.5683  0.0137 -0.8523
 9702TIP3   OH250520   1.847   2.194  11.998 -0.3080 -0.7783 -0.4457
 9702TIP3    H150521   1.791   2.175  12.074  0.0736 -2.3646 -0.5309
 9702TIP3    H250522   1.912   2.123  11.998  0.0834 -0.4369 -1.8853
 9703TIP3   OH250523   5.895   0.267  15.722 -0.0034 -0.1802  0.7592
 9703TIP3    H150524   5.802   0.255  15.744 -0.0423  0.4369  0.9500
 9703TIP3    H250525   5.937   0.185  15.749 -0.2542  0.0842  2.0118
 9704TIP3   OH250526   1.820   3.690  12.591  0.4091  0.9998  0.0574
 9704TIP3    H150527   1.780   3.623  12.536  1.3046  1.6944 -1.5216
 9704TIP3    H250528   1.753   3.757  12.600 -0.3314  0.1380  1.2704
 9705TIP3   OH250529   5.146   5.556  14.248 -0.2325  0.4814 -0.1615
 9705TIP3    H150530   5.064   5.600  14.226  0.4950  0.7418 -2.6616
 9705TIP3    H250531   5.213   5.623  14.233  0.5124  0.0947  1.2832
 9706TIP3   OH250532   2.192   4.138   2.273  0.7036 -0.9477 -0.4589
 9706TIP3    H150533   2.286   4.127   2.257  0.6799 -1.0966 -0.4988
 9706TIP3    H250534   2.153   4.134   2.186  0.8935  1.5495 -0.7365
 9707TIP3   OH250535   2.671   2.220  10.715  0.7199  0.3619 -0.1379
 9707TIP3    H150536   2.649   2.302  10.758  0.0367 -0.3444  0.9048
 9707TIP3    H250537   2.608   2.214  10.643 -0.6332 -0.2213  1.0434
 9708TIP3   OH250538   2.726   0.730   2.519 -0.2310  0.5511 -0.0341
 9708TIP3    H150539   2.695   0.808   2.474 -0.1626  0.8208  0.3814
 9708TIP3    H250540   2.705   0.658   2.460 -0.6786  0.8391 -0.2298
 9709TIP3   OH250541   6.220   5.163  14.315  0.0557  0.1657 -0.6901
 9709TIP3    H150542   6.301   5.152  14.264 -0.0696 -0.8767 -0.6836
 9709TIP3    H250543   6.173   5.080  14.303 -1.5833  1.1947 -1.6852
 9710TIP3   OH250544   0.568   5.169   3.704 -0.6760  0.1956 -0.1041
 9710TIP3    H150545   0.574   5.242   3.642 -0.5061  0.6055  0.3930
 9710TIP3    H250546   0.657   5.134   3.710 -0.1456  1.6865  1.7286
 9711TIP3   OH250547   2.849   5.641  10.858  0.2941  0.0865 -0.4801
 9711TIP3    H150548   2.886   5.553  10.863  0.4148  0.1942  0.8902
 9711TIP3    H250549   2.763   5.629  10.817  1.2295 -0.3282 -2.4720
 9712TIP3   OH250550   6.257   5.851   4.503  0.5892  0.3156  0.5626
 9712TIP3    H150551   6.253   5.774   4.560  1.0435 -2.0732 -2.3821
 9712TIP3    H250552   6.166   5.880   4.497  0.6773  1.5929  3.5053
 9713TIP3   OH250553   2.092   4.043  16.358 -0.2129  0.1498  0.1921
 9713TIP3    H150554   2.055   4.130  16.344  0.6454  0.5099  0.0819
 9713TIP3    H250555   2.187   4.056  16.353  0.0032 -0.4850  1.8276
 9714TIP3   OH250556   2.802   5.502  14.341  0.0810  0.5524 -0.4194
 9714TIP3    H150557   2.770   5.509  14.431 -0.1950  0.9288 -0.5461
 9714TIP3    H250558   2.840   5.414  14.337  1.7041  1.1685  0.5761
 9715TIP3   OH250559   1.605   3.341   2.613  0.3976 -0.3993  0.0036
 9715TIP3    H150560   1.527   3.288   2.630 -2.1020  2.9551 -0.0970
 9715TIP3    H250561   1.607   3.406   2.683  2.5099  0.2937 -0.6092
 9716TIP3   OH250562   0.373   3.837   3.718 -0.3151  0.0101 -0.2403
 9716TIP3    H150563   0.366   3.861   3.625  0.6529 -0.5631 -0.4779
 9716TIP3    H250564   0.458   3.795   3.725 -0.4747 -0.1506  0.8766
 9717TIP3   OH250565   0.707   0.256   1.815  0.2919  0.4344  0.1922
 9717TIP3    H150566   0.653   0.298   1.748  1.9900  3.4185  0.5366
 9717TIP3    H250567   0.645   0.235   1.885 -0.8215  1.4084 -0.4563
 9718TIP3   OH250568   5.398   6.554   1.111 -0.4590 -0.7657  0.3867
 9718TIP3    H150569   5.369   6.501   1.037 -0.7758  0.7048 -0.5805
 9718TIP3    H250570   5.485   6.586   1.085  1.0536 -3.0609  2.1771
 9719TIP3   OH250571   0.956   5.042   3.185 -1.2052  0.1169 -0.1129
 9719TIP3    H150572   0.951   5.043   3.089  0.9602 -1.0981 -0.3060
 9719TIP3    H250573   0.926   4.954   3.209  1.1642 -0.7265  0.0158
 9720TIP3   OH250574   5.939   5.793   2.313  0.1062  0.8373 -0.0016
 9720TIP3    H150575   5.934   5.697   2.309 -1.3197  0.9440 -2.1283
 9720TIP3    H250576   6.021   5.814   2.267 -0.6249  0.6742 -1.4470
 9721TIP3   OH250577   3.202   4.369  15.678  0.1675 -0.1479  0.2203
 9721TIP3    H150578   3.187   4.461  15.659  0.7524 -0.4236 -1.7701
 9721TIP3    H250579   3.115   4.333  15.698 -0.0830  0.7788  0.8308
 9722TIP3   OH250580   6.627   5.599   2.052  0.6221 -0.2644 -0.1503
 9722TIP3    H150581   6.554   5.541   2.029 -0.7858  1.4419 -0.2106
 9722TIP3    H250582   6.701   5.540   2.067 -0.7277 -2.0605 -0.2225
 9723TIP3   OH250583   5.005   6.542  14.852  0.3425 -0.2409  0.6825
 9723TIP3    H150584   4.962   6.625  14.831  2.1235 -0.0402 -2.8768
 9723TIP3    H250585   5.088   6.567  14.893  0.5393 -0.2683  0.3074
 9724TIP3   OH250586   5.084   4.109   1.724  0.2846 -0.3031  0.7174
 9724TIP3    H150587   5.007   4.086   1.671 -0.5880 -1.2518  2.2979
 9724TIP3    H250588   5.145   4.150   1.662 -1.8702  1.3921 -0.4008
 9725TIP3   OH250589   1.768   4.852   3.690 -0.2418 -0.2376 -0.2051
 9725TIP3    H150590   1.676   4.864   3.665 -0.4687  0.6684  1.0056
 9725TIP3    H250591   1.800   4.940   3.707  0.1644 -0.6963  1.6744
 9726TIP3   OH250592   4.617   2.876  11.461  0.2985  0.1168  0.5062
 9726TIP3    H150593   4.660   2.947  11.413  0.0777  0.4680  0.8302
 9726TIP3    H250594   4.689   2.831  11.506  0.0980  2.6555  3.6952
 9727TIP3   OH250595   4.487   1.133  13.014 -0.8943  0.4918  0.3011
 9727TIP3    H150596   4.527   1.085  12.942  0.0408  1.2661  0.2802
 9727TIP3    H250597   4.393   1.130  12.997 -0.6630  1.0033 -1.1633
 9728TIP3   OH250598   3.030   1.112  15.345 -0.2136  0.2100  0.0258
 9728TIP3    H150599   2.968   1.109  15.271 -0.2784  2.8697 -0.1180
 9728TIP3    H250600   3.064   1.201  15.344  2.4832 -0.7169  1.0922
 9729TIP3   OH250601   6.234   0.418   1.373 -0.2146 -0.1999  0.1884
 9729TIP3    H150602   6.187   0.500   1.358 -0.1287 -0.1130  0.3860
 9729TIP3    H250603   6.199   0.357   1.308 -0.6787 -0.1653  0.4029
 9730TIP3   OH250604   0.897   0.768   2.453 -0.0331 -0.4515  0.0851
 9730TIP3    H150605   0.962   0.783   2.522  1.2178 -0.8811 -0.9452
 9730TIP3    H250606   0.941   0.797   2.373 -1.2135 -0.5352 -0.6087
 9731TIP3   OH250607   1.947   2.980  14.461 -0.4170 -0.0327  0.2917
 9731TIP3    H150608   1.867   2.928  14.469 -0.8144  0.6587  0.9522
 9731TIP3    H250609   2.018   2.916  14.467 -0.9086 -0.7035 -0.7134
 9732TIP3   OH250610   5.615   6.128   0.765 -0.4271 -0.2291 -0.1784
 9732TIP3    H150611   5.692   6.184   0.762  0.9345 -2.0452 -0.8025
 9732TIP3    H250612   5.591   6.126   0.858  0.2918  0.3208  0.0297
 9733TIP3   OH250613   2.872   0.689   4.381 -0.2342  0.1217 -0.1091
 9733TIP3    H150614   2.861   0.648   4.295 -2.1770  0.1910  0.0543
 9733TIP3    H250615   2.915   0.622   4.434  0.5129 -0.1094 -0.9721
 9734TIP3   OH250616   2.554   4.209   3.737 -0.4849 -0.1173 -0.0318
 9734TIP3    H150617   2.491   4.180   3.671 -0.0784  0.1070 -0.5312
 9734TIP3    H250618   2.507   4.277   3.786 -1.0172 -0.7569  0.3496
 9735TIP3   OH250619   4.061   2.914   5.933  0.1782 -0.4852 -0.0038
 9735TIP3    H150620   4.068   2.868   6.017  1.8500  0.3822  0.3663
 9735TIP3    H250621   4.143   2.893   5.887  0.4454  1.1511 -0.3205
 9736TIP3   OH250622   1.326   0.070   0.566  0.0245  0.5206  0.0110
 9736TIP3    H150623   1.418   0.058   0.542  0.0870  0.3047  0.3499
 9736TIP3    H250624   1.318   0.028   0.651 -0.0603  1.7636  0.6429
 9737TIP3   OH250625   4.954   5.448   0.772 -0.0991 -0.2459 -0.3929
 9737TIP3    H150626   5.024   5.489   0.721 -1.5444  2.1669 -0.5898
 9737TIP3    H250627   4.977   5.466   0.863  1.0484 -2.1260 -0.2719
 9738TIP3   OH250628   6.770   2.764  14.738  0.8331 -0.1406  0.4851
 9738TIP3    H150629   6.706   2.718  14.792  1.5238 -1.5940  0.1001
 9738TIP3    H250630   6.854   2.725  14.761  1.3698  0.5256 -0.2798
 9739TIP3   OH250631   3.536   3.938   0.562 -0.0904 -0.4757 -0.1857
 9739TIP3    H150632   3.486   4.011   0.525 -2.9555 -0.9212  2.3827
 9739TIP3    H250633   3.525   3.867   0.498 -1.6488 -0.1482 -0.3192
 9740TIP3   OH250634   5.154   6.145   2.192 -0.3027  0.5874  0.1101
 9740TIP3    H150635   5.247   6.143   2.167 -0.1930  2.1520  0.2967
 9740TIP3    H250636   5.153   6.186   2.278 -1.1289  0.0571  0.3610
 9741TIP3   OH250637   2.479   6.401   2.450 -0.0381 -0.7509 -0.2574
 9741TIP3    H150638   2.405   6.462   2.455  0.4175 -0.2205  0.0553
 9741TIP3    H250639   2.513   6.413   2.361 -0.6852 -1.4303 -0.6120
 9742TIP3   OH250640   2.397   2.212   0.183 -0.2851  0.0072  0.5207
 9742TIP3    H150641   2.341   2.134   0.181 -0.5640  0.2052  0.3958
 9742TIP3    H250642   2.335   2.285   0.186 -0.0507  0.2525 -0.3621
 9743TIP3   OH250643   1.519   5.680   3.572  0.1616 -0.1753  0.0467
 9743TIP3    H150644   1.471   5.658   3.652 -1.4556 -0.3398 -0.9310
 9743TIP3    H250645   1.452   5.685   3.504  1.4319  0.4852 -1.2129
 9744TIP3   OH250646   5.196   2.811   3.525  0.6940 -0.3259 -1.0572
 9744TIP3    H150647   5.112   2.854   3.543 -0.1777 -2.4820  0.4605
 9744TIP3    H250648   5.257   2.851   3.587  0.3151 -0.0558 -0.8537
 9745TIP3   OH250649   1.742   5.359   3.785  0.5436  0.2580  0.3097
 9745TIP3    H150650   1.697   5.275   3.794 -2.1909  1.3184 -1.9901
 9745TIP3    H250651   1.704   5.413   3.854  2.5408 -0.3514  2.0051
 9746TIP3   OH250652   1.590   2.397  10.567 -0.2611 -0.0596  0.0876
 9746TIP3    H150653   1.631   2.424  10.485  0.0352 -2.3041 -0.5745
 9746TIP3    H250654   1.504   2.362  10.540 -0.0285 -1.1083  0.6513
 9747TIP3   OH250655   0.971   2.143   0.344 -0.2721 -0.1550 -0.3625
 9747TIP3    H150656   0.994   2.144   0.437 -0.5383 -0.5812 -0.2910
 9747TIP3    H250657   0.988   2.233   0.315 -0.1804 -0.0197  0.0948
 9748TIP3   OH250658   1.367   2.190   0.107  0.5933 -0.2293  0.2980
 9748TIP3    H150659   1.439   2.210   0.048  1.0061 -0.7900  0.6024
 9748TIP3    H250660   1.406   2.134   0.174  0.2504  0.8162  1.3978
 9749TIP3   OH250661   5.295   4.126  16.827  0.3404  0.0361 -0.4520
 9749TIP3    H150662   5.265   4.183  16.757 -0.2248  0.7051  0.3088
 9749TIP3    H250663   5.366   4.075  16.789  1.6075  2.0124 -0.8554
 9750TIP3   OH250664   0.670   0.567  11.650 -0.7104 -0.1465  0.3605
 9750TIP3    H150665   0.588   0.590  11.606  0.0637  1.7235 -0.1767
 9750TIP3    H250666   0.687   0.477  11.623 -2.4377 -0.4901  0.2789
 9751TIP3   OH250667   5.592   0.439  11.962 -0.1029 -0.4498 -0.1016
 9751TIP3    H150668   5.663   0.438  11.897 -1.6400 -3.3256 -1.9683
 9751TIP3    H250669   5.629   0.394  12.038  0.8297  0.3902 -0.0358
 9752TIP3   OH250670   4.372   1.811  12.477  0.0174 -0.3008 -0.3148
 9752TIP3    H150671   4.448   1.859  12.512 -0.2442  0.0992 -0.2955
 9752TIP3    H250672   4.410   1.751  12.413  0.6445 -1.8545  1.4507
 9753TIP3   OH250673   4.358   1.328  15.514  1.3040 -0.3339 -0.3837
 9753TIP3    H150674   4.444   1.313  15.476  0.7545 -0.1201 -1.7788
 9753TIP3    H250675   4.302   1.349  15.440  0.4624  1.5092  0.6936
 9754TIP3   OH250676   2.860   0.046  15.140  0.0625 -0.0535 -0.5018
 9754TIP3    H150677   2.812  -0.020  15.191 -0.5465 -0.0346 -1.0369
 9754TIP3    H250678   2.950   0.037  15.169 -0.0875 -0.8237 -0.2373
 9755TIP3   OH250679   3.051   3.187  11.942 -0.0241 -0.0983 -0.2202
 9755TIP3    H150680   3.014   3.101  11.918  0.0200 -0.5529  1.2498
 9755TIP3    H250681   2.978   3.234  11.981 -0.0493  0.5662 -1.0380
 9756TIP3   OH250682   2.540   5.967  15.374  0.1567  0.2871  0.1203
 9756TIP3    H150683   2.584   5.945  15.456  0.9043  0.0704 -0.3229
 9756TIP3    H250684   2.603   5.941  15.306 -1.2788 -1.5256 -0.6147
 9757TIP3   OH250685   6.635   4.742  16.043 -0.1032 -0.0527  0.2310
 9757TIP3    H150686   6.686   4.787  16.110  0.0052 -0.8695  0.7048
 9757TIP3    H250687   6.570   4.692  16.092 -0.7603  0.2330 -0.3280
 9758TIP3   OH250688   2.650   4.046  16.339  0.6446  0.4728  0.1292
 9758TIP3    H150689   2.632   3.955  16.314  1.5728 -0.0523  1.2720
 9758TIP3    H250690   2.564   4.082  16.360  0.3938 -0.6132  1.1099
 9759TIP3   OH250691   3.109   3.339   6.352  0.4719  0.0656  0.4632
 9759TIP3    H150692   3.112   3.389   6.270  2.5355  0.2388  0.6043
 9759TIP3    H250693   3.026   3.365   6.392  0.6383  1.9746 -0.3349
 9760TIP3   OH250694   5.771   1.893   6.551  0.4938 -0.3061 -0.2901
 9760TIP3    H150695   5.843   1.862   6.606  0.4764  0.6412  0.2914
 9760TIP3    H250696   5.709   1.820   6.547  1.6546 -1.2879 -1.1324
 9761TIP3   OH250697   5.562   1.650   0.780 -0.1272  0.0904  0.1835
 9761TIP3    H150698   5.652   1.642   0.810  0.7843  4.4640 -0.6349
 9761TIP3    H250699   5.559   1.601   0.699  2.3940  1.8249 -1.0920
 9762TIP3   OH250700   4.437   6.002  11.351  0.7811  0.4749  0.4589
 9762TIP3    H150701   4.425   5.907  11.351  0.6690  0.4076  3.1395
 9762TIP3    H250702   4.352   6.037  11.321  1.1137 -0.2272 -1.4137
 9763TIP3   OH250703   4.489   3.461  13.082 -0.3985 -0.3451  0.0957
 9763TIP3    H150704   4.525   3.401  13.016 -0.5245 -0.1747 -0.1291
 9763TIP3    H250705   4.395   3.458  13.068 -0.7077 -2.3681  2.0183
 9764TIP3   OH250706   4.290   3.557  14.547  0.3721 -0.8718 -0.0291
 9764TIP3    H150707   4.239   3.630  14.583 -0.8652 -1.3897 -0.6750
 9764TIP3    H250708   4.282   3.488  14.612  2.2257 -0.2078  0.9743
 9765TIP3   OH250709   5.912   0.994   0.338 -0.3477  0.3818  0.2922
 9765TIP3    H150710   5.940   1.007   0.247  0.0258 -0.2156  0.3138
 9765TIP3    H250711   5.988   0.954   0.381 -0.9038 -0.3782  0.5884
 9766TIP3   OH250712   5.390   2.125  13.644 -0.5130  0.3578 -0.2253
 9766TIP3    H150713   5.377   2.104  13.552  2.5499 -2.9330 -0.1052
 9766TIP3    H250714   5.336   2.061  13.691  1.0409 -0.7223  0.1768
 9767TIP3   OH250715   3.848   5.082  16.360 -0.2646 -0.7395  0.3722
 9767TIP3    H150716   3.849   4.986  16.357 -0.4640 -0.8367  2.1685
 9767TIP3    H250717   3.853   5.102  16.454 -1.2044  1.0014  0.0761
 9768TIP3   OH250718   1.842   0.465  16.361  0.4713  0.5144  0.7442
 9768TIP3    H150719   1.780   0.393  16.352  0.7808 -0.1582  3.2202
 9768TIP3    H250720   1.926   0.423  16.380  1.2510  1.4685 -0.4612
 9769TIP3   OH250721   4.493   3.540   4.641 -0.4558  0.6340 -0.0201
 9769TIP3    H150722   4.399   3.544   4.656 -0.5481 -0.9340  0.0228
 9769TIP3    H250723   4.514   3.446   4.646  0.6195  0.6133 -3.0616
 9770TIP3   OH250724   0.487   2.640  16.363  0.0914 -0.0797 -0.5869
 9770TIP3    H150725   0.542   2.621  16.439 -0.6365  0.3582  0.0637
 9770TIP3    H250726   0.398   2.642  16.398 -0.0472  3.3977 -0.7699
 9771TIP3   OH250727   1.055   0.511  11.719 -0.5500 -0.3142  0.0920
 9771TIP3    H150728   1.085   0.600  11.736  0.8249 -0.9419  1.1925
 9771TIP3    H250729   1.077   0.494  11.628  3.1396 -0.9087  0.9540
 9772TIP3   OH250730   6.278   5.267   3.921  0.4131  0.1150  0.9074
 9772TIP3    H150731   6.297   5.197   3.859  0.9863  1.6601 -0.7571
 9772TIP3    H250732   6.231   5.224   3.993 -1.5584 -1.5264 -1.2291
 9773TIP3   OH250733   0.136   1.774   6.092 -0.4047 -0.3749 -0.1803
 9773TIP3    H150734   0.202   1.747   6.027 -1.1205 -0.4952 -0.8789
 9773TIP3    H250735   0.053   1.744   6.055 -0.8306 -0.4725  0.8246
 9774TIP3   OH250736   1.215   4.080   6.541 -0.4802  0.1601  0.2545
 9774TIP3    H150737   1.242   4.004   6.593 -1.2084  0.8401  1.7086
 9774TIP3    H250738   1.278   4.148   6.563 -0.6476  0.3858  0.0477
 9775TIP3   OH250739   5.072   6.595   2.315  0.0538  0.3928 -0.0544
 9775TIP3    H150740   5.019   6.525   2.278 -0.3269  1.5081 -1.7304
 9775TIP3    H250741   5.015   6.638   2.378  0.1099 -0.4370  0.5803
 9776TIP3   OH250742   2.559   5.998   2.766  0.4382 -0.0454  0.3136
 9776TIP3    H150743   2.517   5.950   2.837  0.4105  1.0232  1.0475
 9776TIP3    H250744   2.531   6.089   2.778  0.3469  0.1483 -1.1293
 9777TIP3   OH250745   2.120   1.093  16.801 -1.1227 -0.1782  0.0149
 9777TIP3    H150746   2.126   1.171  16.746  1.3944 -0.9975 -0.9992
 9777TIP3    H250747   2.114   1.127  16.890  1.8899  1.3161 -0.2208
 9778TIP3   OH250748   3.242   2.582   3.205 -0.0097 -0.4621 -0.0719
 9778TIP3    H150749   3.175   2.523   3.238  0.9587 -1.0845  0.8412
 9778TIP3    H250750   3.254   2.555   3.113  0.0893 -1.3770  0.1993
 9779TIP3   OH250751   3.118   2.498  12.069  0.6433 -0.0544  0.3306
 9779TIP3    H150752   3.098   2.463  12.156 -2.2303 -0.6323 -0.4611
 9779TIP3    H250753   3.082   2.587  12.071  1.1681  0.1700 -0.0652
 9780TIP3   OH250754   2.563   4.541  15.381  0.1707 -0.3518  0.7017
 9780TIP3    H150755   2.522   4.601  15.319  0.0594 -0.6907  0.4427
 9780TIP3    H250756   2.652   4.575  15.393  0.3134 -0.4927  0.0709
 9781TIP3   OH250757   0.020   5.149  12.465 -0.9236 -0.4519 -0.6858
 9781TIP3    H150758  -0.039   5.074  12.465 -1.9175  0.2936  0.0625
 9781TIP3    H250759   0.020   5.179  12.556 -1.9811  1.5120 -1.2713
 9782TIP3   OH250760   0.524   0.927   5.630 -0.4452 -0.1279 -0.1048
 9782TIP3    H150761   0.535   1.022   5.630 -2.9206  0.2196 -0.6761
 9782TIP3    H250762   0.606   0.894   5.667  0.6815  2.1783 -0.3463
 9783TIP3   OH250763   3.162   3.187   3.891  0.2823 -0.2041 -0.4257
 9783TIP3    H150764   3.082   3.238   3.902  0.0536 -0.8094  0.8563
 9783TIP3    H250765   3.170   3.175   3.796 -1.2937 -0.3446 -0.5653
 9784TIP3   OH250766   2.866   6.550   5.004  0.1388 -0.2752 -0.1627
 9784TIP3    H150767   2.828   6.488   5.066 -1.2937  0.4599 -0.2543
 9784TIP3    H250768   2.794   6.572   4.945  0.6742  1.2610 -0.2859
 9785TIP3   OH250769   0.696   0.743  13.407 -0.1701 -0.1486  0.0438
 9785TIP3    H150770   0.669   0.725  13.497  2.6922 -1.3317  0.7823
 9785TIP3    H250771   0.763   0.811  13.415 -0.2838  0.1342 -1.2569
 9786TIP3   OH250772   5.703   1.144  10.727  0.0826  0.0061 -0.7890
 9786TIP3    H150773   5.674   1.066  10.679 -0.5167  1.5418 -3.1100
 9786TIP3    H250774   5.760   1.190  10.666  0.7148  1.2309  0.6628
 9787TIP3   OH250775   5.387   3.701   4.760 -0.0972 -0.3542 -0.0916
 9787TIP3    H150776   5.349   3.661   4.838 -0.6292 -1.9789 -1.1383
 9787TIP3    H250777   5.419   3.786   4.790 -2.6520  0.2171  1.3446
 9788TIP3   OH250778   5.723   4.016   5.192 -0.4404 -0.5394  0.8302
 9788TIP3    H150779   5.638   4.020   5.148 -1.1368  0.8470  2.2256
 9788TIP3    H250780   5.776   3.959   5.136 -2.3200 -1.5679  0.0147
 9789TIP3   OH250781   1.081   1.712  10.820  0.0908  0.0998 -0.1002
 9789TIP3    H150782   1.127   1.776  10.765  0.9611 -0.3350  0.1005
 9789TIP3    H250783   1.148   1.681  10.881 -1.0067  1.0070  1.6228
 9790TIP3   OH250784   2.295   3.422   0.773 -0.4808 -0.3753 -0.7849
 9790TIP3    H150785   2.209   3.408   0.812 -0.1268 -0.0673  0.1176
 9790TIP3    H250786   2.357   3.388   0.838  0.2712  2.5541  0.1752
 9791TIP3   OH250787   3.315   1.493  12.260 -0.1040 -0.4954 -0.5326
 9791TIP3    H150788   3.281   1.533  12.339 -1.5975  2.9200 -2.6674
 9791TIP3    H250789   3.257   1.418  12.244 -0.0832 -0.9242  1.2694
 9792TIP3   OH250790   2.676   4.100   0.493 -0.5669  0.4197 -0.1232
 9792TIP3    H150791   2.634   4.132   0.572 -2.1026 -2.0595  0.1718
 9792TIP3    H250792   2.607   4.053   0.446  0.8918 -0.2255 -1.7408
 9793TIP3   OH250793   1.369   0.739   1.669  0.1792 -0.9233  0.1184
 9793TIP3    H150794   1.452   0.766   1.629  1.1695  2.2023  3.6667
 9793TIP3    H250795   1.302   0.778   1.614  1.2894  0.2257 -0.4637
 9794TIP3   OH250796   0.916   1.064  13.240  0.4724  0.1895  0.4183
 9794TIP3    H150797   0.957   1.150  13.234  1.6194 -0.3238  0.6563
 9794TIP3    H250798   0.823   1.080  13.224  0.8931  1.2579 -1.0949
 9795TIP3   OH250799   0.237   1.380   3.923 -0.2546 -0.1146  0.2843
 9795TIP3    H150800   0.318   1.329   3.932  0.3072  0.3832 -1.6516
 9795TIP3    H250801   0.196   1.346   3.843 -0.7813  1.2342 -0.0371
 9796TIP3   OH250802   4.485   2.376   0.207 -0.4092  0.2871  0.6436
 9796TIP3    H150803   4.459   2.289   0.177 -2.7615  1.2343 -0.3105
 9796TIP3    H250804   4.506   2.364   0.300  0.6655 -1.4979  0.2214
 9797TIP3   OH250805   3.745   0.748   3.352 -0.0574  0.1015  0.1157
 9797TIP3    H150806   3.806   0.820   3.367  0.1331 -0.2984  1.3444
 9797TIP3    H250807   3.782   0.674   3.400 -0.7272 -0.5697 -0.3788
 9798TIP3   OH250808   2.481   6.405  16.587  0.4457 -0.1357  0.0714
 9798TIP3    H150809   2.565   6.451  16.577 -0.7589  2.0121 -1.0045
 9798TIP3    H250810   2.481   6.374  16.677  2.1418  0.3618  0.2815
 9799TIP3   OH250811   5.708   1.852  12.256 -0.4764  0.0383  0.3727
 9799TIP3    H150812   5.727   1.879  12.346 -0.3355 -1.6085  0.8745
 9799TIP3    H250813   5.792   1.822  12.222 -0.8883 -1.1288  0.3567
 9800TIP3   OH250814   4.938   3.090   4.569 -0.0432  0.9019 -0.3584
 9800TIP3    H150815   4.972   3.145   4.640  0.7842 -1.3444  1.1086
 9800TIP3    H250816   4.880   3.028   4.613 -0.8217  0.4656 -1.9168
 9801TIP3   OH250817   4.915   1.101   4.119 -0.1958 -0.3524  0.1473
 9801TIP3    H150818   4.943   1.068   4.034 -0.5170 -0.4346  0.0749
 9801TIP3    H250819   4.820   1.092   4.119 -0.4118  1.4667 -0.2671
 9802TIP3   OH250820   4.150   4.861   0.103  0.6460 -0.7706 -0.7980
 9802TIP3    H150821   4.222   4.801   0.119  0.0278 -0.9499  1.7535
 9802TIP3    H250822   4.189   4.948   0.110  0.4322 -0.8167  2.3602
 9803TIP3   OH250823   3.717   4.991  15.498 -0.1340  0.1788  0.4875
 9803TIP3    H150824   3.758   4.917  15.453 -0.2728  0.4082 -0.0344
 9803TIP3    H250825   3.790   5.044  15.529 -0.0254  0.3697 -0.0723
 9804TIP3   OH250826   2.967   2.030   1.524 -0.0048 -0.1391 -0.3011
 9804TIP3    H150827   2.986   2.044   1.617 -0.3554 -1.7269  0.0301
 9804TIP3    H250828   2.875   2.053   1.514 -0.1320 -0.5722 -0.1229
 9805TIP3   OH250829   2.899   2.466  13.397  0.7846  0.3035 -0.4277
 9805TIP3    H150830   2.954   2.420  13.460 -1.2913 -0.7388  0.7100
 9805TIP3    H250831   2.857   2.536  13.448 -0.9956 -0.6085 -0.5714
 9806TIP3   OH250832   6.532   5.612   3.896  0.2053 -0.5210  0.1900
 9806TIP3    H150833   6.615   5.640   3.934 -1.4782  3.3417  1.4907
 9806TIP3    H250834   6.477   5.591   3.972 -0.7914 -0.4676 -0.4949
 9807TIP3   OH250835   5.986   4.545  15.884 -0.3161 -0.0459  0.0965
 9807TIP3    H150836   5.894   4.523  15.869  0.0008 -1.5300  0.1219
 9807TIP3    H250837   5.998   4.535  15.978 -0.8014  3.0816  0.5820
 9808TIP3   OH250838   3.612   5.108  12.478 -0.0261 -0.0148  0.5593
 9808TIP3    H150839   3.687   5.108  12.419 -1.7588  0.0657 -1.8035
 9808TIP3    H250840   3.558   5.034  12.448 -0.2454 -1.0127  3.1418
 9809TIP3   OH250841   2.137   1.005  11.173  0.2059  0.5291  0.2002
 9809TIP3    H150842   2.114   0.963  11.090 -0.2283  2.2390 -0.5887
 9809TIP3    H250843   2.224   1.041  11.159 -0.1720  1.4771  0.2068
 9810TIP3   OH250844   1.642   3.215  16.335  0.1501 -0.3102 -0.4728
 9810TIP3    H150845   1.563   3.161  16.326  2.2454 -3.4465 -1.8047
 9810TIP3    H250846   1.670   3.203  16.426 -1.0316  1.1229  0.1149
 9811TIP3   OH250847   4.044   6.726   0.990 -0.1887 -0.7329 -0.3506
 9811TIP3    H150848   4.076   6.786   1.058  0.1217 -0.0466 -1.0986
 9811TIP3    H250849   3.958   6.759   0.967 -0.9973 -1.8917  0.8097
 9812TIP3   OH250850   4.248   5.645   5.802  0.2228 -0.4314  0.1123
 9812TIP3    H150851   4.265   5.593   5.723  1.2023 -0.9213  0.6176
 9812TIP3    H250852   4.285   5.731   5.781 -0.4581 -0.2427 -0.3416
 9813TIP3   OH250853   4.365   5.449   3.800  0.4861  0.2946 -0.2319
 9813TIP3    H150854   4.290   5.496   3.834  0.1977  0.4725 -1.0781
 9813TIP3    H250855   4.331   5.362   3.777  1.1609 -0.6097  1.9498
 9814TIP3   OH250856   4.418   4.397   2.137  0.1596 -0.0219  0.3180
 9814TIP3    H150857   4.504   4.358   2.127  1.3640  2.8658 -2.1504
 9814TIP3    H250858   4.427   4.457   2.211 -1.3038 -3.0582  3.2275
 9815TIP3   OH250859   6.310   2.221   1.183  0.3015 -0.3430  0.3798
 9815TIP3    H150860   6.283   2.157   1.249 -2.6352 -1.2041 -1.4373
 9815TIP3    H250861   6.283   2.306   1.220 -0.5696 -0.7354  0.6831
 9816TIP3   OH250862   3.176   2.267  16.838  0.0893 -0.3798  0.4081
 9816TIP3    H150863   3.124   2.213  16.897 -0.7453 -0.1719 -0.1087
 9816TIP3    H250864   3.216   2.333  16.894 -1.6169  0.5210  0.6222
 9817TIP3   OH250865   6.290   1.403  17.136 -0.1035  0.6640 -0.2801
 9817TIP3    H150866   6.350   1.476  17.155  1.3971 -0.5870 -0.0667
 9817TIP3    H250867   6.261   1.420  17.046  0.3264  1.4487 -0.2841
 9818TIP3   OH250868   4.156   1.788   3.579 -0.5026  0.2168 -0.1714
 9818TIP3    H150869   4.130   1.832   3.497  0.4492 -1.9454 -1.7281
 9818TIP3    H250870   4.249   1.807   3.587 -0.8281  1.4301  1.1417
 9819TIP3   OH250871   6.467   5.762  14.072  0.2678  0.2814 -0.2349
 9819TIP3    H150872   6.375   5.773  14.050  0.4845 -0.3899 -1.5941
 9819TIP3    H250873   6.469   5.763  14.168 -1.3844 -1.3127 -0.1289
 9820TIP3   OH250874   6.322   5.775  16.596 -0.3607 -0.1160  1.0540
 9820TIP3    H150875   6.402   5.726  16.577 -1.1162 -1.1160  0.3301
 9820TIP3    H250876   6.258   5.708  16.621 -1.7832  0.3154 -1.1535
 9821TIP3   OH250877   0.278   4.829   1.124 -0.6299 -0.1102  0.1133
 9821TIP3    H150878   0.307   4.744   1.089  0.0923  0.5549 -0.9578
 9821TIP3    H250879   0.205   4.854   1.068  1.4261  1.6347 -2.0189
 9822TIP3   OH250880   6.774   4.378  14.690 -0.2020 -0.4792  0.5081
 9822TIP3    H150881   6.750   4.314  14.623  2.4127 -0.9943 -0.0376
 9822TIP3    H250882   6.720   4.355  14.766 -0.6977 -2.1056 -0.3003
 9823TIP3   OH250883   6.015   4.581   6.186 -0.2506  0.0802  0.1156
 9823TIP3    H150884   6.084   4.647   6.193  0.4841 -0.6770  0.1109
 9823TIP3    H250885   5.977   4.576   6.274  0.8757 -0.7474  0.5731
 9824TIP3   OH250886   5.437   3.874  11.484  0.3925  0.2329  0.4708
 9824TIP3    H150887   5.407   3.963  11.466  2.3149  0.7544 -0.3810
 9824TIP3    H250888   5.497   3.883  11.558  0.5814 -0.3551  0.3944
 9825TIP3   OH250889   0.576   1.202   5.643  0.0597 -0.3459  0.5282
 9825TIP3    H150890   0.657   1.193   5.692 -0.8580 -2.1034  1.8853
 9825TIP3    H250891   0.518   1.252   5.701 -0.2471 -0.2629  0.1550
 9826TIP3   OH250892   4.247   2.941   2.209 -0.5019  0.4779 -0.3904
 9826TIP3    H150893   4.185   3.001   2.167 -0.4408  1.1571  0.4770
 9826TIP3    H250894   4.236   2.956   2.302  0.7895  0.4122 -0.2158
 9827TIP3   OH250895   5.509   4.963   5.390 -0.3092  0.0468 -0.3633
 9827TIP3    H150896   5.472   4.880   5.420  0.0415 -0.5592 -1.5275
 9827TIP3    H250897   5.463   4.980   5.307 -0.5366  1.1407 -0.0296
 9828TIP3   OH250898   3.255   6.529  14.318 -0.3334  0.3383 -0.0993
 9828TIP3    H150899   3.235   6.457  14.378 -0.4225  0.3289 -0.1399
 9828TIP3    H250900   3.179   6.535  14.261 -0.7104  1.0045  0.4447
 9829TIP3   OH250901   4.680   5.518   3.998  0.4689 -0.6577  0.6722
 9829TIP3    H150902   4.756   5.536   3.942 -0.2319 -1.8246 -0.7302
 9829TIP3    H250903   4.618   5.588   3.976 -0.3938 -1.9328 -1.2180
 9830TIP3   OH250904   3.867   3.635  14.382 -0.2656 -0.2443  0.4566
 9830TIP3    H150905   3.846   3.707  14.324  0.9271 -1.6328 -1.8710
 9830TIP3    H250906   3.791   3.577  14.378 -0.3567 -0.1344  0.6113
 9831TIP3   OH250907   3.658   4.658  11.854 -0.6134 -0.1062  0.4802
 9831TIP3    H150908   3.622   4.665  11.942 -2.0565  1.7940 -0.1997
 9831TIP3    H250909   3.718   4.731  11.845 -0.2167 -0.4791 -0.0153
 9832TIP3   OH250910   3.118   1.427  15.768  0.7282 -0.4802 -0.1544
 9832TIP3    H150911   3.162   1.346  15.743  1.1746 -0.1263 -0.5597
 9832TIP3    H250912   3.184   1.474  15.820  1.2719  0.5578 -1.7152
 9833TIP3   OH250913   5.480   1.824  16.598  0.2140 -0.1555 -0.3170
 9833TIP3    H150914   5.455   1.905  16.553 -1.5003 -0.1114  0.6409
 9833TIP3    H250915   5.405   1.766  16.587  0.2796 -0.6066  1.3432
 9834TIP3   OH250916   1.136   4.471  14.694 -0.4256  0.0897 -0.0595
 9834TIP3    H150917   1.079   4.508  14.626  0.8045  0.1528 -1.0900
 9834TIP3    H250918   1.175   4.393  14.653  2.6235  1.7395 -0.5680
 9835TIP3   OH250919   4.312   2.695  10.874  0.4551 -0.0039 -0.1336
 9835TIP3    H150920   4.251   2.630  10.909  2.4760 -1.5653  0.7276
 9835TIP3    H250921   4.353   2.652  10.799  0.1537  1.2089 -1.0190
 9836TIP3   OH250922   2.039   4.315   0.907 -0.8549 -0.1339  0.1990
 9836TIP3    H150923   1.953   4.346   0.879 -0.1798 -0.1027 -2.0676
 9836TIP3    H250924   2.025   4.283   0.996 -3.4312 -0.9897 -0.4106
 9837TIP3   OH250925   1.435   2.085  14.240 -0.5117 -0.1774 -0.2384
 9837TIP3    H150926   1.400   2.022  14.303  0.3666  1.5340  2.0996
 9837TIP3    H250927   1.530   2.075  14.245 -0.3646  1.0894 -0.0206
 9838TIP3   OH250928   1.977   3.261  14.513 -0.1638  0.3962  0.1231
 9838TIP3    H150929   1.952   3.172  14.488 -0.5158  0.8782 -1.3069
 9838TIP3    H250930   1.949   3.269  14.604  0.2551 -1.0920  0.4037
 9839TIP3   OH250931   5.169   4.314   1.385 -0.4276  0.4090 -0.2700
 9839TIP3    H150932   5.099   4.332   1.447 -0.4594 -0.2614 -0.1057
 9839TIP3    H250933   5.189   4.399   1.345  0.3187  1.0524  1.4057
 9840TIP3   OH250934   4.578   1.013  12.201  0.2591  0.5199 -0.1489
 9840TIP3    H150935   4.493   1.044  12.173  0.1650  0.1822 -0.2494
 9840TIP3    H250936   4.624   0.992  12.120  0.4051  0.6240 -0.0922
 9841TIP3   OH250937   2.185   2.892   5.817 -0.4749 -0.9471  0.5195
 9841TIP3    H150938   2.116   2.844   5.770 -0.6349  0.6737 -0.9994
 9841TIP3    H250939   2.197   2.972   5.766 -0.2024  0.6378  2.9487
 9842TIP3   OH250940   1.546   2.785   0.329 -0.6675  0.3668 -0.2302
 9842TIP3    H150941   1.453   2.802   0.347 -0.4953  0.2083  0.9073
 9842TIP3    H250942   1.549   2.763   0.236 -2.0516 -1.6388  0.1409
 9843TIP3   OH250943   6.569   5.050  10.743  0.5524 -0.6623 -0.2186
 9843TIP3    H150944   6.610   5.064  10.657  1.3509 -1.5048  0.0129
 9843TIP3    H250945   6.532   4.962  10.737 -0.9217 -0.0675 -0.2859
 9844TIP3   OH250946   5.310   1.987  15.002 -0.1304 -0.4177  0.8770
 9844TIP3    H150947   5.370   1.930  15.051  3.6949  0.5992 -2.1201
 9844TIP3    H250948   5.348   2.074  15.010 -1.7899  0.4780 -0.4098
 9845TIP3   OH250949   6.095   1.464   5.506 -0.5303 -0.4059  0.1788
 9845TIP3    H150950   6.087   1.446   5.599  1.2119 -0.4421  0.3628
 9845TIP3    H250951   6.110   1.378   5.466  0.1482 -0.2491  0.0743
 9846TIP3   OH250952   0.221   4.260  15.430 -0.5289  0.5397 -0.1958
 9846TIP3    H150953   0.149   4.323  15.439 -2.3802 -1.5568  0.6205
 9846TIP3    H250954   0.238   4.231  15.520  1.7755  1.3693 -0.2988
 9847TIP3   OH250955   5.499   1.974  16.142  0.1078  0.9256  0.1509
 9847TIP3    H150956   5.502   1.879  16.155  0.7491  1.1128  1.6022
 9847TIP3    H250957   5.410   1.999  16.164 -0.5584  0.4793 -1.8740
 9848TIP3   OH250958   6.348   1.932  13.393  0.0379  0.1850  0.0886
 9848TIP3    H150959   6.397   1.868  13.444  0.7231 -0.3622 -1.1897
 9848TIP3    H250960   6.392   2.015  13.409  2.1647 -0.4547 -1.8579
 9849TIP3   OH250961   3.002   2.298   2.440  0.0953 -0.3005  0.4441
 9849TIP3    H150962   3.074   2.307   2.503  0.9534 -0.7942 -0.4536
 9849TIP3    H250963   3.024   2.359   2.370  0.1894 -1.2240 -0.3364
 9850TIP3   OH250964   1.364   3.124  16.295 -0.5060 -0.0479 -0.0686
 9850TIP3    H150965   1.299   3.142  16.227  0.5244 -1.9672 -1.6703
 9850TIP3    H250966   1.322   3.063  16.354 -0.8315  0.2970  0.0580
 9851TIP3   OH250967   3.984   0.538   2.322 -0.4897 -0.3407 -0.0816
 9851TIP3    H150968   4.019   0.494   2.245  2.2253 -0.3635  1.0583
 9851TIP3    H250969   3.945   0.468   2.374  2.1919 -1.2168  0.8721
 9852TIP3   OH250970   5.569   3.023  16.162  0.4360 -0.1188 -0.4329
 9852TIP3    H150971   5.531   3.001  16.077  0.6782 -2.1384 -0.0748
 9852TIP3    H250972   5.653   3.064  16.141 -0.1625  0.7783 -1.1661
 9853TIP3   OH250973   0.521   6.482   2.615 -0.5773 -0.6426  0.1535
 9853TIP3    H150974   0.549   6.390   2.609  1.2587 -0.0507 -1.3171
 9853TIP3    H250975   0.487   6.491   2.703  1.3665 -2.2009  1.1527
 9854TIP3   OH250976   5.541   1.566   6.028  0.1919 -0.4646  0.1144
 9854TIP3    H150977   5.562   1.572   6.121 -1.3185  0.9556  0.4062
 9854TIP3    H250978   5.449   1.537   6.025  0.1855 -0.4048 -0.9252
 9855TIP3   OH250979   1.880   6.421  11.142 -0.8997 -0.1199  0.3757
 9855TIP3    H150980   1.912   6.483  11.207  0.5663 -1.2100  0.7640
 9855TIP3    H250981   1.851   6.345  11.194 -0.4549 -0.6878 -0.1851
 9856TIP3   OH250982   5.913   3.543   2.335  0.2987 -0.4372  0.2583
 9856TIP3    H150983   5.979   3.499   2.281 -0.9290 -1.7976 -0.1992
 9856TIP3    H250984   5.923   3.636   2.314 -0.5079 -0.9421 -2.8343
 9857TIP3   OH250985   1.922   0.796   2.597 -0.1271  0.2905 -0.4641
 9857TIP3    H150986   1.978   0.725   2.629  0.2990  0.0268 -1.7539
 9857TIP3    H250987   1.873   0.824   2.675  0.2781 -0.8677  0.2418
 9858TIP3   OH250988   4.825   6.727   1.288  0.1965  0.0924 -0.1898
 9858TIP3    H150989   4.777   6.810   1.284 -0.1212 -0.1395 -1.6509
 9858TIP3    H250990   4.828   6.696   1.198  0.4075 -1.4462  0.3070
 9859TIP3   OH250991   0.126   4.838   1.899  0.2468  0.2721 -0.2411
 9859TIP3    H150992   0.058   4.899   1.871 -1.4416 -1.0355  0.8447
 9859TIP3    H250993   0.129   4.847   1.994 -1.7853 -2.9124  0.2840
 9860TIP3   OH250994   0.389   2.878   1.823 -0.0770 -0.0501  0.3666
 9860TIP3    H150995   0.426   2.933   1.893  0.5057 -0.4456  0.3797
 9860TIP3    H250996   0.416   2.789   1.846 -1.5256 -0.4331  0.6690
 9861TIP3   OH250997   6.023   5.806  12.293 -0.5947 -0.2747  0.0156
 9861TIP3    H150998   6.091   5.795  12.360 -1.3471 -0.2856  0.7945
 9861TIP3    H250999   6.026   5.725  12.242 -0.0270 -0.2741  0.0431
 9862TIP3   OH251000   1.217   3.263  15.561  0.5414 -0.3259  0.2652
 9862TIP3    H151001   1.295   3.240  15.511 -0.4413 -0.5410 -1.2510
 9862TIP3    H251002   1.191   3.183  15.606  0.1034 -0.8136 -0.8146
 9863TIP3   OH251003   5.321   5.509   1.318 -0.6460  0.1589  0.6265
 9863TIP3    H151004   5.249   5.568   1.341 -0.7659  0.1948  0.1762
 9863TIP3    H251005   5.399   5.562   1.329 -0.7541  0.4131  0.2163
 9864TIP3   OH251006   0.165   4.740   4.855  0.1562 -0.1218  0.4429
 9864TIP3    H151007   0.167   4.834   4.870  1.1473  0.0531 -0.7080
 9864TIP3    H251008   0.096   4.727   4.790 -0.4355 -0.2870  1.0829
 9865TIP3   OH251009   3.495   2.308   5.952 -0.5271  0.4618 -1.1079
 9865TIP3    H151010   3.405   2.313   5.918 -1.2847 -0.9068  0.5028
 9865TIP3    H251011   3.484   2.274   6.041  1.6660 -0.6185 -1.1907
 9866TIP3   OH251012   1.364   1.031  11.561  0.3609 -0.3136 -0.0649
 9866TIP3    H151013   1.300   0.968  11.526 -0.4403  0.0544  0.7083
 9866TIP3    H251014   1.322   1.066  11.640  0.4537  1.7611 -0.8953
 9867TIP3   OH251015   3.862   6.023   3.167 -0.1558 -0.3476  0.0818
 9867TIP3    H151016   3.808   6.019   3.246  0.8545 -1.8255  0.7270
 9867TIP3    H251017   3.918   5.946   3.172 -0.5078 -0.8561 -2.4102
 9868TIP3   OH251018   6.032   3.811   0.242  0.0983 -0.4669 -0.0980
 9868TIP3    H151019   6.060   3.901   0.227  0.7770 -0.6700 -0.0415
 9868TIP3    H251020   5.943   3.820   0.277  0.6225  0.2408  1.1094
 9869TIP3   OH251021   3.731   5.213  12.747 -0.2554  0.1773 -0.5902
 9869TIP3    H151022   3.716   5.122  12.772  0.1255  0.2701 -0.0097
 9869TIP3    H251023   3.826   5.221  12.738 -0.3633  0.1002 -2.2884
 9870TIP3   OH251024   4.189   3.198   3.229 -0.5897  0.5290 -0.1382
 9870TIP3    H151025   4.226   3.241   3.306  1.1498 -2.1406  0.6801
 9870TIP3    H251026   4.133   3.129   3.265 -0.5125 -0.1473 -1.2752
 9871TIP3   OH251027   4.220   3.154  16.872 -0.1391 -0.1301 -0.4315
 9871TIP3    H151028   4.276   3.085  16.836 -0.1555 -2.1614  2.9803
 9871TIP3    H251029   4.249   3.163  16.962 -0.4662  4.1606 -0.5737
 9872TIP3   OH251030   0.173   0.273   5.856  0.0278 -0.4918 -0.1364
 9872TIP3    H151031   0.139   0.207   5.917  2.1557 -1.6945 -0.1299
 9872TIP3    H251032   0.104   0.284   5.791 -1.7822 -0.1344  1.7393
 9873TIP3   OH251033   0.620   3.583  15.533 -0.0103 -0.2720  0.5949
 9873TIP3    H151034   0.595   3.666  15.573 -0.9703 -1.3605  2.3766
 9873TIP3    H251035   0.540   3.550  15.493  0.4866 -0.1274 -0.5666
 9874TIP3   OH251036   2.697   5.647   4.847  0.5356 -0.4079  0.0646
 9874TIP3    H151037   2.653   5.597   4.915 -0.2451 -0.2304 -0.3028
 9874TIP3    H251038   2.763   5.698   4.894 -0.6186  0.4307  0.8342
 9875TIP3   OH251039   3.403   4.247  11.938  0.0527 -0.2432 -0.2632
 9875TIP3    H151040   3.460   4.211  11.870  0.6220  0.0749  0.0326
 9875TIP3    H251041   3.396   4.340  11.917 -0.3720 -0.2874 -0.3082
 9876TIP3   OH251042   4.765   5.722   2.006  0.0489  0.1076  0.7016
 9876TIP3    H151043   4.712   5.755   2.079 -0.2008  1.3495  0.0000
 9876TIP3    H251044   4.719   5.752   1.927  1.2164  0.2933  0.0627
 9877TIP3   OH251045   1.145   1.973   3.488  0.4479 -0.4394 -0.2992
 9877TIP3    H151046   1.210   1.918   3.444  0.7908 -0.6125  0.4003
 9877TIP3    H251047   1.197   2.036   3.539  0.1136  1.8230 -2.5315
 9878TIP3   OH251048   5.625   1.160   1.562 -0.1646 -0.0629  0.6358
 9878TIP3    H151049   5.544   1.149   1.513 -0.6403  1.1853  1.1223
 9878TIP3    H251050   5.598   1.161   1.654  0.5872 -1.1576  0.8982
 9879TIP3   OH251051   4.235   5.411   3.339 -0.0026  0.3328 -0.6176
 9879TIP3    H151052   4.272   5.348   3.277  1.3724  0.8869 -0.4102
 9879TIP3    H251053   4.141   5.395   3.337  0.3525 -2.2931  0.0240
 9880TIP3   OH251054   5.149   0.676  16.549 -0.0611 -0.1578  0.5182
 9880TIP3    H151055   5.123   0.762  16.582  0.8950 -0.9468  3.6342
 9880TIP3    H251056   5.070   0.623  16.553 -0.6149  0.4395 -1.2651
 9881TIP3   OH251057   5.511   6.008   3.759 -0.1277  0.1912 -0.0733
 9881TIP3    H151058   5.472   5.976   3.678  0.5444  0.0746 -0.3645
 9881TIP3    H251059   5.560   5.933   3.794  2.1103  1.0346 -1.1684
 9882TIP3   OH251060   5.222   4.258   3.662  0.2131 -0.6377 -0.0596
 9882TIP3    H151061   5.195   4.294   3.747 -0.3339 -2.2540  0.4756
 9882TIP3    H251062   5.143   4.219   3.626  0.8064 -1.3630 -0.5982
 9883TIP3   OH251063   2.816   4.833   5.873 -0.6111 -0.0871 -0.2024
 9883TIP3    H151064   2.749   4.765   5.877  0.2169 -0.9365 -0.4053
 9883TIP3    H251065   2.800   4.876   5.788 -0.8081 -0.3729 -0.3132
 9884TIP3   OH251066   4.149   6.092  14.423 -0.1522 -0.8381 -0.1708
 9884TIP3    H151067   4.155   6.188  14.416 -0.4139 -0.8275 -0.2575
 9884TIP3    H251068   4.091   6.067  14.351  0.5441 -1.1383 -0.6356
 9885TIP3   OH251069   2.118   6.035   0.006 -0.3874 -0.3103 -0.3335
 9885TIP3    H151070   2.165   6.026   0.089 -0.8729  1.9106  0.2320
 9885TIP3    H251071   2.178   6.082  -0.051 -0.5083 -0.7940 -0.8691
 9886TIP3   OH251072   4.685   2.186  12.612  0.3492 -0.1959 -0.7255
 9886TIP3    H151073   4.600   2.170  12.653  0.1572  0.0382 -1.0263
 9886TIP3    H251074   4.740   2.219  12.683 -0.0702  0.4951 -0.7181
 9887TIP3   OH251075   0.074   1.591   1.324 -0.2406 -0.2489  0.0361
 9887TIP3    H151076   0.101   1.630   1.408 -0.0184 -0.8358  0.2435
 9887TIP3    H251077   0.133   1.630   1.260 -2.6496  2.9329 -0.4479
 9888TIP3   OH251078   4.365   6.114  16.234  0.1380  0.4525  0.6182
 9888TIP3    H151079   4.322   6.143  16.314  4.5648  2.9553  2.4174
 9888TIP3    H251080   4.358   6.019  16.236 -2.1177  0.5650  2.5252
 9889TIP3   OH251081   1.912   5.938  16.400 -0.1186 -0.0713  0.4315
 9889TIP3    H151082   1.852   6.012  16.389  1.2546  1.4026  2.1053
 9889TIP3    H251083   1.878   5.889  16.474 -1.4672 -1.6640 -1.1614
 9890TIP3   OH251084   2.479   3.869  13.240 -0.7850 -0.3092 -0.1605
 9890TIP3    H151085   2.497   3.945  13.296 -2.5168  0.2191 -0.2781
 9890TIP3    H251086   2.560   3.857  13.189  0.2470  0.1719  1.2992
 9891TIP3   OH251087   1.509   0.749   4.581 -0.1289 -0.0496 -0.0468
 9891TIP3    H151088   1.504   0.783   4.670 -0.1903 -1.1676  0.3896
 9891TIP3    H251089   1.553   0.819   4.532 -0.6902  0.8597  0.6940
 9892TIP3   OH251090   5.892   1.804  12.667 -0.4201  0.1130 -0.0362
 9892TIP3    H151091   5.889   1.900  12.673 -0.1296  0.2662 -1.8501
 9892TIP3    H251092   5.811   1.780  12.622 -0.3744 -0.4736  0.1908
 9893TIP3   OH251093   3.719   0.546  15.057  0.2232  0.6050  0.1429
 9893TIP3    H151094   3.775   0.624  15.056  2.9850 -1.2275 -0.5557
 9893TIP3    H251095   3.697   0.532  14.965 -0.2274  0.5217  0.2633
 9894TIP3   OH251096   4.901   5.559   3.812 -0.7003 -0.1952  0.5887
 9894TIP3    H151097   4.839   5.607   3.757  1.0423 -0.0334 -1.3601
 9894TIP3    H251098   4.959   5.626   3.847  0.2357 -0.5802 -0.1546
 9895TIP3   OH251099   4.891   1.999  16.735 -0.0593  0.1534  0.3917
 9895TIP3    H151100   4.881   1.951  16.817 -1.9068  0.8100  0.6138
 9895TIP3    H251101   4.888   1.932  16.667 -1.1743 -0.1943  0.7605
 9896TIP3   OH251102   0.770   0.637   1.852 -0.5692  0.2980  0.5262
 9896TIP3    H151103   0.718   0.579   1.907 -0.2156  0.0160  0.5650
 9896TIP3    H251104   0.852   0.650   1.900 -1.9083  3.6252  2.2160
 9897TIP3   OH251105   5.972   6.210   3.413  0.7468  0.5721  0.5894
 9897TIP3    H151106   5.988   6.148   3.484  0.2205 -0.3242 -0.0543
 9897TIP3    H251107   6.050   6.203   3.357 -0.8161 -2.3482 -1.4941
 9898TIP3   OH251108   6.431   1.609  15.080  0.4002  0.0173 -0.2742
 9898TIP3    H151109   6.353   1.596  15.134  0.7726 -0.2691  0.2024
 9898TIP3    H251110   6.405   1.676  15.017 -0.8476 -1.4328 -1.3702
 9899TIP3   OH251111   2.142   5.180   5.985  0.7754  0.1296  0.3360
 9899TIP3    H151112   2.097   5.103   5.951  0.6928  0.1097  0.4867
 9899TIP3    H251113   2.197   5.146   6.056  2.0075 -0.0399 -0.6684
 9900TIP3   OH251114   4.998   3.314  12.501  0.1068 -0.1608 -0.0113
 9900TIP3    H151115   5.090   3.329  12.522  0.4265 -0.8825 -0.8631
 9900TIP3    H251116   4.957   3.296  12.586  1.2829 -2.6435  0.1255
 9901TIP3   OH251117   0.950   3.143  13.112 -0.0650  0.1155 -0.0969
 9901TIP3    H151118   0.992   3.087  13.177  0.1561 -0.7181 -0.9460
 9901TIP3    H251119   0.900   3.083  13.057 -2.4339  1.0641  0.8787
 9902TIP3   OH251120   1.836   2.514  12.748  0.6862 -0.2785 -0.0221
 9902TIP3    H151121   1.812   2.587  12.805 -0.3370  0.4792 -1.3622
 9902TIP3    H251122   1.857   2.555  12.664 -0.0289 -1.5251 -0.8455
 9903TIP3   OH251123   6.207   5.437  12.179  0.5625  0.3730 -0.2488
 9903TIP3    H151124   6.287   5.453  12.230  0.0648  1.5536  0.2090
 9903TIP3    H251125   6.234   5.377  12.110  1.6306  0.0060  0.4612
 9904TIP3   OH251126   4.016   3.558   3.114  0.0257 -0.1649 -0.2149
 9904TIP3    H151127   3.960   3.628   3.081 -1.1825 -1.5566 -1.2489
 9904TIP3    H251128   3.989   3.481   3.065  1.7843 -1.2282  0.4144
 9905TIP3   OH251129   5.001   5.400   2.778 -0.7912 -0.0255  0.5222
 9905TIP3    H151130   5.032   5.424   2.865 -1.2640  0.0761  0.6644
 9905TIP3    H251131   5.028   5.472   2.722 -0.0962 -0.2978  0.4987
 9906TIP3   OH251132   3.187   6.111  12.453  0.5433 -0.1921  0.0775
 9906TIP3    H151133   3.175   6.196  12.412 -1.8183 -0.1230  0.7373
 9906TIP3    H251134   3.271   6.116  12.497 -0.2038  2.3818  1.3753
 9907TIP3   OH251135   3.159   4.494   0.085  0.0207 -0.1269 -0.4990
 9907TIP3    H151136   3.129   4.557   0.020 -1.7169 -0.1928  0.1737
 9907TIP3    H251137   3.079   4.449   0.113  0.7023 -0.0716  1.7019
 9908TIP3   OH251138   3.415   5.678   0.083 -0.3315  0.6890 -0.3883
 9908TIP3    H151139   3.425   5.649  -0.008 -0.1639  1.7331 -0.7188
 9908TIP3    H251140   3.433   5.600   0.135  2.8490  0.7572 -1.1498
 9909TIP3   OH251141   5.219   4.346  13.978  0.3116 -0.0190 -0.0523
 9909TIP3    H151142   5.173   4.428  13.958 -0.3639 -0.6429 -1.1354
 9909TIP3    H251143   5.309   4.361  13.951  0.1924  0.3599 -0.2467
 9910TIP3   OH251144   1.639   3.507   5.679 -0.0457  0.2255  0.3007
 9910TIP3    H151145   1.615   3.589   5.637 -0.8552  0.6818  1.6092
 9910TIP3    H251146   1.727   3.488   5.646 -0.5899  0.6112 -1.4753
 9911TIP3   OH251147   3.895   3.245   5.371  0.1990 -0.5018  0.0339
 9911TIP3    H151148   3.916   3.303   5.298  1.0548 -0.3933  0.3526
 9911TIP3    H251149   3.861   3.304   5.439  1.4004 -0.2979  0.4881
 9912TIP3   OH251150   3.148   6.795  15.002  0.2744  0.0851  0.3370
 9912TIP3    H151151   3.234   6.784  15.043  0.8120 -0.1138 -0.8215
 9912TIP3    H251152   3.147   6.732  14.930 -1.1507 -0.4507  0.8069
 9913TIP3   OH251153   6.192   1.980  16.014 -0.3524  0.2775  0.6201
 9913TIP3    H151154   6.275   1.950  15.980 -0.7369 -0.9174  0.7075
 9913TIP3    H251155   6.188   2.073  15.989  0.6298  0.1437 -0.0762
 9914TIP3   OH251156   3.289   2.836   3.301 -0.2177  0.2394  0.0780
 9914TIP3    H151157   3.249   2.755   3.268 -0.5946  1.2726 -2.2270
 9914TIP3    H251158   3.382   2.826   3.280  1.2527 -2.3570  5.8242
 9915TIP3   OH251159   0.933   5.834   1.618  0.5757  0.3957 -0.3853
 9915TIP3    H151160   0.964   5.917   1.653  2.0320 -0.8772  1.5413
 9915TIP3    H251161   0.953   5.838   1.524  1.8055  1.6784 -0.0951
 9916TIP3   OH251162   5.254   4.117   0.166  0.2642  0.5492 -0.7883
 9916TIP3    H151163   5.280   4.112   0.074 -0.6964  1.6572 -1.1515
 9916TIP3    H251164   5.158   4.115   0.163  0.1674  2.3749  0.0257
 9917TIP3   OH251165   3.479   4.850  12.197  0.0589 -0.2645  0.5381
 9917TIP3    H151166   3.510   4.893  12.117 -0.0060 -1.9732 -0.4583
 9917TIP3    H251167   3.398   4.806  12.170 -0.2732 -0.3926  1.7073
 9918TIP3   OH251168   5.483   3.402   2.106 -0.1417 -0.6173  0.2206
 9918TIP3    H151169   5.423   3.472   2.080  0.3537 -0.1622  0.2828
 9918TIP3    H251170   5.526   3.436   2.185  1.1320 -0.3832 -0.5432
 9919TIP3   OH251171   6.399   4.286  13.084  0.4618  0.2595  0.2718
 9919TIP3    H151172   6.428   4.376  13.100  0.1626  0.9115 -2.4000
 9919TIP3    H251173   6.454   4.256  13.011 -0.4380 -1.2015  0.1575
 9920TIP3   OH251174   4.276   4.706  16.427  0.3737 -0.0230  0.1467
 9920TIP3    H151175   4.254   4.776  16.366 -0.8844 -1.1083 -0.6989
 9920TIP3    H251176   4.366   4.684  16.406  0.2434  0.2249 -0.7045
 9921TIP3   OH251177   5.337   2.051  15.606  0.3500  0.0492  0.3052
 9921TIP3    H151178   5.387   1.991  15.661 -0.1745  0.2453  1.0086
 9921TIP3    H251179   5.393   2.067  15.530  0.5239 -1.2702  0.1452
 9922TIP3   OH251180   4.564   4.394  12.988  0.1726 -0.1051  0.0602
 9922TIP3    H151181   4.608   4.413  13.070  0.4025  0.1672 -0.1207
 9922TIP3    H251182   4.522   4.477  12.964 -1.7346 -0.7488  0.9911
 9923TIP3   OH251183   0.423   2.625   1.925 -0.0457  0.2772  0.0269
 9923TIP3    H151184   0.409   2.582   1.841  0.3008 -1.1431  0.6734
 9923TIP3    H251185   0.399   2.560   1.990 -1.8187  1.8788  1.0684
 9924TIP3   OH251186   2.497   2.146   2.905 -0.3787 -0.5199  0.0139
 9924TIP3    H151187   2.498   2.102   2.990  0.6295 -1.0484 -0.2544
 9924TIP3    H251188   2.568   2.210   2.911 -0.7203 -0.1176 -0.2083
 9925TIP3   OH251189   0.609   3.565   4.845 -0.5227  0.6573 -0.2045
 9925TIP3    H151190   0.598   3.625   4.919 -0.7203  0.5512 -0.1478
 9925TIP3    H251191   0.704   3.554   4.837 -0.4858 -1.5020  1.8069
 9926TIP3   OH251192   3.307   4.959   4.392  0.2738 -0.4331 -0.0059
 9926TIP3    H151193   3.293   4.923   4.304  0.1918  0.4816 -0.3810
 9926TIP3    H251194   3.232   5.018   4.406  0.6478 -0.0435  0.3962
 9927TIP3   OH251195   6.015   1.641   1.151 -0.4183 -0.2756  0.1255
 9927TIP3    H151196   6.097   1.684   1.176 -0.5195  0.9170 -1.4058
 9927TIP3    H251197   5.965   1.634   1.232  0.8100 -0.1735  0.9184
 9928TIP3   OH251198   1.488   4.669  17.120 -0.2066  0.5648 -0.6479
 9928TIP3    H151199   1.402   4.683  17.080  0.3106  2.6146 -1.1741
 9928TIP3    H251200   1.542   4.740  17.086  1.1892  0.4431  1.1481
 9929TIP3   OH251201   1.265   5.022   3.225  0.6290  0.0518 -0.6542
 9929TIP3    H151202   1.190   5.031   3.167  1.4047 -2.0855 -2.0892
 9929TIP3    H251203   1.327   5.088   3.194  1.1755 -1.2960 -2.5727
 9930TIP3   OH251204   4.208   2.843   3.758  0.0219  0.2626 -0.3919
 9930TIP3    H151205   4.161   2.874   3.836 -1.5877 -0.4208 -1.0573
 9930TIP3    H251206   4.283   2.795   3.793  0.0685  1.0870  0.7054
 9931TIP3   OH251207   6.459   5.164  16.497 -0.0443  0.0499  0.1251
 9931TIP3    H151208   6.524   5.143  16.564 -0.1566 -0.3181  0.1243
 9931TIP3    H251209   6.492   5.244  16.455  1.1217 -0.8640 -0.7906
 9932TIP3   OH251210   6.752   6.152  16.563 -0.4814 -0.5782 -0.0311
 9932TIP3    H151211   6.747   6.184  16.474  0.6149 -1.5669 -0.4724
 9932TIP3    H251212   6.670   6.181  16.604  0.2446  2.3717 -0.4682
 9933TIP3   OH251213   2.163   3.167  12.562  0.4412  0.2568 -0.3230
 9933TIP3    H151214   2.093   3.189  12.499 -0.8186 -0.6971  0.6919
 9933TIP3    H251215   2.229   3.123  12.509  0.0083  0.6429 -1.2090
 9934TIP3   OH251216   3.253   1.951  14.614  0.1249 -0.3672 -0.3362
 9934TIP3    H151217   3.339   1.938  14.575  0.0379 -2.0583 -0.0728
 9934TIP3    H251218   3.199   1.985  14.544  1.5731  3.3676  0.1448
 9935TIP3   OH251219   3.734   3.500   4.163  0.5980 -0.2563 -0.2443
 9935TIP3    H151220   3.805   3.523   4.103 -0.5903  0.2654 -1.4808
 9935TIP3    H251221   3.751   3.553   4.241  1.0248  0.5891 -0.8977
 9936TIP3   OH251222   4.721   1.610  13.023 -0.9302  0.3222  0.0942
 9936TIP3    H151223   4.644   1.639  13.072 -2.0609  0.0547 -1.4207
 9936TIP3    H251224   4.687   1.546  12.960  0.3411  0.9678 -1.3252
 9937TIP3   OH251225   3.743   5.159  13.259 -0.1273  0.1446 -0.3891
 9937TIP3    H151226   3.796   5.232  13.290 -2.1227  0.8631  1.5911
 9937TIP3    H251227   3.735   5.175  13.164  1.4470  1.1353 -0.3907
 9938TIP3   OH251228   1.823   1.754  12.677  0.1498 -0.0124  0.4996
 9938TIP3    H151229   1.860   1.777  12.763  2.1796 -2.0407  0.2664
 9938TIP3    H251230   1.851   1.824  12.619  0.4835  0.3444  1.0795
 9939TIP3   OH251231   6.204   2.672   4.210 -0.0812  0.3618 -0.1717
 9939TIP3    H151232   6.180   2.603   4.272  0.0308  0.6546  0.1999
 9939TIP3    H251233   6.214   2.627   4.127 -2.3265  0.2582 -0.4500
 9940TIP3   OH251234   3.249   0.482   3.253  0.3883 -0.6027 -0.1215
 9940TIP3    H151235   3.159   0.452   3.254  0.4557 -0.7976  0.5367
 9940TIP3    H251236   3.302   0.402   3.260  0.5633 -0.3711  1.9256
 9941TIP3   OH251237   3.903   5.701   1.537  0.1133 -0.0952  0.4592
 9941TIP3    H151238   3.926   5.645   1.463 -1.3890 -1.7554  1.1738
 9941TIP3    H251239   3.917   5.647   1.614 -0.7208  0.7405  1.2283
 9942TIP3   OH251240   2.655   5.891  13.591  0.2985 -0.2098 -0.3067
 9942TIP3    H151241   2.705   5.841  13.656  1.4133  0.1119 -0.8924
 9942TIP3    H251242   2.613   5.825  13.536 -0.0589 -0.4804  0.2772
 9943TIP3   OH251243   4.050   1.640  16.576  0.0772 -0.0492  0.1181
 9943TIP3    H151244   4.038   1.621  16.669 -3.2678 -3.4065 -0.7727
 9943TIP3    H251245   4.135   1.601  16.554 -0.4629 -1.9255  1.2091
 9944TIP3   OH251246   6.377   0.385   5.931  0.2626 -0.0919 -0.5942
 9944TIP3    H151247   6.430   0.366   5.854  0.5129  0.9036 -0.6776
 9944TIP3    H251248   6.371   0.480   5.933 -1.6075 -0.1678 -0.6432
 9945TIP3   OH251249   1.853   6.698   6.376  0.6520 -0.2209 -0.0931
 9945TIP3    H151250   1.771   6.747   6.366  0.1705 -1.2277 -1.3719
 9945TIP3    H251251   1.844   6.654   6.460  0.4738  0.7109  0.3993
 9946TIP3   OH251252   1.174   1.318  13.370  0.2776  0.2455  0.0990
 9946TIP3    H151253   1.086   1.338  13.336  0.9521 -0.6715 -2.3174
 9946TIP3    H251254   1.210   1.254  13.309  1.8771 -0.9849  2.2193
 9947TIP3   OH251255   4.786   3.561   1.466  0.4732  0.7386 -0.5550
 9947TIP3    H151256   4.876   3.570   1.497 -0.0486  1.6753  0.7353
 9947TIP3    H251257   4.732   3.578   1.543 -0.8126 -0.5223 -1.1432
 9948TIP3   OH251258   5.960   0.105   2.775 -0.0810  0.1336  0.2624
 9948TIP3    H151259   5.918   0.158   2.843 -0.5356  0.9879 -0.6560
 9948TIP3    H251260   6.048   0.088   2.809 -0.3549  0.4019  1.1348
 9949TIP3   OH251261   2.957   0.080   4.787  0.4173  0.0692  0.2047
 9949TIP3    H151262   2.924   0.039   4.708 -0.0950 -0.3644  0.6366
 9949TIP3    H251263   3.041   0.037   4.804  0.1329 -0.4228  0.3624
 9950TIP3   OH251264   6.390   5.351   5.974  0.3759  0.2450 -0.1715
 9950TIP3    H151265   6.422   5.288   5.910 -1.0216  0.4344 -1.1143
 9950TIP3    H251266   6.311   5.388   5.933  1.2292  2.7345  0.2508
 9951TIP3   OH251267   4.451   2.322  11.697  0.2026 -0.3324  0.3869
 9951TIP3    H151268   4.538   2.293  11.723  0.4431 -0.7069 -0.7620
 9951TIP3    H251269   4.391   2.275  11.755  0.6743 -1.9749 -0.3905
 9952TIP3   OH251270   6.270   3.433  12.116  0.1745 -0.6141  0.1614
 9952TIP3    H151271   6.207   3.470  12.178 -0.9342 -0.1511 -1.1934
 9952TIP3    H251272   6.310   3.360  12.164 -1.2709 -0.8189  1.1246
 9953TIP3   OH251273   4.808   5.258   0.009  0.0980  0.0411 -0.8435
 9953TIP3    H151274   4.784   5.170   0.037  3.3185 -1.6835 -2.8678
 9953TIP3    H251275   4.756   5.274  -0.069  0.2377 -0.5072 -1.0517
 9954TIP3   OH251276   2.537   5.221  15.659 -0.3777  0.3208  0.1809
 9954TIP3    H151277   2.526   5.309  15.623 -0.3437 -0.4657 -1.8575
 9954TIP3    H251278   2.612   5.185  15.612 -0.8934 -1.0841  0.3802
 9955TIP3   OH251279   1.972   5.928   1.203  0.0509 -0.8657  0.4055
 9955TIP3    H151280   2.052   5.881   1.180 -0.7715 -1.6565 -1.0029
 9955TIP3    H251281   1.910   5.904   1.134 -1.1565  0.3621  1.0202
 9956TIP3   OH251282   4.931   2.849   3.104  0.3628  0.1635  0.0385
 9956TIP3    H151283   5.008   2.898   3.134 -0.4985  0.8360  1.2177
 9956TIP3    H251284   4.961   2.803   3.025  2.0124  0.2909  0.5590
 9957TIP3   OH251285   6.748   6.701   2.857  0.3720  1.1113  0.3363
 9957TIP3    H151286   6.827   6.653   2.831  0.6359  2.2578 -1.1332
 9957TIP3    H251287   6.680   6.635   2.861  1.2587  0.2009  0.9810
 9958TIP3   OH251288   6.637   4.458   3.846 -0.6126 -0.4615  0.2429
 9958TIP3    H151289   6.723   4.416   3.856 -0.3317 -0.4068 -1.5866
 9958TIP3    H251290   6.586   4.395   3.796 -1.0227  0.2848 -0.2947
 9959TIP3   OH251291   0.537   0.818   3.097 -0.4586  0.0556 -0.0802
 9959TIP3    H151292   0.505   0.758   3.029  0.2117 -0.6037  0.1624
 9959TIP3    H251293   0.623   0.782   3.121 -1.2015 -0.4725  2.0114
 9960TIP3   OH251294   4.565   1.095   0.100 -0.5587  0.2677  0.4237
 9960TIP3    H151295   4.525   1.018   0.060  1.0913 -1.3674  1.7418
 9960TIP3    H251296   4.657   1.070   0.113  0.0367  2.4793  0.9089
 9961TIP3   OH251297   1.689   0.224  13.212 -0.2039 -0.8790  0.1254
 9961TIP3    H151298   1.632   0.300  13.218 -0.0863 -0.8098  0.3584
 9961TIP3    H251299   1.646   0.157  13.265 -1.4108 -1.6750 -1.7488
 9962TIP3   OH251300   4.374   3.438   6.726  0.1173 -0.1538 -0.0930
 9962TIP3    H151301   4.437   3.454   6.656 -0.5898  1.9463 -0.3001
 9962TIP3    H251302   4.294   3.413   6.680  0.4853 -1.9190  0.1396
 9963TIP3   OH251303   6.075   3.798   1.443 -0.2537  0.4317 -0.3924
 9963TIP3    H151304   6.033   3.713   1.448 -0.1489  0.4348  1.2510
 9963TIP3    H251305   6.058   3.838   1.529  0.0740  1.8823 -0.9697
 9964TIP3   OH251306   4.119   0.813   5.630  0.2579 -0.8678  0.0010
 9964TIP3    H151307   4.135   0.727   5.670  1.8104 -0.9719 -0.7970
 9964TIP3    H251308   4.027   0.831   5.650 -0.1460 -2.7773  0.0777
 9965TIP3   OH251309   1.331   2.693  16.133  0.0132 -0.2344 -0.4317
 9965TIP3    H151310   1.408   2.657  16.176  0.0376 -0.8154 -0.9496
 9965TIP3    H251311   1.309   2.629  16.065  0.4840  1.0382 -1.8596
 9966TIP3   OH251312   4.369   4.462   2.741  0.1980  0.4463  0.6274
 9966TIP3    H151313   4.453   4.498   2.771  3.0637 -4.6645 -0.1431
 9966TIP3    H251314   4.378   4.456   2.646 -1.8847  1.3413  0.3092
 9967TIP3   OH251315   5.849   0.106  12.615  0.0640  0.3091  0.1679
 9967TIP3    H151316   5.912   0.172  12.640 -0.6879  0.3138  2.1849
 9967TIP3    H251317   5.766   0.153  12.605 -0.2063 -0.1135  0.3428
 9968TIP3   OH251318   2.610   1.926  12.587 -0.0884  0.3813 -0.1672
 9968TIP3    H151319   2.643   1.929  12.677 -1.1298 -3.3522  0.5219
 9968TIP3    H251320   2.686   1.941  12.532  1.4234 -1.1640  1.3810
 9969TIP3   OH251321   6.636   2.785  15.617 -0.1214  0.0935  0.0930
 9969TIP3    H151322   6.636   2.754  15.527 -0.6734  1.8149 -0.5364
 9969TIP3    H251323   6.729   2.801  15.636 -0.1175  1.0806 -0.6848
 9970TIP3   OH251324   2.997   2.798  16.610  0.1849  0.4797 -0.2827
 9970TIP3    H151325   3.083   2.758  16.622 -0.3041 -0.4351  0.3721
 9970TIP3    H251326   2.935   2.727  16.630 -0.7195  1.4124  0.3398
 9971TIP3   OH251327   2.223   0.434  11.097 -0.0069  0.4304 -0.1157
 9971TIP3    H151328   2.271   0.460  11.018 -0.3543  2.0757  0.1648
 9971TIP3    H251329   2.143   0.394  11.065  0.7863 -0.8391 -0.5810
 9972TIP3   OH251330   3.225   1.772   2.325 -0.9785  0.5166 -0.1524
 9972TIP3    H151331   3.183   1.780   2.239 -1.4289 -0.3974 -0.0271
 9972TIP3    H251332   3.155   1.746   2.384 -0.0918 -2.2979 -0.1779
 9973TIP3   OH251333   6.092   5.210   2.893 -0.5070 -0.1782 -0.3059
 9973TIP3    H151334   6.045   5.292   2.910  0.1189  0.1226 -0.0142
 9973TIP3    H251335   6.043   5.144   2.940  0.8182  0.5202  2.2342
 9974TIP3   OH251336   5.178   1.472  12.481  0.4198 -0.1948 -0.1061
 9974TIP3    H151337   5.102   1.492  12.535  0.8073  2.4783 -0.4122
 9974TIP3    H251338   5.150   1.489  12.391  0.5056 -2.2515 -0.5775
 9975TIP3   OH251339   6.250   6.197   3.365 -0.5657  0.2600 -0.3229
 9975TIP3    H151340   6.296   6.150   3.435 -0.2202  0.0987 -0.6563
 9975TIP3    H251341   6.287   6.285   3.368  0.3009 -0.0609 -1.0578
 9976TIP3   OH251342   3.940   2.410  16.283 -0.1211 -0.0258 -0.0323
 9976TIP3    H151343   4.003   2.392  16.352  1.9488  0.9679 -1.5515
 9976TIP3    H251344   3.859   2.432  16.329  0.6458 -1.2275  1.9898
 9977TIP3   OH251345   0.251   0.542  16.232  0.2546  0.1493 -0.0502
 9977TIP3    H151346   0.206   0.459  16.214  1.1737 -0.1812 -0.9265
 9977TIP3    H251347   0.185   0.596  16.276 -0.3240 -1.0866  0.6673
 9978TIP3   OH251348   5.005   2.763   0.138 -0.0429  0.1023  0.6863
 9978TIP3    H151349   4.938   2.718   0.190 -0.1544  1.6102  1.9152
 9978TIP3    H251350   4.961   2.842   0.107  1.0039  0.8287  1.0369
 9979TIP3   OH251351   0.210   1.424  15.807 -0.5081  0.0539  0.2562
 9979TIP3    H151352   0.175   1.407  15.895 -0.3241 -0.5193  0.2164
 9979TIP3    H251353   0.211   1.520  15.801 -0.3513  0.1034  0.9493
 9980TIP3   OH251354   5.592   6.002  10.615 -0.6183 -0.7949  0.1355
 9980TIP3    H151355   5.513   5.985  10.667 -1.0728  2.2292  0.6436
 9980TIP3    H251356   5.559   6.027  10.529  0.0065 -2.6578 -0.6959
 9981TIP3   OH251357   2.474   1.518  10.418  0.6247 -1.0337 -0.3256
 9981TIP3    H151358   2.439   1.437  10.380  1.6373 -0.2564 -3.1671
 9981TIP3    H251359   2.562   1.526  10.380  0.8874  0.9394  0.5927
 9982TIP3   OH251360   1.593   6.621  15.398  0.0904 -0.5900 -0.3876
 9982TIP3    H151361   1.610   6.528  15.388 -0.1023 -0.9504  2.0865
 9982TIP3    H251362   1.678   6.659  15.418  0.1231 -0.2563 -1.1259
 9983TIP3   OH251363   3.986   6.599   2.420  0.0818 -0.1100 -0.7683
 9983TIP3    H151364   3.961   6.669   2.479  0.8431 -1.1610  0.8629
 9983TIP3    H251365   3.902   6.557   2.396 -0.1104 -1.2000  1.5786
 9984TIP3   OH251366   5.493   3.974   5.020  0.0484  0.0873 -1.3192
 9984TIP3    H151367   5.441   4.012   4.950 -0.5004 -1.3362 -1.7095
 9984TIP3    H251368   5.430   3.928   5.075  0.2642  2.2017  0.8882
 9985TIP3   OH251369   6.247   5.698  13.741 -0.1581  0.0455  0.0822
 9985TIP3    H151370   6.262   5.603  13.744 -0.2124  0.0152 -0.4756
 9985TIP3    H251371   6.181   5.709  13.672  1.5150  0.6847 -1.4677
 9986TIP3   OH251372   4.836   5.204   6.155 -0.4415 -0.2753  0.2526
 9986TIP3    H151373   4.804   5.116   6.175 -1.9212  0.4267  1.1261
 9986TIP3    H251374   4.890   5.228   6.231 -1.5110  0.2373  0.8771
 9987TIP3   OH251375   0.868   3.648   3.454 -0.6675  0.6214 -0.2341
 9987TIP3    H151376   0.892   3.601   3.534 -0.5664  1.3326  0.1617
 9987TIP3    H251377   0.862   3.580   3.387  2.2617  0.2977 -0.3286
 9988TIP3   OH251378   0.351   1.155  14.550  0.0050  0.4732 -0.1047
 9988TIP3    H151379   0.328   1.090  14.617 -0.6020  0.3683 -0.4076
 9988TIP3    H251380   0.286   1.224  14.562  1.2567  1.5273  0.8876
 9989TIP3   OH251381   1.783   6.615   0.529  0.3733  0.5742  0.2852
 9989TIP3    H151382   1.736   6.542   0.569 -0.6076  0.3026 -1.2682
 9989TIP3    H251383   1.797   6.677   0.600 -0.6914 -0.1786  1.1814
 9990TIP3   OH251384   3.789   6.286  11.401 -0.3567  0.3072 -0.8671
 9990TIP3    H151385   3.753   6.234  11.473 -0.0973  0.2996 -0.7405
 9990TIP3    H251386   3.753   6.373  11.414 -0.3230  0.3020 -0.7368
 9991TIP3   OH251387   2.409   4.213   2.643  0.2681 -0.5087  0.3593
 9991TIP3    H151388   2.358   4.138   2.614  2.0239 -2.3552  1.7809
 9991TIP3    H251389   2.439   4.255   2.562 -1.1058 -1.0540 -0.4510
 9992TIP3   OH251390   4.687   3.868  11.010 -0.3696 -0.2739  0.5393
 9992TIP3    H151391   4.696   3.921  10.931  1.2165 -1.0065  0.1857
 9992TIP3    H251392   4.674   3.779  10.977 -2.1058 -0.2751  1.1263
 9993TIP3   OH251393   3.976   1.886  11.564  0.0460 -0.7910  0.1640
 9993TIP3    H151394   3.988   1.932  11.481 -1.5053 -1.4767 -0.4865
 9993TIP3    H251395   4.038   1.927  11.624  1.5027 -0.5515 -1.4261
 9994TIP3   OH251396   2.690   0.388   0.167 -0.0064  0.1342  0.2886
 9994TIP3    H151397   2.781   0.377   0.140 -0.0671  0.6990 -0.1721
 9994TIP3    H251398   2.663   0.301   0.196 -0.0424 -0.6250 -1.8436
 9995TIP3   OH251399   5.640   3.345   5.790 -0.6220 -0.3463 -0.0932
 9995TIP3    H151400   5.711   3.372   5.849 -0.4475 -0.5856 -0.1927
 9995TIP3    H251401   5.601   3.269   5.834  0.2646 -1.2754 -0.8439
 9996TIP3   OH251402   2.929   1.299  17.191 -0.1535  0.1256  0.9995
 9996TIP3    H151403   2.900   1.386  17.217 -0.6639 -0.0330  0.9608
 9996TIP3    H251404   3.024   1.308  17.178 -0.3371  0.8794  0.1416
 9997TIP3   OH251405   2.003   5.953  14.823  0.0905 -0.0052  0.0107
 9997TIP3    H151406   1.925   5.928  14.773 -0.2142 -0.1953  0.5723
 9997TIP3    H251407   1.978   5.939  14.914  0.9476 -0.5218  0.1730
 9998TIP3   OH251408   0.975   1.539  13.697 -0.3704 -0.3510  0.2320
 9998TIP3    H151409   0.924   1.483  13.638 -0.3141  0.3071 -0.4629
 9998TIP3    H251410   1.061   1.546  13.655  0.5243 -1.8985  1.6673
 9999TIP3   OH251411   5.421   5.055  13.692 -0.0280 -0.4315  0.2695
 9999TIP3    H151412   5.391   5.141  13.722 -1.1202 -0.1098 -1.6285
 9999TIP3    H251413   5.350   4.995  13.717 -0.9058 -0.1744 -1.4848
10000TIP3   OH251414   3.212   6.195  10.755  0.3805  0.0704  0.2430
10000TIP3    H151415   3.168   6.193  10.841  0.0846  1.6167  0.1619
10000TIP3    H251416   3.264   6.275  10.757 -0.8438  0.9921 -1.5813
10001TIP3   OH251417   3.140   3.154  12.439  0.3025 -0.0998  0.3170
10001TIP3    H151418   3.137   3.153  12.535 -0.3253 -1.0876  0.2939
10001TIP3    H251419   3.051   3.134  12.412  0.2951  0.9434 -0.4909
10002TIP3   OH251420   5.396   1.069  14.630  0.7726  0.3008 -0.7402
10002TIP3    H151421   5.435   0.996  14.582 -1.2763  0.1996 -2.3948
10002TIP3    H251422   5.378   1.135  14.563 -1.1498  0.6108  0.0017
10003TIP3   OH251423   5.952   6.230   1.837  0.6929  0.2330 -0.0604
10003TIP3    H151424   5.905   6.224   1.921 -0.2037  1.1689 -0.4607
10003TIP3    H251425   6.026   6.288   1.856  0.4351  0.5257  0.0743
10004TIP3   OH251426   1.263   4.864   1.867  0.3340  0.2256  0.0765
10004TIP3    H151427   1.278   4.945   1.818  1.1269  0.7013  1.0654
10004TIP3    H251428   1.350   4.827   1.880 -0.0663 -1.1633 -0.9389
10005TIP3   OH251429   4.127   0.835   5.083  0.1021  0.5997 -1.7573
10005TIP3    H151430   4.193   0.796   5.140 -2.2572  0.9845  1.4922
10005TIP3    H251431   4.098   0.764   5.027 -1.6487 -1.6657  1.6671
10006TIP3   OH251432   0.728   0.275  16.395 -0.1158 -0.3365 -0.3219
10006TIP3    H151433   0.683   0.312  16.319  1.5755 -0.5523 -1.4729
10006TIP3    H251434   0.747   0.185  16.371  1.5820 -0.0398 -0.2006
10007TIP3   OH251435   0.824   0.305  13.144 -0.1775  0.0184 -0.3071
10007TIP3    H151436   0.836   0.394  13.177  1.6790 -0.4569  0.4481
10007TIP3    H251437   0.852   0.309  13.052 -0.0181  0.2014 -0.2513
10008TIP3   OH251438   0.430   2.453  13.234  0.1723  0.6895  0.5071
10008TIP3    H151439   0.388   2.504  13.303  0.1767  1.6888 -0.2199
10008TIP3    H251440   0.358   2.404  13.194  0.3240 -0.7944  1.9293
10009TIP3   OH251441   3.318   4.855  16.377  0.4409  0.3188 -0.1304
10009TIP3    H151442   3.403   4.896  16.362  0.4471  0.3895  0.0920
10009TIP3    H251443   3.257   4.906  16.324  0.3984  0.8101  0.3820
10010TIP3   OH251444   2.785   0.295  13.269 -0.2721 -0.2085  0.2219
10010TIP3    H151445   2.828   0.301  13.355 -0.8577  1.0171  0.4474
10010TIP3    H251446   2.793   0.382  13.232  0.1820 -0.7917 -1.0961
10011TIP3   OH251447   6.331   3.822   4.446 -0.3784  0.3906  0.5336
10011TIP3    H151448   6.253   3.856   4.490  1.2006  2.1561  2.1297
10011TIP3    H251449   6.300   3.743   4.401 -3.2007  1.3353  0.5782
10012TIP3   OH251450   4.128   5.069   3.496  0.0382  0.4603  0.4300
10012TIP3    H151451   4.148   5.139   3.558 -0.9535  0.2148  1.0514
10012TIP3    H251452   4.105   4.994   3.551 -2.3044  0.6597 -0.1952
10013TIP3   OH251453   3.084   3.078  12.788  0.7357  0.3335 -0.0005
10013TIP3    H151454   3.132   2.996  12.799  0.0103 -0.6571 -3.0986
10013TIP3    H251455   3.150   3.147  12.795  2.0274 -0.7796 -0.8982
10014TIP3   OH251456   6.366   4.847  17.007 -0.1126 -0.7956  0.5086
10014TIP3    H151457   6.443   4.790  17.009  0.2132 -0.3837 -0.1116
10014TIP3    H251458   6.327   4.838  17.095  0.6986 -0.9185  0.8597
10015TIP3   OH251459   3.585   5.851   5.469  0.7887  0.5003 -0.4148
10015TIP3    H151460   3.622   5.771   5.432  1.5060  1.2215 -1.3213
10015TIP3    H251461   3.619   5.854   5.559  1.3621  0.1591 -0.6169
10016TIP3   OH251462   6.153   3.997   2.588  0.1179 -0.4850  0.5975
10016TIP3    H151463   6.209   4.005   2.666  0.2485 -1.0264  0.5661
10016TIP3    H251464   6.202   4.041   2.519 -0.3959  0.7736  1.0089
10017TIP3   OH251465   5.741   0.468   5.470 -0.7086  0.0363 -0.0910
10017TIP3    H151466   5.740   0.559   5.500 -1.7926  0.0998 -0.2708
10017TIP3    H251467   5.687   0.421   5.534 -1.7161 -0.1221 -1.0237
10018TIP3   OH251468   6.352   0.405   4.270 -0.1090 -0.1582  0.0236
10018TIP3    H151469   6.302   0.409   4.189 -1.0279  2.4413  0.6083
10018TIP3    H251470   6.439   0.438   4.246 -0.0315 -0.4721 -0.1270
10019TIP3   OH251471   1.510   6.729   1.396  0.0496  0.5198 -0.2003
10019TIP3    H151472   1.455   6.780   1.455  0.5707  0.9074 -0.0438
10019TIP3    H251473   1.497   6.638   1.425  0.3735  0.7115  0.5850
10020TIP3   OH251474   5.072   2.659  13.937  0.1326  0.3813  0.0950
10020TIP3    H151475   5.089   2.565  13.943  1.8875  0.6478 -0.1456
10020TIP3    H251476   5.158   2.700  13.947  0.1606  1.7738 -3.8192
10021TIP3   OH251477   4.080   4.852  11.152  0.2619  0.0279  0.3314
10021TIP3    H151478   4.133   4.799  11.212 -0.3574 -0.8755  0.1079
10021TIP3    H251479   4.106   4.821  11.065  0.7909  0.9796  0.1362
10022TIP3   OH251480   4.141   5.369   6.134 -0.0002 -0.0767  0.0787
10022TIP3    H151481   4.129   5.278   6.163 -0.4411  0.0815  0.3916
10022TIP3    H251482   4.061   5.414   6.160  0.3460  0.4791  0.2074
10023TIP3   OH251483   0.546   1.033  15.178  0.3111 -0.1365 -0.0854
10023TIP3    H151484   0.451   1.033  15.165  0.3873  1.5198 -1.0130
10023TIP3    H251485   0.557   1.051  15.271 -0.2919 -0.3494  0.0339
10024TIP3   OH251486   3.132   0.939  12.180 -0.3281  0.0892 -0.5975
10024TIP3    H151487   3.052   0.891  12.198 -0.7949  0.6556 -1.0993
10024TIP3    H251488   3.104   1.031  12.175  0.5706  0.4547  0.5760
10025TIP3   OH251489   1.415   0.800  15.494  0.0504  0.0261 -0.2954
10025TIP3    H151490   1.366   0.718  15.502 -1.2472  0.8040  0.1754
10025TIP3    H251491   1.392   0.849  15.573  1.0312  0.7262 -0.4308
10026TIP3   OH251492   5.166   3.676   5.261 -0.1529 -0.9227  0.8406
10026TIP3    H151493   5.257   3.705   5.269  1.4328 -4.1893 -2.5488
10026TIP3    H251494   5.160   3.603   5.323 -0.1394 -1.2958  0.4064
10027TIP3   OH251495   6.166   3.857   2.177 -0.0153  0.2802 -1.2069
10027TIP3    H151496   6.169   3.831   2.085  1.3140  0.1989 -1.1548
10027TIP3    H251497   6.190   3.950   2.177 -0.8741  0.5165 -1.0115
10028TIP3   OH251498   5.381   2.045   0.412 -0.1627  0.0472 -0.3740
10028TIP3    H151499   5.469   2.073   0.385 -0.6771  1.6258 -0.5112
10028TIP3    H251500   5.355   1.979   0.348  1.0904 -0.8094 -0.0529
10029TIP3   OH251501   0.778   6.406  16.058  0.7759  0.1550  0.0052
10029TIP3    H151502   0.693   6.451  16.059  0.5075 -0.3403 -0.6440
10029TIP3    H251503   0.818   6.433  15.975 -0.4585 -2.7592 -1.6740
10030TIP3   OH251504   4.809   5.702   4.490 -0.1596 -0.1120 -0.3233
10030TIP3    H151505   4.861   5.782   4.480 -0.3341  0.2503  1.3884
10030TIP3    H251506   4.733   5.730   4.542 -0.7422 -1.1892 -0.5745
10031TIP3   OH251507   3.191   4.503   4.813  0.2364  0.2480  0.1830
10031TIP3    H151508   3.123   4.445   4.778 -1.2079  2.7516 -1.4751
10031TIP3    H251509   3.273   4.465   4.783 -0.5061 -1.8194  0.6043
10032TIP3   OH251510   3.335   1.307   4.286  0.3249  0.5376  0.1618
10032TIP3    H151511   3.391   1.229   4.289  0.4296  0.6497  2.0260
10032TIP3    H251512   3.387   1.375   4.329 -0.1559  1.3836 -0.5782
10033TIP3   OH251513   1.619   1.663  16.274  0.0188 -0.2484 -0.0433
10033TIP3    H151514   1.532   1.646  16.239  0.5483 -0.8035 -1.1842
10033TIP3    H251515   1.654   1.576  16.294 -0.3870  0.0719  2.2836
10034TIP3   OH251516   5.120   3.232   4.718  0.1838  0.4515  0.9894
10034TIP3    H151517   5.122   3.313   4.769  3.9887 -0.0484  1.9509
10034TIP3    H251518   5.208   3.224   4.682 -0.6118 -2.3411 -0.6436
10035TIP3   OH251519   2.796   1.121   0.934 -0.3261  0.0183  0.0844
10035TIP3    H151520   2.799   1.142   1.027 -0.7098 -0.7824  0.2895
10035TIP3    H251521   2.704   1.133   0.910 -0.6944 -1.8943  0.3511
10036TIP3   OH251522   4.843   2.959  16.730  0.1207 -0.3721 -0.1692
10036TIP3    H151523   4.919   2.914  16.766 -0.8477 -0.9039  1.3290
10036TIP3    H251524   4.779   2.957  16.801 -1.4704 -0.3732 -1.5427
10037TIP3   OH251525   6.733   1.877   1.861 -0.5019 -0.4677  0.4469
10037TIP3    H151526   6.655   1.835   1.897  0.9942 -1.4902  2.7331
10037TIP3    H251527   6.792   1.804   1.839  0.8900  0.3186  1.4253
10038TIP3   OH251528   3.002   4.096   4.603  0.0911  0.6044  0.3224
10038TIP3    H151529   2.983   4.147   4.524  3.0817  1.4689  0.0049
10038TIP3    H251530   2.970   4.150   4.675 -1.3228  0.5091 -0.2132
10039TIP3   OH251531   1.711   2.324   2.438 -0.1123 -0.3990 -0.0333
10039TIP3    H151532   1.730   2.314   2.531 -0.3675  0.6148  0.1401
10039TIP3    H251533   1.684   2.237   2.409 -4.4548  0.0924  1.8485
10040TIP3   OH251534   1.004   6.636   1.817  0.2613  0.2389  0.2221
10040TIP3    H151535   0.982   6.650   1.909  0.9283  0.2896  0.3738
10040TIP3    H251536   1.020   6.724   1.782  3.1045  0.0478  0.8404
10041TIP3   OH251537   5.583   0.296   2.828 -0.6773  0.3119  0.2263
10041TIP3    H151538   5.584   0.370   2.888  1.7738  1.0383 -0.6122
10041TIP3    H251539   5.668   0.253   2.840  0.3210  1.0026 -3.2484
10042TIP3   OH251540   5.189   6.049   0.630 -0.0487  0.7763  0.0337
10042TIP3    H151541   5.104   6.088   0.654 -1.0109 -1.1314 -0.1097
10042TIP3    H251542   5.179   6.024   0.539  0.2942 -0.3885  0.2986
10043TIP3   OH251543   0.216   3.197   1.198 -0.5076 -0.0331  0.2519
10043TIP3    H151544   0.221   3.222   1.105 -1.7214  0.5255  0.3169
10043TIP3    H251545   0.257   3.271   1.244 -0.7282  0.1071  0.2211
10044TIP3   OH251546   0.382   1.692   3.575  0.0617  0.2256 -0.2434
10044TIP3    H151547   0.290   1.717   3.587 -0.2762  0.0386 -2.1883
10044TIP3    H251548   0.426   1.771   3.546  0.7107  0.4947  1.3523
10045TIP3   OH251549   1.517   0.332   2.196  0.3866  0.2287  0.6352
10045TIP3    H151550   1.487   0.423   2.185 -0.4943 -0.0718  0.4469
10045TIP3    H251551   1.612   0.339   2.205  0.3027  1.1969  0.9238
10046TIP3   OH251552   3.780   1.264  15.343 -0.7214 -0.0920  0.4677
10046TIP3    H151553   3.721   1.300  15.276 -1.1102  0.3148  1.0111
10046TIP3    H251554   3.733   1.189  15.378 -1.2859  0.6795  1.4297
10047TIP3   OH251555   2.828   3.177   1.218  0.4160  0.4400 -0.7348
10047TIP3    H151556   2.914   3.156   1.253  0.1417  1.3633  0.5677
10047TIP3    H251557   2.771   3.107   1.249  0.8019 -0.6036 -2.2503
10048TIP3   OH251558   0.961   3.512   0.009  0.7458  0.0036 -0.3183
10048TIP3    H151559   0.962   3.586  -0.052  1.3367  0.4548  0.2256
10048TIP3    H251560   1.018   3.539   0.081  1.9789 -1.4622 -0.6826
10049TIP3   OH251561   3.303   1.073   4.919 -0.1283 -0.6665  1.0945
10049TIP3    H151562   3.303   0.979   4.901  0.5336 -0.4151 -0.3098
10049TIP3    H251563   3.395   1.099   4.915 -0.1385 -0.1802  2.8895
10050TIP3   OH251564   0.881   4.134   0.518 -0.2703 -0.0495  0.1750
10050TIP3    H151565   0.928   4.165   0.441 -0.8515  0.8841  0.1850
10050TIP3    H251566   0.836   4.055   0.489 -2.0818  1.3424 -1.0380
10051TIP3   OH251567   5.726   0.499  17.140 -0.4915 -0.3884  0.2167
10051TIP3    H151568   5.681   0.579  17.112  0.8944  0.6215  0.7939
10051TIP3    H251569   5.727   0.444  17.062  1.7518  1.6433 -1.3363
10052TIP3   OH251570   0.022   4.391  13.009  0.3114 -0.0701  0.4376
10052TIP3    H151571  -0.010   4.457  12.947  0.1748 -0.1350  0.4387
10052TIP3    H251572   0.114   4.413  13.022  0.1289  0.4501  0.8688
10053TIP3   OH251573   3.319   5.099  12.572  0.1433  0.3987 -0.3426
10053TIP3    H151574   3.390   5.164  12.574  0.5545  0.1132 -2.7967
10053TIP3    H251575   3.359   5.018  12.604  0.4894  0.6128 -0.2301
10054TIP3   OH251576   2.680   3.893  13.789 -0.3211  0.4851  0.6799
10054TIP3    H151577   2.675   3.819  13.848 -0.7074 -0.3105 -0.3138
10054TIP3    H251578   2.729   3.860  13.713 -0.7925  1.1306  0.0770
10055TIP3   OH251579   5.282   5.377   4.203 -0.3442 -0.4446  0.1965
10055TIP3    H151580   5.300   5.397   4.295  0.1360 -0.1590  0.0411
10055TIP3    H251581   5.216   5.442   4.177  1.1139  0.9304 -0.2703
10056TIP3   OH251582   3.274   2.499  14.813  0.5215 -0.1806  0.3937
10056TIP3    H151583   3.362   2.507  14.849  1.3684 -1.3852 -1.2458
10056TIP3    H251584   3.268   2.568  14.747 -0.3222  0.8125  1.4703
10057TIP3   OH251585   0.022   0.547  13.016 -0.5626  0.2414 -0.4675
10057TIP3    H151586   0.037   0.604  12.940 -0.7726 -1.4787 -1.8715
10057TIP3    H251587   0.022   0.606  13.091  0.5893  1.8957 -1.7040
10058TIP3   OH251588   4.604   4.682  11.078 -0.3998 -0.3119 -0.1784
10058TIP3    H151589   4.524   4.707  11.124 -1.3261  0.0875 -1.9231
10058TIP3    H251590   4.603   4.734  10.997  1.8210 -0.0177 -0.0983
10059TIP3   OH251591   1.328   2.858  11.482 -0.2926  0.0599  0.3539
10059TIP3    H151592   1.241   2.820  11.476  0.3244 -1.4453  0.4820
10059TIP3    H251593   1.314   2.947  11.516 -1.9920  0.8863 -2.2101
10060TIP3   OH251594   6.122   0.137   1.462  0.3397 -1.0772  0.1287
10060TIP3    H151595   6.124   0.114   1.555  0.3611 -2.0447 -0.1055
10060TIP3    H251596   6.055   0.205   1.455  0.0995 -1.2467  0.7886
10061TIP3   OH251597   1.262   3.619   5.908 -0.2729 -0.4290 -0.0483
10061TIP3    H151598   1.184   3.636   5.962  0.1139  0.5616  0.2212
10061TIP3    H251599   1.269   3.697   5.852  1.6901  0.4773  1.3518
10062TIP3   OH251600   1.986   4.019  15.537 -0.6283 -0.0181  0.0213
10062TIP3    H151601   1.945   4.097  15.575 -0.9482  0.0950 -0.5443
10062TIP3    H251602   2.006   3.963  15.612  1.3307  1.4088  0.6341
10063TIP3   OH251603   0.207   1.077  16.955 -0.5317  0.2394 -0.3685
10063TIP3    H151604   0.140   1.011  16.976 -0.4762  0.2959  0.0030
10063TIP3    H251605   0.276   1.062  17.020 -0.1427  0.1266 -0.7996
10064TIP3   OH251606   6.345   1.412  12.040  0.0919  0.5064  0.1007
10064TIP3    H151607   6.297   1.494  12.028  0.5512  0.7377 -0.2322
10064TIP3    H251608   6.433   1.432  12.008  0.4906  0.1766  0.9719
10065TIP3   OH251609   6.295   4.208  11.349 -0.3710 -0.5708 -0.0788
10065TIP3    H151610   6.282   4.187  11.441 -0.9997  0.5987  0.1144
10065TIP3    H251611   6.365   4.149  11.321 -1.1993 -2.0159  0.7327
10066TIP3   OH251612   4.128   2.152   0.995 -0.4139 -0.9333 -0.1022
10066TIP3    H151613   4.048   2.164   1.046 -0.3937 -0.0621 -0.2713
10066TIP3    H251614   4.198   2.187   1.051 -0.5244  1.0556 -1.1439
10067TIP3   OH251615   1.308   1.216   1.046  0.1011 -0.2473  0.3102
10067TIP3    H151616   1.214   1.231   1.048 -0.2079 -2.0534  1.8999
10067TIP3    H251617   1.319   1.136   0.995  0.6480 -0.7112  1.1267
10068TIP3   OH251618   5.132   5.981   0.368  0.2119 -0.1562 -0.2390
10068TIP3    H151619   5.154   5.900   0.321 -1.6919  0.0140 -1.5511
10068TIP3    H251620   5.081   6.032   0.305 -0.2512  1.2290  1.1952
10069TIP3   OH251621   5.965   3.794  16.767  0.3960  0.3475  0.5549
10069TIP3    H151622   6.014   3.715  16.787 -1.1690 -1.0532 -0.8510
10069TIP3    H251623   5.879   3.763  16.738 -0.1701  2.5458 -0.3521
10070TIP3   OH251624   3.693   3.174   1.203 -0.1977  0.6642  0.1152
10070TIP3    H151625   3.610   3.148   1.164 -0.3452 -2.0684  1.9517
10070TIP3    H251626   3.670   3.240   1.268 -0.7589  0.7259 -0.1431
10071TIP3   OH251627   0.820   2.797  16.539  0.1869  0.9049  0.3560
10071TIP3    H151628   0.728   2.779  16.558  0.0190  3.2000  2.1816
10071TIP3    H251629   0.868   2.761  16.614  0.7031  0.4672 -0.1733
10072TIP3   OH251630   1.618   4.192  15.332 -0.0148 -0.1852  0.7065
10072TIP3    H151631   1.639   4.239  15.252 -0.1303  0.0459  0.8094
10072TIP3    H251632   1.672   4.233  15.399 -0.0444 -0.2624  0.7780
10073TIP3   OH251633   0.817   1.745  12.337  0.5015 -0.1201 -0.0147
10073TIP3    H151634   0.765   1.689  12.279 -0.2149  0.3521  0.1488
10073TIP3    H251635   0.753   1.807  12.373  1.4284  1.4270 -0.9313
10074TIP3   OH251636   1.381   2.974   3.492  0.0977 -0.2001  0.0787
10074TIP3    H151637   1.353   3.043   3.551  1.6073  1.0841 -0.6554
10074TIP3    H251638   1.300   2.925   3.472 -1.5515  2.8237 -1.3077
10075TIP3   OH251639   1.614   2.093  16.776 -0.1289  0.0849  0.2133
10075TIP3    H151640   1.663   2.069  16.697  0.2140  0.2809  0.3660
10075TIP3    H251641   1.523   2.078  16.752  0.0342 -0.8627  0.1234
10076TIP3   OH251642   0.732   0.120   0.924  0.0981 -0.3587  0.0233
10076TIP3    H151643   0.714   0.048   0.863 -0.9065 -0.1382  0.0465
10076TIP3    H251644   0.717   0.199   0.872 -0.1732 -0.1721  0.3795
10077TIP3   OH251645   1.142   2.569  10.087 -0.0079 -0.3640 -0.1324
10077TIP3    H151646   1.173   2.521  10.010 -0.3110  0.5760 -0.8546
10077TIP3    H251647   1.169   2.515  10.161  0.4455 -1.1974 -0.8865
10078TIP3   OH251648   2.904   5.413   4.249  0.4418 -0.1298 -0.2380
10078TIP3    H151649   2.823   5.420   4.301  0.7721 -0.6097  0.3582
10078TIP3    H251650   2.963   5.476   4.289  0.0795  0.8862 -1.2487
10079TIP3   OH251651   1.996   0.684  15.607  0.7290 -0.0259  0.4597
10079TIP3    H151652   2.005   0.658  15.699  0.0353  2.1808  1.1974
10079TIP3    H251653   1.926   0.749  15.607  2.1878  1.6422 -1.2779
10080TIP3   OH251654   5.061   0.738   3.180  0.2681  0.2317 -0.2426
10080TIP3    H151655   5.017   0.806   3.232 -1.3021  0.8569 -2.2420
10080TIP3    H251656   4.990   0.695   3.133  1.3527 -2.1618  0.1602
10081TIP3   OH251657   5.517   5.357  12.145 -0.2107 -0.0684 -0.5813
10081TIP3    H151658   5.518   5.379  12.052 -0.6815 -1.1242 -0.8547
10081TIP3    H251659   5.558   5.270  12.149 -2.0356 -0.9610 -0.0911
10082TIP3   OH251660   2.490   5.021  16.381 -0.0216  0.7068  0.7522
10082TIP3    H151661   2.491   5.061  16.468  2.9874  1.0603  0.6721
10082TIP3    H251662   2.566   5.059  16.337 -0.1014 -1.2343 -1.2078
10083TIP3   OH251663   2.538   1.445  15.238 -0.0094 -0.6672  0.0167
10083TIP3    H151664   2.572   1.364  15.276  0.5765 -1.1502 -1.4744
10083TIP3    H251665   2.600   1.512  15.266 -0.9999 -0.4993  2.0542
10084TIP3   OH251666   1.531   2.191  11.848  0.4580 -0.0809 -0.1112
10084TIP3    H151667   1.620   2.222  11.834 -0.1945  2.2804  0.6417
10084TIP3    H251668   1.524   2.179  11.943 -0.5267  1.4666  0.0352
10085TIP3   OH251669   0.766   2.261   0.828 -0.3564 -0.2773  0.8051
10085TIP3    H151670   0.711   2.184   0.813 -1.3694  0.6128 -0.1944
10085TIP3    H251671   0.791   2.291   0.741  0.9003 -0.0577  1.2115
10086TIP3   OH251672   4.049   2.053   0.329  0.2676  0.3839 -0.6471
10086TIP3    H151673   4.097   2.085   0.252  1.3175  0.4662  0.0258
10086TIP3    H251674   4.058   1.957   0.324  0.5957  0.4042 -0.4656
10087TIP3   OH251675   3.574   0.027  16.435 -0.2418  0.2476  0.1225
10087TIP3    H151676   3.619  -0.006  16.358 -1.4235 -0.0015 -0.4952
10087TIP3    H251677   3.639   0.081  16.480  0.5356  0.2131 -0.9250
10088TIP3   OH251678   0.839   3.953  15.618 -0.0874 -0.4127  0.0286
10088TIP3    H151679   0.925   3.989  15.597  0.0961 -2.0206 -2.4774
10088TIP3    H251680   0.820   3.894  15.544 -3.0529 -0.5991  0.8354
10089TIP3   OH251681   6.371   6.041  14.481 -0.1582  0.2309 -0.0658
10089TIP3    H151682   6.309   6.040  14.408  0.2453 -1.6968 -0.4341
10089TIP3    H251683   6.451   6.002  14.446  0.5921  0.7918  0.9660
10090TIP3   OH251684   2.985   2.810   2.559 -1.0740 -0.1555  0.1477
10090TIP3    H151685   3.041   2.753   2.613 -0.4944  0.7658  0.5360
10090TIP3    H251686   3.032   2.817   2.476 -2.3346 -2.1974 -0.8244
10091TIP3   OH251687   2.314   1.452   0.340 -0.4957 -0.1770 -0.2346
10091TIP3    H151688   2.268   1.528   0.377 -0.5750 -0.1271 -0.4333
10091TIP3    H251689   2.389   1.490   0.296 -0.3410 -0.2466 -0.0314
10092TIP3   OH251690   3.526   3.228  14.978 -0.3813 -0.0382 -0.4421
10092TIP3    H151691   3.585   3.266  15.043  0.7747 -0.0331 -1.4718
10092TIP3    H251692   3.553   3.136  14.972 -0.3671 -0.0016 -1.0231
10093TIP3   OH251693   2.537   0.995  12.782 -0.1542  0.4282 -0.2775
10093TIP3    H151694   2.458   1.039  12.814 -0.6975 -1.6972  1.6196
10093TIP3    H251695   2.545   1.023  12.691 -1.9540  2.2501  0.0520
10094TIP3   OH251696   0.406   1.206  13.536  0.5095 -0.2648  0.1860
10094TIP3    H151697   0.332   1.213  13.596  0.2421 -0.5065 -0.1097
10094TIP3    H251698   0.474   1.163  13.587  0.0005 -1.2428  0.0716
10095TIP3   OH251699   0.894   3.313   0.539 -0.5701  0.0380 -0.4729
10095TIP3    H151700   0.844   3.369   0.598 -1.8286 -0.1348 -1.3366
10095TIP3    H251701   0.868   3.340   0.451  1.6188  0.6121 -1.0133
10096TIP3   OH251702   0.032   3.972   2.055  0.0356 -0.2376 -0.0074
10096TIP3    H151703   0.106   4.021   2.089 -0.8507 -0.4261  2.3915
10096TIP3    H251704   0.014   4.011   1.969  0.3205  2.5990  1.1154
10097TIP3   OH251705   5.351   6.263   5.378  1.0500 -0.1859  0.6039
10097TIP3    H151706   5.353   6.358   5.393 -1.3739 -0.4923  3.9703
10097TIP3    H251707   5.411   6.227   5.443  0.3203 -1.0333  0.8284
10098TIP3   OH251708   2.513   4.895   5.115 -0.0551  0.0156 -0.2802
10098TIP3    H151709   2.590   4.845   5.090 -0.2217 -1.5923  2.0885
10098TIP3    H251710   2.479   4.931   5.033  1.6676 -1.4454 -1.7045
10099TIP3   OH251711   0.037   4.855   0.972 -0.0121  0.1956 -0.5557
10099TIP3    H151712  -0.044   4.904   0.985 -0.5040 -0.3831 -1.3021
10099TIP3    H251713   0.051   4.857   0.877  0.5633 -0.1534 -0.4845
10100TIP3   OH251714   4.224   4.195   2.162 -0.1769  0.2023  0.4128
10100TIP3    H151715   4.308   4.233   2.136 -0.6664  0.1380 -1.4162
10100TIP3    H251716   4.228   4.192   2.258  0.8884  2.4961  0.5106
10101TIP3   OH251717   0.708   6.190  14.351 -0.5447  0.5081  0.4867
10101TIP3    H151718   0.752   6.259  14.401  1.6555  1.4004 -2.3814
10101TIP3    H251719   0.645   6.236  14.296 -1.7890 -0.2589  1.2308
10102TIP3   OH251720   2.929   4.521  13.975  0.0120 -0.2343  0.1043
10102TIP3    H151721   2.975   4.603  13.994  2.9217 -1.4352 -1.1492
10102TIP3    H251722   2.963   4.459  14.040 -1.1363 -0.7919  0.1870
10103TIP3   OH251723   4.679   4.388   4.431 -0.5820  0.3661 -0.0627
10103TIP3    H151724   4.621   4.365   4.504 -1.3318  0.5302 -0.5850
10103TIP3    H251725   4.620   4.396   4.356  0.2586 -0.4495 -0.8309
10104TIP3   OH251726   4.059   2.044   2.682  0.0303  0.3167 -0.7093
10104TIP3    H151727   4.152   2.058   2.702  0.2226 -0.1260 -1.2290
10104TIP3    H251728   4.025   2.131   2.661  0.2824  0.5072 -0.3277
10105TIP3   OH251729   6.018   3.123  14.815  0.4070 -0.6741 -0.0096
10105TIP3    H151730   6.004   3.111  14.909  1.5245  0.7487  0.3789
10105TIP3    H251731   6.027   3.034  14.781  2.8201 -1.2238  1.7393
10106TIP3   OH251732   4.390   0.605   0.601 -0.4724  0.1224 -0.1038
10106TIP3    H151733   4.300   0.599   0.569  0.4947 -1.6224 -2.8215
10106TIP3    H251734   4.430   0.522   0.577  1.9632  0.9410  0.8156
10107TIP3   OH251735   6.767   4.480  15.979 -0.0064  0.3516 -0.4467
10107TIP3    H151736   6.767   4.572  15.955 -0.7526  0.3727 -0.3778
10107TIP3    H251737   6.801   4.434  15.902 -1.5171  0.5009 -1.2423
10108TIP3   OH251738   4.864   5.548  12.219 -0.3035  0.8719 -0.7627
10108TIP3    H151739   4.806   5.611  12.177  0.7964  1.6140 -1.2392
10108TIP3    H251740   4.889   5.487  12.150 -0.4901  0.5740 -0.5703
10109TIP3   OH251741   5.602   0.886   4.972  0.2038  0.6154  0.6996
10109TIP3    H151742   5.605   0.913   4.880 -0.3994  0.9479  0.7691
10109TIP3    H251743   5.565   0.962   5.017 -1.7107 -0.3455  0.8763
10110TIP3   OH251744   4.217   2.952  15.746  0.2644  0.0160  0.0816
10110TIP3    H151745   4.164   2.881  15.709 -1.0703  1.3109 -0.5771
10110TIP3    H251746   4.295   2.908  15.779 -1.0681 -1.9427  0.8354
10111TIP3   OH251747   4.053   5.715  15.854  0.6155 -0.3697  0.3982
10111TIP3    H151748   3.971   5.678  15.886 -0.1804 -0.5978 -1.7228
10111TIP3    H251749   4.044   5.809  15.868  0.6407 -0.5153  1.4979
10112TIP3   OH251750   0.002   3.478   1.886  0.1673  0.3326 -0.7857
10112TIP3    H151751  -0.060   3.549   1.871 -1.0365  0.0174  2.0170
10112TIP3    H251752  -0.022   3.411   1.821 -2.4269  0.2917  0.0622
10113TIP3   OH251753   4.143   1.983   5.815  0.6691 -0.8906  0.1404
10113TIP3    H151754   4.095   1.922   5.759 -0.9233  0.6918 -0.2897
10113TIP3    H251755   4.101   1.974   5.901  0.7869 -0.7705  0.2102
10114TIP3   OH251756   4.670   4.207   5.557 -0.7271  0.0564  0.0584
10114TIP3    H151757   4.700   4.275   5.617  1.5876 -1.0523  0.2687
10114TIP3    H251758   4.630   4.255   5.485 -0.7742  1.5523  1.0230
10115TIP3   OH251759   0.845   0.026  12.895  0.2421  0.0239 -0.0032
10115TIP3    H151760   0.869  -0.066  12.879 -1.3118 -0.4019 -0.0674
10115TIP3    H251761   0.749   0.025  12.898  0.2178  1.6024  0.3295
10116TIP3   OH251762   4.306   1.238   3.932  0.1987  0.0099  0.1735
10116TIP3    H151763   4.271   1.325   3.952  2.5407  0.8417  1.0759
10116TIP3    H251764   4.229   1.184   3.913 -1.4505  1.8483  1.2687
10117TIP3   OH251765   6.246   1.434  16.865  0.0386 -0.2691  0.1475
10117TIP3    H151766   6.302   1.373  16.817 -1.7188 -1.1252 -0.9139
10117TIP3    H251767   6.233   1.507  16.804 -0.0083 -0.0995  0.3626
10118TIP3   OH251768   5.738   0.840  14.322  0.3305 -0.1853  0.1374
10118TIP3    H151769   5.748   0.781  14.246  0.2882 -0.3332  0.2465
10118TIP3    H251770   5.797   0.804  14.388 -0.4249 -0.6826  0.5567
10119TIP3   OH251771   1.322   1.803   1.568 -0.4714  0.0699  0.4381
10119TIP3    H151772   1.249   1.863   1.550  0.4778  1.1383  0.0145
10119TIP3    H251773   1.291   1.718   1.538 -1.9518  0.2756  1.2785
10120TIP3   OH251774   5.029   3.163   1.510  0.8848  0.2628 -0.2028
10120TIP3    H151775   5.056   3.177   1.601  0.4369 -0.7528  0.1012
10120TIP3    H251776   5.031   3.068   1.499  1.6388  0.4066 -1.4880
10121TIP3   OH251777   0.883   3.397  15.763  0.4334  0.0857 -0.4110
10121TIP3    H151778   0.940   3.426  15.692 -1.8828  1.9651 -1.6837
10121TIP3    H251779   0.904   3.305  15.774  2.5311  0.3022 -1.8963
10122TIP3   OH251780   3.903   1.335   3.787  0.3144  0.4064  0.2339
10122TIP3    H151781   3.932   1.345   3.878  1.7115  0.9448 -0.2406
10122TIP3    H251782   3.960   1.268   3.751 -0.8426 -0.4706 -0.0153
10123TIP3   OH251783   3.670   4.728   3.014 -0.3455 -0.6118 -0.0544
10123TIP3    H151784   3.645   4.701   3.103  0.4396 -0.5621  0.1882
10123TIP3    H251785   3.664   4.648   2.962 -0.4944 -0.7111  0.1123
10124TIP3   OH251786   4.762   0.612   4.049 -0.2143 -0.8324  0.3049
10124TIP3    H151787   4.759   0.535   3.993 -0.3920 -1.5251  1.2400
10124TIP3    H251788   4.749   0.578   4.138  0.8202  0.1440  0.8585
10125TIP3   OH251789   1.027   3.210   5.602  0.6337  0.1425  0.0194
10125TIP3    H151790   0.937   3.202   5.635  0.5420 -0.0736 -0.2748
10125TIP3    H251791   1.064   3.283   5.650  0.4289 -0.0257  0.4373
10126TIP3   OH251792   1.021   6.543   6.180  0.7737  0.1803 -0.4557
10126TIP3    H151793   0.976   6.582   6.254  0.1648  1.6090 -1.5441
10126TIP3    H251794   1.023   6.449   6.200  0.5269  0.5102  1.2878
10127TIP3   OH251795   2.865   2.993  11.851 -0.3202 -0.9102 -1.0320
10127TIP3    H151796   2.791   2.941  11.883 -0.0875  0.3324  1.8658
10127TIP3    H251797   2.825   3.063  11.799 -1.6357  1.1867  2.4437
10128TIP3   OH251798   2.645   3.231   0.034 -0.5760 -0.0072  0.1100
10128TIP3    H151799   2.657   3.178  -0.045 -2.4034  0.1584 -0.3226
10128TIP3    H251800   2.690   3.313   0.016  1.3665 -0.9663  0.3648
10129TIP3   OH251801   2.195   6.454  12.731 -0.6078 -0.3148 -0.5867
10129TIP3    H151802   2.289   6.474  12.729 -0.7056  1.8389  3.7382
10129TIP3    H251803   2.154   6.529  12.687 -0.3655 -1.1176 -2.2258
10130TIP3   OH251804   6.207   4.707  16.808 -0.2447  0.6046 -0.0204
10130TIP3    H151805   6.284   4.729  16.756 -0.1142 -0.0629 -0.1100
10130TIP3    H251806   6.212   4.766  16.883  0.8562 -0.0443  0.4423
10131TIP3   OH251807   5.652   6.547   1.003 -0.3747  0.6757  0.8246
10131TIP3    H151808   5.650   6.630   0.955 -2.0073  1.9045  2.8256
10131TIP3    H251809   5.739   6.546   1.044  0.2035  0.6681 -0.3714
10132TIP3   OH251810   6.800   4.927   0.658  0.3357 -0.3424  0.6485
10132TIP3    H151811   6.739   4.879   0.602  0.0652  2.0442 -1.2545
10132TIP3    H251812   6.769   5.017   0.656  2.2709  0.4180  1.9984
10133TIP3   OH251813   0.746   2.956  13.516  0.4177  0.2968 -0.6060
10133TIP3    H151814   0.758   2.863  13.536 -1.8020 -0.1147 -0.8993
10133TIP3    H251815   0.744   2.999  13.601  0.8122 -0.0223 -0.4352
10134TIP3   OH251816   1.993   3.844   2.458  0.1624  0.1213 -0.0810
10134TIP3    H151817   1.986   3.829   2.552  0.6067  1.3224  0.1632
10134TIP3    H251818   1.938   3.921   2.442 -0.6011 -0.5897 -0.9519
10135TIP3   OH251819   3.869   4.331  15.406  0.5043  0.1765 -0.6905
10135TIP3    H151820   3.894   4.242  15.431 -2.4355 -1.5600 -3.1725
10135TIP3    H251821   3.789   4.349  15.456  1.3065  1.6661  0.1212
10136TIP3   OH251822   5.868   6.610   6.219 -0.6167  0.2827  0.3355
10136TIP3    H151823   5.832   6.689   6.180 -1.9064 -0.1442  0.6390
10136TIP3    H251824   5.828   6.605   6.306  0.2700 -0.1400  0.7359
10137TIP3   OH251825   0.491   5.707   1.370  0.5488  0.0388 -0.1685
10137TIP3    H151826   0.423   5.740   1.312 -1.4955 -0.6351  1.7257
10137TIP3    H251827   0.532   5.786   1.406  1.1148  0.4479 -1.6284
10138TIP3   OH251828   1.790   0.959  13.743  0.0576 -0.0477  0.6272
10138TIP3    H151829   1.806   0.867  13.763  2.0927 -0.3184 -1.7812
10138TIP3    H251830   1.877   0.999  13.742 -0.6611  1.5887  0.1973
10139TIP3   OH251831   6.231   1.419  13.122  0.2865  0.1065 -0.8748
10139TIP3    H151832   6.270   1.341  13.082 -0.7918 -1.0766  0.2674
10139TIP3    H251833   6.139   1.415  13.097  0.3116  1.3056 -1.2026
10140TIP3   OH251834   5.189   2.933  13.749 -0.6716 -0.2336  0.1086
10140TIP3    H151835   5.243   2.875  13.695 -0.9058  0.2151 -0.6195
10140TIP3    H251836   5.225   2.924  13.838  0.2492 -0.3592 -0.2660
10141TIP3   OH251837   4.953   4.333  15.862 -0.1605  0.4400  0.1249
10141TIP3    H151838   5.029   4.350  15.807  1.2689 -1.8055  1.2581
10141TIP3    H251839   4.899   4.274  15.811  0.4599 -0.4994  0.5308
10142TIP3   OH251840   2.589   0.415  12.083  0.2691  0.4702 -0.1976
10142TIP3    H151841   2.581   0.490  12.142 -0.1581 -1.0208  1.7735
10142TIP3    H251842   2.565   0.449  11.997  0.7406  2.7230  0.4817
10143TIP3   OH251843   3.158   4.799   5.796 -0.0136 -0.3159 -0.4339
10143TIP3    H151844   3.202   4.808   5.712 -0.9461  1.0478 -0.8005
10143TIP3    H251845   3.125   4.886   5.816 -0.9342 -0.8974  0.7280
10144TIP3   OH251846   3.695   0.605  15.755 -0.2496  0.4841 -0.1492
10144TIP3    H151847   3.766   0.547  15.725 -0.2859  0.6920 -0.6478
10144TIP3    H251848   3.637   0.548  15.805 -1.6105 -0.5145 -2.6966
10145TIP3   OH251849   0.275   1.137  16.520  0.3256 -0.2883 -0.2198
10145TIP3    H151850   0.224   1.067  16.560 -1.5539  0.4140 -1.2519
10145TIP3    H251851   0.286   1.201  16.589  0.1042 -0.6114  0.1205
10146TIP3   OH251852   1.108   0.816   2.629 -0.0778  0.2459 -0.3561
10146TIP3    H151853   1.146   0.897   2.593 -1.1296  1.6040  1.4432
10146TIP3    H251854   1.184   0.768   2.663  0.4199  1.3198  0.1250
10147TIP3   OH251855   1.113   5.970  16.756 -0.2324  0.3907  0.0757
10147TIP3    H151856   1.043   5.964  16.691  0.9344 -1.9830 -1.1252
10147TIP3    H251857   1.146   6.059  16.748 -2.4668  1.2913  0.0532
10148TIP3   OH251858   3.223   4.297  13.124 -0.1664 -0.7906 -0.3388
10148TIP3    H151859   3.292   4.357  13.155 -0.2208 -0.3672 -1.0240
10148TIP3    H251860   3.268   4.213  13.112 -0.0960 -0.9093  0.6533
10149TIP3   OH251861   2.957   1.252   3.707 -0.0675  0.3775  0.5433
10149TIP3    H151862   2.925   1.301   3.631 -1.4616  1.7390  1.9331
10149TIP3    H251863   3.018   1.312   3.750  2.1725 -1.0878 -0.4442
10150TIP3   OH251864   1.175   2.954  16.615 -0.2842 -0.4955  0.7530
10150TIP3    H151865   1.149   3.046  16.606  1.0659 -0.1728 -0.5220
10150TIP3    H251866   1.238   2.941  16.543 -0.9910 -2.6249  0.4600
10151TIP3   OH251867   0.774   2.821  13.074  0.0154  0.4645 -0.4408
10151TIP3    H151868   0.774   2.766  12.996 -0.4980  0.0093 -0.1262
10151TIP3    H251869   0.682   2.830  13.097  0.2287 -1.0021  1.2182
10152TIP3   OH251870   4.510   1.678  13.188  0.0911  0.2040 -0.1883
10152TIP3    H151871   4.566   1.756  13.196  0.9966 -0.2619 -1.6131
10152TIP3    H251872   4.486   1.657  13.279  3.0902 -0.1520  0.6560
10153TIP3   OH251873   0.733   2.316   4.528  0.0334 -0.2425  0.6195
10153TIP3    H151874   0.750   2.270   4.445 -1.3461  0.8541 -0.3322
10153TIP3    H251875   0.683   2.394   4.502 -0.2907  0.2215  2.4815
10154TIP3   OH251876   6.736   5.623   6.237  0.5562  0.7087  0.2330
10154TIP3    H151877   6.773   5.648   6.153 -1.2408 -0.4331 -0.9504
10154TIP3    H251878   6.739   5.527   6.238 -0.2375  0.6710  1.0787
10155TIP3   OH251879   5.504   6.629  14.408  0.5894  0.4912  0.1227
10155TIP3    H151880   5.483   6.710  14.362  1.2767  0.6529  0.0772
10155TIP3    H251881   5.499   6.652  14.501  1.0509  0.6635  0.1083
10156TIP3   OH251882   4.909   1.781  11.329 -0.2020 -0.4995 -0.1202
10156TIP3    H151883   4.948   1.716  11.270  0.9260 -0.8914  1.0091
10156TIP3    H251884   4.952   1.863  11.307  0.0653 -0.6039  0.0121
10157TIP3   OH251885   1.354   1.293   2.438  0.7493 -0.1743 -0.4606
10157TIP3    H151886   1.309   1.374   2.414 -0.2510 -0.2309  1.1223
10157TIP3    H251887   1.411   1.318   2.511 -0.3597 -1.0612  0.7643
10158TIP3   OH251888   3.987   0.112  14.453  0.0927 -0.0729  0.1392
10158TIP3    H151889   3.901   0.089  14.487  0.5234  0.9493  2.0791
10158TIP3    H251890   4.020   0.178  14.514  0.8991  2.0616 -2.3970
10159TIP3   OH251891   3.096   0.146  12.565 -0.1882  0.0906 -0.1903
10159TIP3    H151892   3.108   0.133  12.471 -0.4203  1.6856 -0.4650
10159TIP3    H251893   3.002   0.162  12.575  0.0087  1.0654  0.1513
10160TIP3   OH251894   5.012   4.881  15.665  0.0295  0.0590 -0.3441
10160TIP3    H151895   5.005   4.790  15.638 -1.1076 -0.3146  1.0602
10160TIP3    H251896   5.060   4.877  15.748 -0.7912  0.6468  0.1611
10161TIP3   OH251897   4.078   6.347  10.902 -0.0262 -0.1575  0.4031
10161TIP3    H151898   4.109   6.298  10.826 -1.6775  0.5737 -0.8210
10161TIP3    H251899   4.139   6.420  10.910 -0.2979  0.2341 -0.7971
10162TIP3   OH251900   5.179   0.459  14.212  0.6342 -0.0174 -0.4479
10162TIP3    H151901   5.121   0.412  14.152  0.8190 -1.7027  0.6197
10162TIP3    H251902   5.257   0.480  14.160 -0.1280  0.5649 -1.3752
10163TIP3   OH251903   4.600   1.143  10.561 -0.6136  0.0771 -0.1392
10163TIP3    H151904   4.687   1.145  10.601  0.4817 -1.5532 -2.2668
10163TIP3    H251905   4.571   1.234  10.563  1.2365  0.7015  0.3841
10164TIP3   OH251906   4.357   3.153  12.214 -0.5047  0.1181 -0.1374
10164TIP3    H151907   4.426   3.215  12.238 -0.9123  0.5586 -0.0684
10164TIP3    H251908   4.364   3.083  12.278  0.8495 -0.6128 -1.0355
10165TIP3   OH251909   5.114   1.119  16.122 -0.2467 -1.1797 -0.0024
10165TIP3    H151910   5.079   1.052  16.180 -1.6983 -1.0143 -0.6512
10165TIP3    H251911   5.087   1.092  16.034 -0.5360  0.0434 -0.3105
10166TIP3   OH251912   0.477   0.769   1.039 -0.3279  0.6071 -0.2218
10166TIP3    H151913   0.410   0.781   1.107 -2.0184 -1.1508 -1.4555
10166TIP3    H251914   0.509   0.857   1.021 -1.3888  1.3532  1.3218
10167TIP3   OH251915   5.705   2.147   0.340  0.6213  0.0252  0.6125
10167TIP3    H151916   5.698   2.194   0.257  1.1072  0.5197  0.8419
10167TIP3    H251917   5.765   2.074   0.321  0.4609 -0.0622  0.4419
10168TIP3   OH251918   0.907   2.085  10.756 -0.5448 -0.4321 -0.3974
10168TIP3    H151919   0.991   2.057  10.792 -0.4106  0.2077 -0.1933
10168TIP3    H251920   0.916   2.180  10.746 -0.7727 -0.5295 -1.6385
10169TIP3   OH251921   0.428   6.599   3.074  0.3646 -0.2245  0.2741
10169TIP3    H151922   0.463   6.559   3.153 -0.2894  1.5037  1.4896
10169TIP3    H251923   0.463   6.688   3.075  0.1253 -0.0839 -1.2521
10170TIP3   OH251924   5.798   4.826  17.078 -0.3722 -0.4686 -0.5570
10170TIP3    H151925   5.738   4.800  17.148  0.1932 -2.0711 -0.6314
10170TIP3    H251926   5.846   4.901  17.114  0.0194 -1.3651  0.8444
10171TIP3   OH251927   5.272   2.801   4.534 -0.5488  0.0440 -0.2235
10171TIP3    H151928   5.305   2.871   4.590 -0.1292  0.6552 -1.2299
10171TIP3    H251929   5.214   2.844   4.471 -0.6505 -0.5776 -0.5697
10172TIP3   OH251930   0.716   4.233   1.410 -0.5489  0.6641  0.2533
10172TIP3    H151931   0.684   4.143   1.412  1.0470  0.0826  0.7195
10172TIP3    H251932   0.804   4.228   1.445  0.1707  2.1638 -1.1960
10173TIP3   OH251933   1.409   3.589  10.709 -0.0351 -0.3445 -0.2607
10173TIP3    H151934   1.420   3.597  10.614  0.2555  0.1044 -0.1942
10173TIP3    H251935   1.407   3.495  10.725  1.3905 -0.4478 -0.5552
10174TIP3   OH251936   0.203   2.646  15.551  0.3465 -0.1022  0.3253
10174TIP3    H151937   0.253   2.670  15.473  1.5718  0.3550  1.2195
10174TIP3    H251938   0.172   2.730  15.586 -1.0446 -0.3807 -0.1983
10175TIP3   OH251939   1.333   3.423   2.404  0.0930 -0.8741 -0.5932
10175TIP3    H151940   1.419   3.464   2.409 -0.4183  0.1845 -0.1999
10175TIP3    H251941   1.276   3.491   2.367 -0.6738 -1.3984 -0.3977
10176TIP3   OH251942   2.884   6.203  15.224  0.0323  0.4638  0.7587
10176TIP3    H151943   2.928   6.182  15.307  1.5845 -0.3258 -0.2127
10176TIP3    H251944   2.904   6.129  15.167 -0.1945  1.4362 -0.6374
10177TIP3   OH251945   0.956   4.722  12.982 -0.3352 -0.2281 -0.5127
10177TIP3    H151946   1.052   4.718  12.987 -0.2839 -1.2696 -1.6775
10177TIP3    H251947   0.926   4.655  13.043 -0.3134 -0.1201 -0.3830
10178TIP3   OH251948   6.463   2.411   2.277  0.0763  0.3162  0.3338
10178TIP3    H151949   6.411   2.445   2.204  0.8117 -0.2760 -0.5017
10178TIP3    H251950   6.409   2.424   2.354 -2.1045 -1.8609 -0.6968
10179TIP3   OH251951   0.755   6.683   4.225 -0.4816 -0.4885 -0.1273
10179TIP3    H151952   0.689   6.704   4.158  0.5648  2.0194 -0.4769
10179TIP3    H251953   0.729   6.733   4.302  0.2656 -0.5498  0.1776
10180TIP3   OH251954   1.720   4.770  11.938 -0.0734  0.3152  0.3253
10180TIP3    H151955   1.741   4.710  11.867 -0.5202 -1.6411  1.7615
10180TIP3    H251956   1.718   4.857  11.896  1.3361 -0.5320 -1.6714
10181TIP3   OH251957   1.017   3.326   4.624 -0.0848 -0.4816 -0.4373
10181TIP3    H151958   0.928   3.313   4.655 -0.2227  3.2598  1.3111
10181TIP3    H251959   1.014   3.408   4.575  2.2892 -0.5139 -0.7586
10182TIP3   OH251960   4.917   0.928  14.193 -0.4838  0.0282 -0.2564
10182TIP3    H151961   4.824   0.946  14.181 -0.3580  1.6008  0.7280
10182TIP3    H251962   4.950   0.909  14.106 -2.0195 -2.2831 -0.4175
10183TIP3   OH251963   2.628   0.066   3.061  0.2850 -0.0402 -0.5040
10183TIP3    H151964   2.667   0.009   3.128  0.6396  0.0881 -0.6009
10183TIP3    H251965   2.689   0.061   2.987 -0.8919 -1.4310 -1.4232
10184TIP3   OH251966   0.989   2.833  11.741 -0.1598 -0.0024  0.1623
10184TIP3    H151967   1.080   2.856  11.758  0.3990 -0.6457 -1.6475
10184TIP3    H251968   0.942   2.858  11.820  1.7576 -0.6721  1.5695
10185TIP3   OH251969   5.837   2.326  14.322  0.1826  0.1633  0.4113
10185TIP3    H151970   5.931   2.314  14.330  0.1260  0.0534  0.9457
10185TIP3    H251971   5.813   2.379  14.398 -0.2965 -0.4071  0.6612
10186TIP3   OH251972   4.544   6.171   4.165 -0.0433  0.1329 -0.0948
10186TIP3    H151973   4.635   6.184   4.137  1.0432  1.9999  3.6263
10186TIP3    H251974   4.497   6.247   4.132  0.9736  1.7467  1.8955
10187TIP3   OH251975   4.810   4.085   2.521  0.1305 -0.2208 -0.4385
10187TIP3    H151976   4.877   4.134   2.567 -0.5576  0.6930 -0.3775
10187TIP3    H251977   4.748   4.059   2.589  1.4932 -2.9844 -0.1241
10188TIP3   OH251978   1.219   1.086  15.960  0.4802  0.4846 -0.5645
10188TIP3    H151979   1.266   1.047  15.886 -0.6116  0.6465 -1.3564
10188TIP3    H251980   1.153   1.020  15.983  2.3370 -0.6832  1.8940
10189TIP3   OH251981   2.653   6.112   4.008 -0.5146  0.3702  0.4060
10189TIP3    H151982   2.631   6.146   4.094 -0.1038  0.4263  0.4927
10189TIP3    H251983   2.747   6.130   3.998 -0.1166 -1.3332  0.7531
10190TIP3   OH251984   5.909   2.209  13.566  0.2416 -0.5828  0.2678
10190TIP3    H151985   5.827   2.178  13.605  0.5153 -1.5511  0.0856
10190TIP3    H251986   5.886   2.293  13.526 -0.4132 -0.3361  1.1288
10191TIP3   OH251987   4.294   0.320  16.310  0.2049  0.4817 -0.0201
10191TIP3    H151988   4.202   0.295  16.302 -0.0887  1.8334 -1.4032
10191TIP3    H251989   4.327   0.269  16.384 -0.8862 -2.1786 -1.2360
10192TIP3   OH251990   4.499   2.949   1.580  0.5178 -0.2337 -0.4650
10192TIP3    H151991   4.581   2.968   1.534  0.5688  0.2992 -0.1619
10192TIP3    H251992   4.498   3.010   1.654 -0.3300  0.0181 -0.6709
10193TIP3   OH251993   0.521   5.060  12.435  0.0651  0.0950 -0.0033
10193TIP3    H151994   0.555   5.145  12.463  0.5113 -0.0530 -0.0804
10193TIP3    H251995   0.583   4.996  12.471  0.6759 -0.1026 -1.3318
10194TIP3   OH251996   4.765   3.206  15.698  0.0411  0.6114 -0.0278
10194TIP3    H151997   4.741   3.285  15.650 -0.2522 -0.3737 -1.5845
10194TIP3    H251998   4.842   3.173  15.652 -0.7247 -0.7905 -0.3679
10195TIP3   OH251999   6.097   3.443  14.236  0.0132 -0.4784  0.2309
10195TIP3    H152000   6.099   3.354  14.270  3.2327 -0.5064  0.2854
10195TIP3    H252001   6.166   3.446  14.170 -1.7193  1.3463 -1.6683
10196TIP3   OH252002   3.656   4.527   2.823  0.3633  0.4152 -0.0239
10196TIP3    H152003   3.695   4.463   2.764  0.0091 -0.0702  0.2620
10196TIP3    H252004   3.606   4.585   2.766  0.6502  0.4117 -0.2812
10197TIP3   OH252005   4.287   0.379  15.110 -0.0208 -0.7537 -0.0534
10197TIP3    H152006   4.334   0.399  15.030  1.3296  1.3345  1.1617
10197TIP3    H252007   4.211   0.438  15.109  0.7206  0.2358  0.7909
10198TIP3   OH252008   6.693   1.771  15.300 -1.0508 -1.0596  0.1804
10198TIP3    H152009   6.751   1.847  15.292  0.0332 -1.8665  0.0393
10198TIP3    H252010   6.705   1.742  15.391 -0.1206 -2.0693 -0.2458
10199TIP3   OH252011   6.566   5.896  13.873  0.5714  0.2598  0.2464
10199TIP3    H152012   6.535   5.842  13.946  1.5980 -0.1656  0.3834
10199TIP3    H252013   6.579   5.983  13.911 -1.3628  0.7225 -0.0388
10200TIP3   OH252014   0.922   3.994   5.346 -0.5534  0.0429 -0.3889
10200TIP3    H152015   0.977   3.921   5.376 -1.4302 -0.9389 -1.0694
10200TIP3    H252016   0.943   4.003   5.254  1.5586  2.5289  0.2505
10201TIP3   OH252017   3.932   4.222  14.729  0.2056  0.1061  0.2667
10201TIP3    H152018   3.976   4.253  14.808  0.7297 -0.4393  0.1987
10201TIP3    H252019   3.855   4.278  14.721 -0.5839 -0.6520  1.8986
10202TIP3   OH252020   0.798   1.836   4.217  0.3626 -0.4704  0.2588
10202TIP3    H152021   0.866   1.794   4.165  0.2689 -0.1268 -0.1452
10202TIP3    H252022   0.792   1.783   4.296 -0.0599 -1.4708 -0.4296
10203TIP3   OH252023   2.269   6.297   0.505 -0.2189 -0.0880  0.8403
10203TIP3    H152024   2.324   6.375   0.516  0.4656 -0.4273 -0.0691
10203TIP3    H252025   2.200   6.325   0.444  0.8093 -0.5482 -0.5836
10204TIP3   OH252026   5.842   3.436  10.734 -0.4072 -0.5078  0.0365
10204TIP3    H152027   5.825   3.443  10.640  0.1554  0.5033 -0.0012
10204TIP3    H252028   5.823   3.345  10.755 -0.9037 -0.6499 -0.9854
10205TIP3   OH252029   1.762   5.652   5.349 -0.0653 -0.0127 -0.3687
10205TIP3    H152030   1.778   5.743   5.375 -1.7135  0.5091 -1.0479
10205TIP3    H252031   1.781   5.601   5.428 -0.2774  1.0525  0.3918
10206TIP3   OH252032   1.507   4.020   3.495 -0.3415 -0.3471  0.5550
10206TIP3    H152033   1.560   3.942   3.514  1.1796  0.1192 -1.3938
10206TIP3    H252034   1.569   4.093   3.501 -1.3260  0.5023  0.5556
10207TIP3   OH252035   1.258   2.602   3.501  0.4197  0.4647 -0.1945
10207TIP3    H152036   1.345   2.610   3.540 -1.1294  0.4047  3.6948
10207TIP3    H252037   1.246   2.508   3.489  0.2271  0.3207  1.0393
10208TIP3   OH252038   1.386   5.407  14.874 -0.4550  0.3647  0.0023
10208TIP3    H152039   1.472   5.370  14.894 -1.1239 -2.2155 -1.3762
10208TIP3    H252040   1.405   5.495  14.843  1.5873  0.2445  0.7241
10209TIP3   OH252041   2.146   2.118  14.072  0.1253 -0.0650 -0.0257
10209TIP3    H152042   2.080   2.087  14.134 -0.7162 -2.1393 -1.8381
10209TIP3    H252043   2.229   2.088  14.108 -0.3211 -0.9418  0.2845
10210TIP3   OH252044   0.785   4.325  15.042  0.0575  0.0043  0.0342
10210TIP3    H152045   0.721   4.259  15.015 -2.7206  1.7542  1.8457
10210TIP3    H252046   0.734   4.405  15.051  2.0780  1.1066  3.4435
10211TIP3   OH252047   5.678   0.735   0.173 -0.6576 -0.5683  0.1663
10211TIP3    H152048   5.663   0.641   0.163 -1.4929 -0.4382  0.1122
10211TIP3    H252049   5.645   0.756   0.261  0.9332 -0.5906  0.7909
10212TIP3   OH252050   0.273   1.434  11.530  0.6837 -0.2692 -0.2776
10212TIP3    H152051   0.347   1.469  11.579 -1.1525  0.3298  2.2623
10212TIP3    H252052   0.244   1.358  11.581 -1.2967  0.3587 -0.3896
10213TIP3   OH252053   3.638   5.641  14.633  0.1506 -0.7453 -0.7005
10213TIP3    H152054   3.655   5.686  14.550 -0.0463 -2.2390 -1.5835
10213TIP3    H252055   3.544   5.621  14.630  0.1604 -0.8659 -0.1517
10214TIP3   OH252056   3.308   6.143   1.579  0.4339  0.4669 -0.1392
10214TIP3    H152057   3.281   6.202   1.509  0.3311 -0.5280 -0.9665
10214TIP3    H252058   3.227   6.099   1.605  0.6957 -0.1613 -0.3613
10215TIP3   OH252059   3.884   0.573   1.431 -0.0821  0.1474 -0.3974
10215TIP3    H152060   3.978   0.588   1.437 -0.3031  1.6843 -0.2678
10215TIP3    H252061   3.864   0.581   1.337  0.0117 -0.9259 -0.5195
10216TIP3   OH252062   0.825   0.356   3.179 -0.2132  0.1237 -0.1378
10216TIP3    H152063   0.783   0.273   3.157  0.5068  0.1428 -1.7716
10216TIP3    H252064   0.817   0.408   3.098  2.8871  0.1348 -0.5501
10217TIP3   OH252065   5.831   0.218   1.535  0.6386  0.0987  0.0028
10217TIP3    H152066   5.745   0.175   1.532  1.4201 -1.4767 -0.6101
10217TIP3    H252067   5.829   0.268   1.617 -1.0623  0.5860 -0.2827
10218TIP3   OH252068   2.856   0.037  12.196  0.1029  0.0009  0.1383
10218TIP3    H152069   2.838  -0.032  12.133  1.8345 -0.2133 -0.1818
10218TIP3    H252070   2.863  -0.007  12.280  0.0459 -0.0472  0.1178
10219TIP3   OH252071   1.488   0.412  11.293  0.4379 -0.5213 -0.7690
10219TIP3    H152072   1.537   0.470  11.352 -1.1208  2.9418 -2.6277
10219TIP3    H252073   1.534   0.418  11.209 -0.2140 -1.4245 -1.2117
10220TIP3   OH252074   3.513   3.847  15.611  0.5781  0.6062  0.3176
10220TIP3    H152075   3.448   3.800  15.663 -0.1978  0.3080 -0.8662
10220TIP3    H252076   3.598   3.815  15.642  0.1453  0.4227  1.3521
10221TIP3   OH252077   2.886   3.922  15.096  0.1261 -0.0214  0.1839
10221TIP3    H152078   2.977   3.910  15.068 -0.7938 -1.9194 -2.4000
10221TIP3    H252079   2.837   3.856  15.047 -2.5732  0.4182  2.0798
10222TIP3   OH252080   2.825   0.639   5.693  0.4262  0.1043 -0.0886
10222TIP3    H152081   2.747   0.665   5.741 -0.9954  0.0859 -2.2474
10222TIP3    H252082   2.858   0.562   5.739  0.9337  1.7839  2.5648
10223TIP3   OH252083   4.953   4.368   0.410  0.5710 -0.3013 -0.1334
10223TIP3    H152084   5.040   4.341   0.380  0.5658 -1.9205  1.1441
10223TIP3    H252085   4.899   4.290   0.398 -1.0518  0.9971 -1.9552
10224TIP3   OH252086   4.392   3.292   0.915 -0.2011 -0.1156 -0.9011
10224TIP3    H152087   4.305   3.330   0.900 -1.1369 -2.2886 -1.3205
10224TIP3    H252088   4.378   3.225   0.981  1.4247  0.3251 -0.0663
10225TIP3   OH252089   6.175   3.827  15.758 -0.2845  0.1978 -0.0435
10225TIP3    H152090   6.105   3.801  15.698  0.6610 -0.8684 -0.7318
10225TIP3    H252091   6.253   3.784  15.723  0.2078 -0.9122  2.2536
10226TIP3   OH252092   4.199   1.550   1.665 -0.3318  0.2056  0.7240
10226TIP3    H152093   4.277   1.593   1.632  1.7286 -1.2333  3.2602
10226TIP3    H252094   4.191   1.470   1.612  0.1580  0.1742  0.6931
10227TIP3   OH252095   1.067   3.161  14.612 -0.5335  0.4844  0.3247
10227TIP3    H152096   1.053   3.241  14.562 -1.9058 -0.1106 -0.2758
10227TIP3    H252097   1.107   3.100  14.550 -1.1356  0.1282  0.2852
10228TIP3   OH252098   4.022   4.549  15.392  0.8490 -0.2353  0.8860
10228TIP3    H152099   4.066   4.529  15.310  0.4666  0.0479  0.6097
10228TIP3    H252100   3.961   4.476  15.405 -0.8760  0.9240 -0.3553
10229TIP3   OH252101   1.089   5.539  12.681 -0.0579  0.3371 -0.0024
10229TIP3    H152102   1.115   5.492  12.760 -1.2074 -0.4575 -0.0783
10229TIP3    H252103   1.158   5.605  12.669  0.0794  0.5624  1.7241
10230TIP3   OH252104   5.360   0.743  14.137  0.1907 -0.1292  0.3183
10230TIP3    H152105   5.337   0.693  14.059  2.3585 -0.0922 -0.4008
10230TIP3    H252106   5.417   0.813  14.105 -0.6305  1.2313  1.6614
10231TIP3   OH252107   2.767   6.128   2.551 -0.2153 -0.2606 -0.0887
10231TIP3    H152108   2.723   6.060   2.603  0.6607 -1.4163 -0.8087
10231TIP3    H252109   2.748   6.105   2.460  1.2414 -0.3750 -0.3890
10232TIP3   OH252110   3.897   0.463  14.223 -0.5136  0.4781 -0.3749
10232TIP3    H152111   3.839   0.535  14.197 -0.2789  0.7543 -0.1358
10232TIP3    H252112   3.839   0.402  14.269 -0.4348  1.2541  0.8019
10233TIP3   OH252113   2.177   6.350   4.499 -0.0593 -0.1131 -0.4670
10233TIP3    H152114   2.270   6.355   4.521 -0.4972  0.0671  1.5349
10233TIP3    H252115   2.145   6.273   4.545 -1.0657  0.3065 -0.4333
10234TIP3   OH252116   3.681   2.267  17.185 -0.6523 -0.7374  0.1693
10234TIP3    H152117   3.670   2.313  17.102 -0.5460 -0.4250  0.3264
10234TIP3    H252118   3.757   2.211  17.171 -0.8621 -0.9695 -0.0663
10235TIP3   OH252119   2.303   4.375   5.033 -0.1268 -0.6580  0.0697
10235TIP3    H152120   2.377   4.419   4.990  0.9783 -0.3645  2.1483
10235TIP3    H252121   2.230   4.389   4.973  0.6283  2.2922 -0.3482
10236TIP3   OH252122   5.343   0.524  11.949  0.3495 -0.6158  0.5044
10236TIP3    H152123   5.435   0.506  11.970  0.8815  0.4688 -0.7524
10236TIP3    H252124   5.331   0.487  11.862 -0.3134 -0.4667  0.5277
10237TIP3   OH252125   6.592   6.212  12.289 -0.3495  0.7079  0.7917
10237TIP3    H152126   6.529   6.268  12.334 -1.1662  0.9687 -0.6125
10237TIP3    H252127   6.626   6.266  12.217 -0.0084 -0.0899  0.3302
10238TIP3   OH252128   6.710   3.830   3.905  0.5271  0.1254  0.5325
10238TIP3    H152129   6.728   3.903   3.846  0.3089 -1.1696 -1.2174
10238TIP3    H252130   6.617   3.814   3.896  0.7703 -1.1010 -0.0230
10239TIP3   OH252131   1.990   0.098  14.799 -0.3004  0.8451 -0.0646
10239TIP3    H152132   2.049   0.036  14.756 -1.6894 -0.1734 -0.5461
10239TIP3    H252133   1.936   0.133  14.728 -0.9709  0.9910  0.5042
10240TIP3   OH252134   1.927   6.296   3.983  0.1453  0.6008  0.7836
10240TIP3    H152135   1.894   6.327   3.898  0.4685  0.8789  0.7578
10240TIP3    H252136   1.879   6.349   4.047 -0.8235 -0.2929  0.8138
10241TIP3   OH252137   1.014   6.001   5.637  0.1901  0.3110 -0.4765
10241TIP3    H152138   1.030   6.012   5.543 -0.5099  0.1263 -0.6251
10241TIP3    H252139   0.958   5.923   5.642 -1.4075  1.4356 -0.0645
10242TIP3   OH252140   1.826   6.556  12.921  0.4134 -0.0105  0.3270
10242TIP3    H152141   1.822   6.634  12.976  1.2292 -0.0093  0.3978
10242TIP3    H252142   1.897   6.504  12.958  0.8594 -0.0991 -0.6008
10243TIP3   OH252143   6.253   6.581  12.528  0.1734  0.2827 -0.1756
10243TIP3    H152144   6.240   6.642  12.601  0.2783 -0.5170  0.5225
10243TIP3    H252145   6.210   6.624  12.454 -2.5662 -0.1875  1.0131
10244TIP3   OH252146   2.473   0.523  13.033 -0.2851 -0.1581  0.1086
10244TIP3    H152147   2.492   0.600  13.086  1.2489 -1.3681  1.4151
10244TIP3    H252148   2.469   0.451  13.097  2.1819 -1.7667 -1.4073
10245TIP3   OH252149   1.591   5.177   0.420  0.3672 -0.2776  0.4864
10245TIP3    H152150   1.527   5.247   0.433  1.4861  0.6415  1.1784
10245TIP3    H252151   1.591   5.161   0.326  0.9718  1.5077  0.1578
10246TIP3   OH252152   3.375   4.452  11.722 -0.3493 -0.6376  0.2194
10246TIP3    H152153   3.407   4.540  11.702 -2.4656 -0.2675 -2.0376
10246TIP3    H252154   3.430   4.394  11.669  0.1597 -0.5844  0.6719
10247TIP3   OH252155   2.399   6.052   0.580  0.1930 -0.1719 -0.4189
10247TIP3    H152156   2.388   6.129   0.525  0.9290 -0.0871 -0.4494
10247TIP3    H252157   2.418   6.087   0.667 -0.4884 -0.3108 -0.2111
10248TIP3   OH252158   5.641   1.177  11.046  0.2167  0.3757  0.5130
10248TIP3    H152159   5.601   1.175  11.133 -2.3709 -1.1792 -0.6036
10248TIP3    H252160   5.618   1.093  11.006  2.2669  0.5886 -1.3217
10249TIP3   OH252161   1.782   2.001  14.929 -0.3649  0.1795 -0.2327
10249TIP3    H152162   1.695   1.995  14.969  0.6275 -0.9647  1.9149
10249TIP3    H252163   1.812   1.910  14.925  1.4050  0.6911  0.6636
10250TIP3   OH252164   1.476   5.663  11.315 -0.6886 -0.6272  0.2602
10250TIP3    H152165   1.404   5.719  11.344  1.1647  1.6617  0.8322
10250TIP3    H252166   1.441   5.615  11.241 -2.1045  2.3280 -1.1687
10251TIP3   OH252167   0.991   5.410   5.185  0.0528 -0.1414 -0.1420
10251TIP3    H152168   0.960   5.407   5.095  0.0679 -0.9411 -0.1271
10251TIP3    H252169   1.085   5.424   5.178 -0.1384  1.2691 -0.2068
10252TIP3   OH252170   3.008   2.225   0.196 -0.1164 -0.8145 -0.3579
10252TIP3    H152171   3.028   2.312   0.231 -0.2863 -0.7169 -0.5005
10252TIP3    H252172   2.912   2.221   0.196 -0.0945 -1.3884  0.5980
10253TIP3   OH252173   2.601   0.709  12.644 -0.1580  0.2183  0.0952
10253TIP3    H152174   2.507   0.693  12.655  0.0298  0.1398  1.9266
10253TIP3    H252175   2.627   0.756  12.724  2.0761 -3.1707  1.6079
10254TIP3   OH252176   3.410   6.726  11.432 -0.3215  0.9357 -0.1917
10254TIP3    H152177   3.351   6.773  11.373 -1.9206 -0.2637  0.3917
10254TIP3    H252178   3.393   6.764  11.518 -0.3912  0.4597  0.0082
10255TIP3   OH252179   2.764   4.161  15.203  0.2928  0.1469  0.1453
10255TIP3    H152180   2.802   4.075  15.189 -0.4418  0.1839 -2.5704
10255TIP3    H252181   2.839   4.220  15.206  0.7054 -0.3688  0.0785
10256TIP3   OH252182   5.585   0.945  10.900 -0.2129  0.6003 -0.3196
10256TIP3    H152183   5.525   0.879  10.936  1.0831  0.7195  2.2620
10256TIP3    H252184   5.606   0.912  10.813 -0.5514 -1.8025  0.4216
10257TIP3   OH252185   0.548   5.908   1.011 -0.4277 -0.1645 -0.1666
10257TIP3    H152186   0.546   5.940   0.921  1.7273 -0.3824 -0.3333
10257TIP3    H252187   0.460   5.871   1.025 -0.9523  0.2834 -2.0049
10258TIP3   OH252188   0.967   6.096  10.399 -0.6831  0.3053  0.3537
10258TIP3    H152189   0.959   6.168  10.461 -1.4467 -1.0226  1.8615
10258TIP3    H252190   0.877   6.078  10.371 -0.6944 -1.0443  1.1881
10259TIP3   OH252191   2.292   6.654   0.430 -0.2624 -0.5901  0.0656
10259TIP3    H152192   2.276   6.748   0.420 -0.7866 -0.7930 -1.3145
10259TIP3    H252193   2.259   6.633   0.517  2.0093  0.9129  1.3847
10260TIP3   OH252194   6.630   3.750  12.811  0.5565 -0.4686 -0.0643
10260TIP3    H152195   6.716   3.787  12.794  0.6803 -0.3195  0.8292
10260TIP3    H252196   6.647   3.672  12.863  0.1611 -0.4920  0.0390
10261TIP3   OH252197   4.873   6.356  16.210 -0.4817  0.0855  0.1581
10261TIP3    H152198   4.788   6.324  16.241  0.1942  0.2142  2.2961
10261TIP3    H252199   4.859   6.449  16.195 -0.8942 -0.0340 -0.2380
10262TIP3   OH252200   2.508   0.287   1.457  0.4300  0.0112  0.1573
10262TIP3    H152201   2.464   0.371   1.450 -0.6004 -0.5588 -0.3829
10262TIP3    H252202   2.512   0.254   1.367 -0.8503 -1.3401  0.5555
10263TIP3   OH252203   5.455   1.533  16.775 -0.2645  0.3774 -0.9463
10263TIP3    H152204   5.518   1.589  16.820 -0.4326  0.0256 -0.2576
10263TIP3    H252205   5.508   1.484  16.712 -0.2646  2.0383 -2.2985
10264TIP3   OH252206   0.573   1.157  10.689 -0.4324  0.4226 -0.1520
10264TIP3    H152207   0.558   1.240  10.644 -0.0752  0.5717  0.0055
10264TIP3    H252208   0.663   1.161  10.719 -0.6769  0.3308  0.6074
10265TIP3   OH252209   5.126   0.352   5.469 -0.6687  0.2167  0.2576
10265TIP3    H152210   5.114   0.289   5.399 -1.3462 -0.7445  1.2031
10265TIP3    H252211   5.212   0.333   5.505 -0.3153  0.7196 -0.3104
10266TIP3   OH252212   2.581   0.273   1.718 -0.3093 -0.2298 -0.2903
10266TIP3    H152213   2.577   0.261   1.623  1.5344  1.1189 -0.5840
10266TIP3    H252214   2.637   0.203   1.749 -0.0609 -0.0584 -0.3461
10267TIP3   OH252215   3.230   4.266  14.532 -0.5578  0.3525 -0.7273
10267TIP3    H152216   3.155   4.208  14.544  0.7044 -0.9063  1.6005
10267TIP3    H252217   3.269   4.238  14.449 -0.9943 -0.9235 -0.5124
10268TIP3   OH252218   3.224   2.628   6.202  0.2267 -0.1733 -0.6290
10268TIP3    H152219   3.268   2.605   6.120  1.5609 -0.6697  0.2018
10268TIP3    H252220   3.261   2.569   6.267 -2.7907 -1.6993 -0.1143
10269TIP3   OH252221   6.213   6.022  16.703 -0.2736  0.1673  0.0715
10269TIP3    H152222   6.288   5.982  16.660 -0.3315 -0.1843  0.2975
10269TIP3    H252223   6.139   5.966  16.681 -0.7521  1.2657 -1.3156
10270TIP3   OH252224   3.611   2.973  14.944 -0.3631  0.0018 -0.4859
10270TIP3    H152225   3.666   2.986  14.867 -0.8338 -0.2392 -0.8659
10270TIP3    H252226   3.585   2.881  14.940  0.8993 -0.4546  0.8289
10271TIP3   OH252227   5.747   6.281   2.406 -0.3116  0.1759  0.5972
10271TIP3    H152228   5.686   6.256   2.336  0.2030  1.4114 -0.3151
10271TIP3    H252229   5.834   6.274   2.366 -0.0092  0.8402  1.1273
10272TIP3   OH252230   4.791   3.298  13.718 -0.3869  0.2862  0.4558
10272TIP3    H152231   4.808   3.302  13.624  0.3475  0.0050  0.5752
10272TIP3    H252232   4.871   3.261  13.756  0.3418  2.6643  1.4502
10273TIP3   OH252233   0.857   1.450   2.542 -0.8950 -0.2850  0.7195
10273TIP3    H152234   0.881   1.426   2.632  0.6294  0.9279  0.6788
10273TIP3    H252235   0.881   1.374   2.490 -0.3212 -0.4015  1.1426
10274TIP3   OH252236   2.371   1.912   4.706  0.2542 -0.6449 -0.5223
10274TIP3    H152237   2.323   1.832   4.728 -1.3435 -0.8289 -4.0624
10274TIP3    H252238   2.317   1.983   4.740 -0.2695 -0.9603 -0.6939
10275TIP3   OH252239   5.663   0.759  13.349 -0.1175  0.7292  0.4647
10275TIP3    H152240   5.652   0.666  13.330  0.8126  0.9578 -1.4768
10275TIP3    H252241   5.597   0.803  13.295  0.5596  1.2525  0.0351
10276TIP3   OH252242   4.030   6.241  11.177  0.0562  0.1949 -0.3068
10276TIP3    H152243   4.074   6.269  11.097 -0.7777  0.7979 -0.5616
10276TIP3    H252244   3.983   6.162  11.152 -0.1107  0.3184 -0.3816
10277TIP3   OH252245   0.537   0.742  14.105  0.0710 -0.0129 -0.4895
10277TIP3    H152246   0.477   0.814  14.083 -0.2471 -0.5218 -1.3467
10277TIP3    H252247   0.489   0.691  14.171  0.1547  0.3604 -0.1321
10278TIP3   OH252248   1.057   1.555   2.234 -0.0764  0.6387 -0.3932
10278TIP3    H152249   1.072   1.490   2.166 -2.8343 -1.2927  0.6915
10278TIP3    H252250   1.143   1.567   2.275  0.5854 -2.3287 -0.6836
10279TIP3   OH252251   5.180   3.588  12.689  0.3816 -0.4947  0.3454
10279TIP3    H152252   5.090   3.567  12.713 -0.4738 -0.2217 -2.2300
10279TIP3    H252253   5.209   3.513  12.637  1.2140 -0.0700  0.1787
10280TIP3   OH252254   6.167   5.346  15.595  0.4191 -0.2145 -0.2220
10280TIP3    H152255   6.232   5.386  15.653 -0.4731  1.9846 -0.6396
10280TIP3    H252256   6.117   5.287  15.651  0.4927  0.7727  0.9209
10281TIP3   OH252257   0.347   1.875  16.677 -0.4638  0.2171 -0.1888
10281TIP3    H152258   0.259   1.883  16.713 -0.6561  0.0803 -0.6212
10281TIP3    H252259   0.384   1.798  16.719 -0.3237  0.6235  0.4517
10282TIP3   OH252260   6.766   3.340  15.233 -0.4108  0.2102  0.0878
10282TIP3    H152261   6.806   3.298  15.156  1.0743  1.0694  0.3667
10282TIP3    H252262   6.721   3.417  15.197  0.4837  0.7461  0.0820
10283TIP3   OH252263   0.116   4.032   1.600  0.0137 -0.0046  0.3194
10283TIP3    H152264   0.127   3.938   1.612  1.1237  0.2266  1.3872
10283TIP3    H252265   0.056   4.059   1.669 -2.0007 -0.2104 -1.2751
10284TIP3   OH252266   1.055   0.602  13.547  0.0390 -0.4324 -0.5791
10284TIP3    H152267   1.111   0.657  13.602  1.1234 -2.0938  0.0893
10284TIP3    H252268   0.966   0.625  13.572  0.4750  0.4702  0.2246
10285TIP3   OH252269   3.929   4.852   5.958  0.4944 -0.1649  0.0632
10285TIP3    H152270   3.976   4.883   6.036  1.3024 -0.0356 -0.4674
10285TIP3    H252271   3.849   4.904   5.956  0.6730  0.1320  0.5712
10286TIP3   OH252272   1.307   5.431  12.131 -0.0461 -0.7000 -0.1245
10286TIP3    H152273   1.277   5.491  12.062  1.6117 -0.1377 -0.3977
10286TIP3    H252274   1.330   5.487  12.204  0.6221 -1.0769 -0.0370
10287TIP3   OH252275   5.555   4.964   1.805  0.1353 -1.0195 -0.2379
10287TIP3    H152276   5.578   5.047   1.762 -2.1110  0.6236  1.4786
10287TIP3    H252277   5.589   4.897   1.747  2.4003  1.0821 -1.5422
10288TIP3   OH252278   5.883   5.184  12.734 -0.3066  0.4432  0.1662
10288TIP3    H152279   5.946   5.253  12.754 -0.3349  1.2071 -2.0292
10288TIP3    H252280   5.882   5.180  12.638 -1.2400 -1.7661  0.2111
10289TIP3   OH252281   1.769   3.910   4.490  0.0908 -0.6240 -0.1478
10289TIP3    H152282   1.738   4.000   4.479  0.2484 -0.5824 -0.2559
10289TIP3    H252283   1.864   3.918   4.496  0.0474 -0.6739  0.9382
10290TIP3   OH252284   4.444   2.977   3.079  0.0049  0.2674 -0.2170
10290TIP3    H152285   4.524   2.986   3.027 -0.6656  0.1959 -1.2734
10290TIP3    H252286   4.396   2.906   3.039 -1.2721  1.2438 -0.4965
10291TIP3   OH252287   2.122   2.908  12.302 -0.7082  0.3059 -0.5737
10291TIP3    H152288   2.050   2.892  12.363  1.1222 -1.0848  1.3330
10291TIP3    H252289   2.192   2.945  12.355  0.4623  0.4554 -2.1385
10292TIP3   OH252290   2.667   1.314   6.334  0.1601 -0.2496  0.4735
10292TIP3    H152291   2.749   1.295   6.379  0.3748  0.7272  0.5218
10292TIP3    H252292   2.679   1.279   6.246 -0.8148 -3.5335  1.5036
10293TIP3   OH252293   3.327   4.532  10.941  0.8129  0.4003  0.5127
10293TIP3    H152294   3.416   4.496  10.943 -0.0024 -1.7797 -0.1154
10293TIP3    H252295   3.279   4.481  11.006  0.0629  1.8075  1.1193
10294TIP3   OH252296   6.402   6.376  12.409  0.0176  0.1444  0.0791
10294TIP3    H152297   6.363   6.442  12.466 -1.2771 -0.8519  0.3828
10294TIP3    H252298   6.329   6.319  12.384  0.6334  0.2548 -2.1871
10295TIP3   OH252299   2.477   3.874  12.813  0.1280  0.0252 -0.4381
10295TIP3    H152300   2.470   3.779  12.807 -0.4387  0.0463 -0.1385
10295TIP3    H252301   2.389   3.904  12.835  0.2749  0.6296 -0.6374
10296TIP3   OH252302   1.740   3.011  15.014  0.5065 -0.2226  0.5193
10296TIP3    H152303   1.782   3.018  15.100  0.3991  0.2861  0.5324
10296TIP3    H252304   1.659   2.964  15.031  0.3966  0.0383  0.7304
10297TIP3   OH252305   2.950   5.766   1.629  0.2368  0.0412 -0.0017
10297TIP3    H152306   2.929   5.813   1.710 -0.4422 -1.1999  0.5715
10297TIP3    H252307   2.877   5.705   1.618  0.3448  0.1581 -1.5351
10298TIP3   OH252308   5.222   1.855  13.086  0.5626  0.1367 -0.3001
10298TIP3    H152309   5.230   1.950  13.101  0.1288  0.2563 -0.8224
10298TIP3    H252310   5.187   1.848  12.997 -0.9009 -0.4815  0.3107
10299TIP3   OH252311   3.503   2.167   2.397 -0.2220 -0.2035 -0.0095
10299TIP3    H152312   3.409   2.161   2.379 -0.0957  0.6219 -1.0331
10299TIP3    H252313   3.521   2.094   2.456 -1.0918 -1.6917 -1.5134
10300TIP3   OH252314   3.924   0.933   2.023 -0.1346 -0.2228 -0.4584
10300TIP3    H152315   3.853   0.971   1.971 -0.3925 -1.7834 -1.2935
10300TIP3    H252316   3.881   0.866   2.077  0.5417 -0.4231 -0.1646
10301TIP3   OH252317   4.955   2.131   3.180  0.0526 -0.4055  0.0257
10301TIP3    H152318   4.942   2.217   3.141 -1.3342 -1.3831 -1.8401
10301TIP3    H252319   4.889   2.075   3.139  0.4273 -2.2231  1.6931
10302TIP3   OH252320   1.155   6.477   1.065  0.0696 -0.4336 -0.0411
10302TIP3    H152321   1.203   6.556   1.039  0.2632 -0.4699  0.2002
10302TIP3    H252322   1.123   6.496   1.153  0.2079 -0.6611  0.0615
10303TIP3   OH252323   3.531   4.487   0.264 -0.1710 -0.4724 -0.3591
10303TIP3    H152324   3.574   4.570   0.242  0.1645 -0.4330  0.4115
10303TIP3    H252325   3.539   4.434   0.185  0.7605 -0.2491 -0.4225
10304TIP3   OH252326   2.529   6.084  14.772 -0.0897  0.0522  0.3605
10304TIP3    H152327   2.579   6.060  14.851 -1.4160 -0.9775  0.9286
10304TIP3    H252328   2.442   6.107  14.805 -1.2865 -2.3122 -0.9040
10305TIP3   OH252329   2.862   4.782   1.486  0.0669  0.0612  0.6633
10305TIP3    H152330   2.770   4.791   1.512 -0.2010  0.8244 -0.4540
10305TIP3    H252331   2.879   4.860   1.433  0.6267 -1.2746 -1.2205
10306TIP3   OH252332   3.735   1.136   3.226  0.0647  0.7080  0.0071
10306TIP3    H152333   3.720   1.082   3.148  1.3032  0.5155 -0.1185
10306TIP3    H252334   3.830   1.135   3.238  0.0711  2.4533  0.3107
10307TIP3   OH252335   1.052   3.480  13.540  0.3695  0.1403 -0.1319
10307TIP3    H152336   0.958   3.484  13.526  0.2969 -1.3958 -0.3227
10307TIP3    H252337   1.088   3.544  13.479 -0.5154  0.2015 -0.6120
10308TIP3   OH252338   5.834   2.066  14.475  0.4251 -0.2448  0.1903
10308TIP3    H152339   5.787   2.144  14.447  1.0524 -0.1569 -0.6634
10308TIP3    H252340   5.768   2.012  14.519 -0.4653 -0.1246 -0.9594
10309TIP3   OH252341   6.336   0.405   0.619  0.3499  0.0129 -0.4618
10309TIP3    H152342   6.364   0.325   0.664  0.8388  0.7218  0.5447
10309TIP3    H252343   6.387   0.406   0.538 -0.1755 -1.0386 -0.8263
10310TIP3   OH252344   6.654   1.384   6.252 -0.3468 -0.4830 -0.2270
10310TIP3    H152345   6.663   1.356   6.343 -2.2308  3.1354  1.2475
10310TIP3    H252346   6.741   1.414   6.227  0.3587 -2.1600  0.0291
10311TIP3   OH252347   5.895   3.132  14.097  0.4384 -0.3518  0.3428
10311TIP3    H152348   5.912   3.139  14.003  0.0850  0.7090  0.3446
10311TIP3    H252349   5.820   3.072  14.103  0.3639 -0.3052 -0.0623
10312TIP3   OH252350   5.428   3.259  11.832 -0.0937  0.0550 -0.2844
10312TIP3    H152351   5.473   3.188  11.877 -0.3155 -0.4054 -0.7820
10312TIP3    H252352   5.461   3.339  11.874 -0.9680 -0.3768  1.3226
10313TIP3   OH252353   3.493   1.222  14.874  0.1891  0.7824  0.4928
10313TIP3    H152354   3.435   1.242  14.801 -0.5150 -0.3686  0.7013
10313TIP3    H252355   3.534   1.306  14.897  0.6606  1.1067 -1.3964
10314TIP3   OH252356   4.273   2.584  13.682  0.2996  0.3796  0.3027
10314TIP3    H152357   4.212   2.580  13.608 -1.8865  0.3980  1.9973
10314TIP3    H252358   4.250   2.508  13.736  1.5003  0.6428  1.2306
10315TIP3   OH252359   2.385   3.142   4.032 -0.2256 -0.1485  0.6036
10315TIP3    H152360   2.471   3.110   4.006 -0.2483 -0.2038  0.5987
10315TIP3    H252361   2.332   3.139   3.953 -0.3417 -0.4717  0.6939
10316TIP3   OH252362   4.361   0.109  10.748  0.1710  0.1983 -0.3531
10316TIP3    H152363   4.308   0.065  10.681 -0.5963  0.9631 -0.2628
10316TIP3    H252364   4.398   0.038  10.799  2.2993 -0.5059 -2.7022
10317TIP3   OH252365   1.882   4.074   3.312  0.0524 -0.4196  0.0080
10317TIP3    H152366   1.912   4.019   3.241  1.5970 -0.7614  0.8715
10317TIP3    H252367   1.859   4.013   3.382 -1.4150 -0.0896 -0.1471
10318TIP3   OH252368   3.964   5.680  14.729 -0.4298  0.2767  0.2165
10318TIP3    H152369   4.015   5.611  14.772 -0.2827 -1.4827 -2.5330
10318TIP3    H252370   4.008   5.761  14.754  2.2220 -0.9769  0.0344
10319TIP3   OH252371   1.747   3.169  14.361 -0.2931 -0.6639  0.0078
10319TIP3    H152372   1.818   3.105  14.365  2.2194  1.9395  1.0432
10319TIP3    H252373   1.751   3.203  14.271  0.2103 -0.1164  0.2288
10320TIP3   OH252374   2.476   5.977   4.309  0.2224  0.5594  0.0431
10320TIP3    H152375   2.479   6.008   4.399 -0.3029  0.3940  0.1205
10320TIP3    H252376   2.401   5.917   4.306  1.2445 -0.7522 -0.0868
10321TIP3   OH252377   4.855   4.856   4.232  0.1227 -0.1194 -0.0489
10321TIP3    H152378   4.826   4.823   4.318  0.8228 -0.3978  0.0892
10321TIP3    H252379   4.902   4.782   4.194  1.3156  0.5605  0.0638
10322TIP3   OH252380   1.461   5.160  12.926 -0.1924  0.2848  0.2746
10322TIP3    H152381   1.388   5.160  12.864  0.9515 -0.4315 -1.1606
10322TIP3    H252382   1.439   5.093  12.990  0.3690 -1.8935 -1.6838
10323TIP3   OH252383   1.205   1.037   5.478  0.4395  0.3089 -0.9317
10323TIP3    H152384   1.275   1.000   5.531 -0.8419 -0.5795  0.2023
10323TIP3    H252385   1.196   0.977   5.404 -0.9132 -1.1577  0.3504
10324TIP3   OH252386   6.439   5.768   3.669  0.0055 -0.2781  0.4840
10324TIP3    H152387   6.374   5.724   3.615 -1.0818  0.1531  1.3861
10324TIP3    H252388   6.437   5.720   3.752  1.8799 -1.1398  0.0796
10325TIP3   OH252389   6.043   3.459  13.180 -0.1465  0.1025  0.0936
10325TIP3    H152390   6.011   3.513  13.107  0.8275  1.7638  0.8370
10325TIP3    H252391   6.053   3.521  13.252  0.8567 -1.1322  1.0446
10326TIP3   OH252392   5.319   5.354   2.198  0.0756  0.4438  0.1253
10326TIP3    H152393   5.362   5.434   2.228 -0.7055  0.4436  1.3098
10326TIP3    H252394   5.331   5.292   2.270  1.2000 -0.7393 -1.0086
10327TIP3   OH252395   4.272   1.725  12.136  0.4172 -0.0398 -0.5869
10327TIP3    H152396   4.346   1.675  12.171 -0.3606  0.0410  1.3331
10327TIP3    H252397   4.210   1.658  12.107  0.6148 -0.1394 -0.7785
10328TIP3   OH252398   2.823   6.016  17.151 -0.3520  0.4146 -0.6121
10328TIP3    H152399   2.784   5.946  17.097  0.1090 -0.2020 -0.1663
10328TIP3    H252400   2.754   6.040  17.212 -0.1164 -0.5412  0.0492
10329TIP3   OH252401   1.440   4.679  15.661 -0.1163 -0.2305 -0.6831
10329TIP3    H152402   1.503   4.720  15.719  0.4718  0.0735 -1.5097
10329TIP3    H252403   1.434   4.588  15.692  0.0423 -0.0259 -0.0460
10330TIP3   OH252404   4.853   6.205  14.302  0.5265  0.2406 -0.2994
10330TIP3    H152405   4.850   6.119  14.344 -0.5263  0.4338  0.0591
10330TIP3    H252406   4.768   6.213  14.257  0.1840  1.4933  0.5117
10331TIP3   OH252407   5.015   2.184  13.498  0.1385 -0.2333 -0.0568
10331TIP3    H152408   5.022   2.207  13.590  0.0181 -1.2124  0.2068
10331TIP3    H252409   5.057   2.257  13.452  1.7512 -0.5311  0.8527
10332TIP3   OH252410   6.568   4.124   0.670 -0.3191  0.6011 -0.1642
10332TIP3    H152411   6.582   4.167   0.585  0.9704 -0.7139 -0.6636
10332TIP3    H252412   6.645   4.068   0.681 -1.4207 -0.7637  0.9401
10333TIP3   OH252413   0.379   6.307   5.538 -0.4419  0.6766  0.2221
10333TIP3    H152414   0.368   6.402   5.547 -2.5008  0.7448 -2.0338
10333TIP3    H252415   0.290   6.272   5.543  0.1455 -0.9911 -0.4108
10334TIP3   OH252416   0.227   0.822   4.369 -0.2325 -0.1939 -0.1131
10334TIP3    H152417   0.302   0.767   4.392  1.0126  1.8544  1.0327
10334TIP3    H252418   0.253   0.864   4.286 -1.7544 -2.2516 -1.7312
10335TIP3   OH252419   2.112   0.313  16.077  0.7848  0.3227  0.1621
10335TIP3    H152420   2.022   0.313  16.046  0.3083  0.7642  1.4915
10335TIP3    H252421   2.165   0.307  15.997 -0.4115 -0.0910 -0.6223
10336TIP3   OH252422   3.065   6.695  15.615 -0.2208 -0.2170  0.4178
10336TIP3    H152423   3.021   6.726  15.536 -0.2766  1.9380  1.2333
10336TIP3    H252424   3.158   6.698  15.593 -0.2700 -0.6842  0.1087
10337TIP3   OH252425   1.132   3.041  10.316 -0.3388 -0.7033  0.5885
10337TIP3    H152426   1.095   3.007  10.235  1.8507  0.2073 -0.8939
10337TIP3    H252427   1.193   3.109  10.288 -0.2784  0.3756  3.0858
10338TIP3   OH252428   1.634   4.983  16.650  0.4925 -0.1953 -0.7680
10338TIP3    H152429   1.563   5.039  16.621  1.0720  1.8022  1.3902
10338TIP3    H252430   1.704   4.997  16.585  0.4496  1.2385 -0.5335
10339TIP3   OH252431   6.150   0.598   4.366 -0.4043  0.5091  0.0681
10339TIP3    H152432   6.234   0.552   4.360  0.2060  1.5535  0.4154
10339TIP3    H252433   6.088   0.539   4.323  0.2829 -0.8034  0.8040
10340TIP3   OH252434   4.296   0.464  11.501 -0.1368 -0.4000 -0.2701
10340TIP3    H152435   4.384   0.489  11.472 -0.2950 -0.2432 -0.6289
10340TIP3    H252436   4.279   0.518  11.578  0.0495 -0.3702 -0.2501
10341TIP3   OH252437   6.522   4.969   4.067  0.5052 -0.0826 -0.1820
10341TIP3    H152438   6.616   4.964   4.079  0.6418  1.5861 -0.3915
10341TIP3    H252439   6.502   5.062   4.063 -0.9465 -0.4011 -1.6953
10342TIP3   OH252440   4.658   3.710  13.070  0.3024  0.0081  0.0844
10342TIP3    H152441   4.567   3.728  13.091  0.6431  1.1655  0.6519
10342TIP3    H252442   4.665   3.614  13.068 -0.2411 -0.1734  3.1299
10343TIP3   OH252443   1.147   0.606   5.187 -0.3538 -0.0152 -0.0519
10343TIP3    H152444   1.185   0.599   5.099 -0.3591  0.3182 -0.0798
10343TIP3    H252445   1.055   0.586   5.176 -0.6674  1.5237 -0.3739
10344TIP3   OH252446   0.367   5.426  15.118  0.4734 -0.5428  0.3792
10344TIP3    H152447   0.289   5.377  15.144  0.0228 -1.0581 -1.7579
10344TIP3    H252448   0.355   5.513  15.157 -1.7416 -0.2546 -0.8279
10345TIP3   OH252449   0.861   1.845  11.299  0.5183  0.1082 -0.3152
10345TIP3    H152450   0.941   1.874  11.256  1.0012  0.3315  0.7025
10345TIP3    H252451   0.834   1.766  11.251 -0.1746  1.5255 -2.3846
10346TIP3   OH252452   0.651   3.668  14.996 -0.4955 -0.5088 -0.1499
10346TIP3    H152453   0.610   3.586  14.969 -0.1860 -0.6298 -0.2504
10346TIP3    H252454   0.612   3.687  15.082 -1.0492 -0.4228 -0.4117
10347TIP3   OH252455   1.088   4.840  15.025 -0.0419 -0.6834  0.2582
10347TIP3    H152456   1.120   4.752  15.041  0.2252 -0.3959  1.3938
10347TIP3    H252457   1.034   4.832  14.946  1.0005 -1.6029 -0.3952
10348TIP3   OH252458   1.262   3.134  13.309 -0.4791 -0.2760 -0.6507
10348TIP3    H152459   1.193   3.115  13.373  0.8519 -0.9573  0.6259
10348TIP3    H252460   1.270   3.229  13.309  0.6378 -0.3224  1.4868
10349TIP3   OH252461   2.186   4.673   3.992 -0.5146  0.4553 -0.0869
10349TIP3    H152462   2.222   4.722   4.066  1.1227  1.0562 -1.2188
10349TIP3    H252463   2.142   4.598   4.032 -0.3371  1.1676  1.5207
10350TIP3   OH252464   2.387   2.069   5.041 -0.3502 -0.2595 -0.1131
10350TIP3    H152465   2.346   2.087   4.957 -0.6709  0.7672  0.2573
10350TIP3    H252466   2.325   2.100   5.106  0.0777 -0.6561  0.5013
10351TIP3   OH252467   2.958   1.543   0.466  0.2995  0.0997  0.3330
10351TIP3    H152468   3.022   1.584   0.408 -0.7253  1.2022 -0.0568
10351TIP3    H252469   2.991   1.560   0.554  1.5093 -0.9987  0.1274
10352TIP3   OH252470   2.120   4.921  11.230  0.0895  0.2717 -0.2318
10352TIP3    H152471   2.138   4.870  11.309  1.1862 -1.1258 -1.3356
10352TIP3    H252472   2.147   4.864  11.158 -1.0917  1.4162 -1.6443
10353TIP3   OH252473   5.153   0.096  16.745  0.2902  0.2554 -0.4207
10353TIP3    H152474   5.214   0.098  16.672  1.0241  1.4633  0.1906
10353TIP3    H252475   5.131   0.003  16.755  2.2193 -0.2644 -0.5155
10354TIP3   OH252476   5.222   1.559   5.451  0.4862  0.0336 -0.0403
10354TIP3    H152477   5.193   1.623   5.517  0.4216  0.8452 -0.8365
10354TIP3    H252478   5.311   1.587   5.429  1.0409 -1.0621  0.6862
10355TIP3   OH252479   4.287   1.393   2.312  0.1143  0.2551 -0.3862
10355TIP3    H152480   4.216   1.400   2.376  1.0858  3.6832  0.5127
10355TIP3    H252481   4.345   1.466   2.333  2.0599 -0.2831 -3.3660
10356TIP3   OH252482   2.648   3.238  16.778 -0.8082  0.4694 -0.0993
10356TIP3    H152483   2.719   3.247  16.714 -0.8406  2.8766  0.1490
10356TIP3    H252484   2.656   3.313  16.835 -1.6974 -0.8522  1.8852
10357TIP3   OH252485   0.332   6.092  13.687 -0.2075  0.2780  0.1771
10357TIP3    H152486   0.420   6.068  13.716 -0.1889 -0.6157 -0.5743
10357TIP3    H252487   0.347   6.148  13.610 -0.2863  0.8534  0.5773
10358TIP3   OH252488   3.283   1.228  13.716 -0.4768  1.1322  0.5376
10358TIP3    H152489   3.196   1.226  13.756 -0.0981 -0.5516  1.3722
10358TIP3    H252490   3.299   1.137  13.691  1.3400  1.2858  1.0453
10359TIP3   OH252491   4.720   1.667   2.413 -0.5187 -0.5978  0.1413
10359TIP3    H152492   4.783   1.603   2.379 -0.6052 -0.5084 -0.1906
10359TIP3    H252493   4.746   1.749   2.372 -2.4847 -1.0328 -2.1502
10360TIP3   OH252494   0.949   1.814   1.905  0.0063  0.0405  0.6922
10360TIP3    H152495   0.889   1.829   1.978  0.1199 -1.9483  1.2456
10360TIP3    H252496   0.902   1.753   1.847  0.5894  0.2722 -0.0410
10361TIP3   OH252497   2.277   3.780  17.035 -0.6345  0.2339 -0.1565
10361TIP3    H152498   2.338   3.852  17.022  1.0847 -0.7474  1.8670
10361TIP3    H252499   2.306   3.711  16.975  0.1655 -0.1360  0.6225
10362TIP3   OH252500   5.588   1.170   2.957 -0.0519 -0.0893  0.1550
10362TIP3    H152501   5.576   1.099   3.021  0.1869  0.1783  0.4960
10362TIP3    H252502   5.590   1.125   2.872 -1.6293 -0.3451  0.2072
10363TIP3   OH252503   3.766   2.356   5.188  0.5821  0.7539 -0.1450
10363TIP3    H152504   3.796   2.268   5.169 -0.8621  0.4564 -1.1990
10363TIP3    H252505   3.673   2.346   5.208  0.6840  1.8791  1.0540
10364TIP3   OH252506   0.383   3.789   5.649  0.9471 -0.0163  0.1116
10364TIP3    H152507   0.375   3.739   5.730  2.1043  2.3706  1.8093
10364TIP3    H252508   0.477   3.798   5.636  0.7820  1.9650  0.0720
10365TIP3   OH252509   6.731   5.627  13.205  0.0535  0.5453  0.2689
10365TIP3    H152510   6.747   5.546  13.253  2.4912  1.1116  0.5150
10365TIP3    H252511   6.746   5.697  13.269 -2.3295  1.2698  0.1574
10366TIP3   OH252512   4.036   2.421   1.220  0.1284  0.0882 -0.6254
10366TIP3    H152513   4.101   2.365   1.263  2.0060  2.3023 -0.4269
10366TIP3    H252514   4.052   2.407   1.126  2.2045  1.8771 -0.6278
10367TIP3   OH252515   2.276   0.454  11.376 -0.1140  0.4772 -0.3042
10367TIP3    H152516   2.322   0.450  11.292  0.0042 -1.5136 -0.1797
10367TIP3    H252517   2.290   0.544  11.406  1.6777  0.6016 -1.3812
10368TIP3   OH252518   5.634   1.791   1.207  0.7243  0.2914  0.5225
10368TIP3    H152519   5.618   1.729   1.280  0.5485  0.9784  1.0776
10368TIP3    H252520   5.645   1.735   1.131 -3.1992 -0.4124  0.2491
10369TIP3   OH252521   3.666   3.459   0.272  0.1814 -0.8578 -0.0167
10369TIP3    H152522   3.670   3.509   0.354  1.3132 -2.7607  1.1726
10369TIP3    H252523   3.678   3.368   0.299  0.4278 -1.5686 -2.2998
10370TIP3   OH252524   0.448   1.435  10.927  0.1186  0.5644  0.3411
10370TIP3    H152525   0.370   1.467  10.881 -0.7002  0.1870  1.4205
10370TIP3    H252526   0.414   1.367  10.986  0.6489  2.8732  3.5548
10371TIP3   OH252527   6.016   3.669  12.122  0.1731  0.3481  0.2392
10371TIP3    H152528   6.011   3.615  12.043  0.6882  0.9299 -0.2028
10371TIP3    H252529   5.933   3.716  12.125  1.0639  2.1166 -1.2897
10372TIP3   OH252530   3.550   2.391  14.419  0.0544  0.2697 -0.2378
10372TIP3    H152531   3.537   2.432  14.334 -0.1210  0.6339 -0.0360
10372TIP3    H252532   3.551   2.464  14.481 -1.1860 -0.0873  0.2345
10373TIP3   OH252533   5.311   0.599  13.377  0.2065 -0.5620  0.1867
10373TIP3    H152534   5.259   0.677  13.356  1.8524  0.0717 -1.8645
10373TIP3    H252535   5.376   0.630  13.440  1.8524  0.2326 -1.7741
10374TIP3   OH252536   1.821   0.830   4.817 -0.2191  0.0897 -0.1453
10374TIP3    H152537   1.870   0.755   4.783  0.2522 -1.2620  3.0892
10374TIP3    H252538   1.730   0.802   4.814 -0.0229 -0.8447  1.3291
10375TIP3   OH252539   6.056   2.757   2.569 -0.0562  0.3934 -0.5511
10375TIP3    H152540   6.060   2.768   2.664  0.7776  0.9417 -0.6372
10375TIP3    H252541   6.145   2.734   2.544 -0.1803  0.6492 -1.2464
10376TIP3   OH252542   6.543   3.084  15.026  0.3756  0.1964 -0.1553
10376TIP3    H152543   6.576   3.154  15.083 -0.5121 -0.3015  1.0229
10376TIP3    H252544   6.544   3.123  14.938 -0.8086  2.0030  0.5508
10377TIP3   OH252545   4.123   2.570  12.401  0.2865  0.3294 -0.1614
10377TIP3    H152546   4.207   2.536  12.432  0.0456 -0.4842 -0.3653
10377TIP3    H252547   4.137   2.586  12.308  0.4456  0.9432 -0.0322
10378TIP3   OH252548   5.601   0.013   1.758  0.3111 -0.3067 -0.6268
10378TIP3    H152549   5.618   0.044   1.669 -0.5496  3.0814  0.2680
10378TIP3    H252550   5.508   0.031   1.772  0.5179 -0.4622  1.0728
10379TIP3   OH252551   3.426   6.579   2.967  0.2992 -0.2942 -0.1332
10379TIP3    H152552   3.491   6.513   2.944 -1.6555 -2.2839 -0.2917
10379TIP3    H252553   3.403   6.560   3.058 -0.6133 -0.1153 -0.3175
10380TIP3   OH252554   3.134   5.728   4.348 -0.1623  0.1746  0.3474
10380TIP3    H152555   3.104   5.684   4.427 -1.7627  1.2602  0.4005
10380TIP3    H252556   3.218   5.766   4.372 -0.4562  0.1817  1.4203
10381TIP3   OH252557   1.342   5.066   3.580  0.2970  0.6069 -0.3923
10381TIP3    H152558   1.330   5.145   3.527  1.4041  0.6133 -0.6582
10381TIP3    H252559   1.254   5.038   3.602 -0.1599  3.1265  1.5419
10382TIP3   OH252560   4.180   1.251   4.848  0.3105 -0.7090  0.1182
10382TIP3    H152561   4.176   1.179   4.786  1.6359  0.8427 -1.8772
10382TIP3    H252562   4.165   1.210   4.933 -2.9428 -2.7283 -1.2355
10383TIP3   OH252563   6.548   0.397   3.074  0.0289  0.0898 -0.0360
10383TIP3    H152564   6.636   0.359   3.079 -0.1385 -0.3791 -0.5953
10383TIP3    H252565   6.490   0.326   3.101 -0.1136  0.7350  1.4499
10384TIP3   OH252566   1.260   1.991  12.778 -0.5308 -0.8223 -0.1677
10384TIP3    H152567   1.181   2.011  12.727  1.6697  1.8389 -2.9509
10384TIP3    H252568   1.307   1.928  12.724 -0.3993 -1.9109  1.1665
10385TIP3   OH252569   0.841   1.547  11.511 -0.0997 -0.3088 -0.0147
10385TIP3    H152570   0.796   1.536  11.427 -0.5560 -0.6172  0.2628
10385TIP3    H252571   0.933   1.557  11.488 -0.2269 -0.3578 -0.5543
10386TIP3   OH252572   0.512   0.715   6.372 -0.2602 -0.0449 -0.3017
10386TIP3    H152573   0.599   0.676   6.383  0.3246  1.2317 -0.2680
10386TIP3    H252574   0.451   0.642   6.386  0.8066 -1.0192 -0.6130
10387TIP3   OH252575   1.134   2.411  16.352  0.7367 -0.0980 -0.2577
10387TIP3    H152576   1.076   2.383  16.423  0.0451 -0.1692 -0.8398
10387TIP3    H252577   1.082   2.472  16.301  1.2279 -0.0447 -0.7076
10388TIP3   OH252578   6.668   1.194  14.288 -0.0222  0.2731  1.0003
10388TIP3    H152579   6.625   1.211  14.372 -1.5032 -0.6429  0.4699
10388TIP3    H252580   6.664   1.277  14.242 -2.8682 -0.1334  0.3026
10389TIP3   OH252581   1.236   6.050  11.039 -0.0139 -0.0488 -0.5036
10389TIP3    H152582   1.180   6.126  11.055 -0.3192 -0.9768  3.8935
10389TIP3    H252583   1.317   6.070  11.086 -0.4956 -2.7749  1.7227
10390TIP3   OH252584   0.832   4.398  15.285 -0.8241 -0.0777 -0.3254
10390TIP3    H152585   0.768   4.467  15.305 -1.9499 -1.2450  0.2755
10390TIP3    H252586   0.796   4.355  15.208 -0.1615 -0.0423 -0.6574
10391TIP3   OH252587   1.071   0.116   6.352  0.0469  0.2136 -0.7063
10391TIP3    H152588   1.136   0.077   6.292 -1.5810 -0.7175 -1.9494
10391TIP3    H252589   1.010   0.046   6.371 -0.7914  1.1458  0.1892
10392TIP3   OH252590   6.551   1.934   3.046 -0.3430  0.0310 -0.3581
10392TIP3    H152591   6.592   2.000   3.101 -0.9232  0.0378  0.0763
10392TIP3    H252592   6.539   1.977   2.962  1.2590 -0.2249 -0.7553
10393TIP3   OH252593   1.120   4.893   1.280  0.5417 -0.2716  0.1321
10393TIP3    H152594   1.096   4.904   1.372  0.4346 -0.4184  0.1225
10393TIP3    H252595   1.078   4.966   1.235 -2.0400 -1.8893 -0.2707
10394TIP3   OH252596   3.448   6.557  17.153 -0.0218  0.0023 -0.3179
10394TIP3    H152597   3.442   6.596  17.066  0.7284  0.2902 -0.2508
10394TIP3    H252598   3.369   6.503  17.161 -0.3240  0.3344 -0.9922
10395TIP3   OH252599   5.640   0.431   1.268  0.1356  0.0062 -0.0537
10395TIP3    H152600   5.635   0.410   1.362 -0.6482 -0.4601 -0.1893
10395TIP3    H252601   5.628   0.525   1.264  1.7982  0.2643  0.4277
10396TIP3   OH252602   3.227   6.279   4.626  0.1603  0.1306  0.2419
10396TIP3    H152603   3.225   6.329   4.707  0.3482  0.4269  0.0672
10396TIP3    H252604   3.320   6.260   4.612  0.1134 -0.0488  0.1764
10397TIP3   OH252605   5.702   2.798   3.830 -0.0014 -0.3632 -0.4087
10397TIP3    H152606   5.764   2.821   3.899  1.9828 -1.1590 -1.8541
10397TIP3    H252607   5.730   2.713   3.799 -1.8257 -0.7383 -1.1724
10398TIP3   OH252608   4.736   2.749  14.640  0.5143 -0.2225 -0.4789
10398TIP3    H152609   4.682   2.715  14.568  0.5379  1.6147 -1.4223
10398TIP3    H252610   4.674   2.776  14.707  0.4366 -0.8997 -0.2707
10399TIP3   OH252611   4.714   5.993  15.398 -0.1051  0.2665 -0.2318
10399TIP3    H152612   4.679   5.956  15.479 -1.7306  1.8936 -0.1380
10399TIP3    H252613   4.643   5.984  15.335  0.0906  1.6500 -0.6721
10400TIP3   OH252614   4.438   6.153   1.588  0.0305 -0.1597  0.7228
10400TIP3    H152615   4.389   6.110   1.518  1.0906 -0.3627  0.0755
10400TIP3    H252616   4.429   6.094   1.663 -0.7455 -0.1635  0.6323
10401TIP3   OH252617   6.081   0.853  16.245  0.4420  0.0825  0.0186
10401TIP3    H152618   6.158   0.902  16.275  2.4840 -1.7052 -1.9020
10401TIP3    H252619   6.070   0.881  16.154  0.9037 -2.0340 -0.7352
10402TIP3   OH252620   3.733   5.537   1.867  0.0297 -0.1424  0.3404
10402TIP3    H152621   3.730   5.593   1.944  2.0242  0.5505 -0.0075
10402TIP3    H252622   3.762   5.452   1.901 -3.6796 -1.3417  0.9772
10403TIP3   OH252623   2.326   0.615  16.264 -0.4736 -0.0821 -0.6433
10403TIP3    H152624   2.289   0.648  16.182 -0.3273 -0.8928 -1.0382
10403TIP3    H252625   2.292   0.526  16.272  0.9807 -0.6751 -0.7624
10404TIP3   OH252626   5.063   5.849  12.202 -0.0678  0.2976  0.0096
10404TIP3    H152627   5.085   5.766  12.159 -0.0872 -0.4770  1.4340
10404TIP3    H252628   5.120   5.852  12.279  1.0019  2.3421 -0.7998
10405TIP3   OH252629   6.390   4.638  16.154  0.1441  0.4049  0.3084
10405TIP3    H152630   6.418   4.553  16.187  0.3673  0.6500  0.7627
10405TIP3    H252631   6.302   4.650  16.189  0.4939  0.7958  1.0817
10406TIP3   OH252632   0.526   0.822  13.222 -0.0355 -0.0106 -0.1248
10406TIP3    H152633   0.602   0.812  13.278 -0.3375  2.5933  0.8614
10406TIP3    H252634   0.562   0.841  13.135  0.4238  0.1524  0.0995
10407TIP3   OH252635   2.939   2.704   3.450 -0.1845  0.3660 -0.0234
10407TIP3    H152636   2.861   2.649   3.459 -0.4644  0.9451  1.5462
10407TIP3    H252637   2.904   2.793   3.442  0.3070  0.6054  0.4526
10408TIP3   OH252638   6.117   4.340  13.738  0.1485 -0.7185 -0.2618
10408TIP3    H152639   6.123   4.334  13.833  1.9737 -2.4602 -0.3940
10408TIP3    H252640   6.024   4.334  13.719 -0.2845  0.0877  1.4121
10409TIP3   OH252641   2.694   6.472   3.959 -0.2479 -0.1857 -0.7635
10409TIP3    H152642   2.604   6.493   3.983 -0.2771 -1.4445  0.3507
10409TIP3    H252643   2.692   6.462   3.864 -1.1184  0.4984 -0.8300
10410TIP3   OH252644   2.669   1.464   4.874  0.1925  0.2347  0.2038
10410TIP3    H152645   2.747   1.497   4.918  0.4798 -0.7162  0.4292
10410TIP3    H252646   2.642   1.536   4.817  1.9527  0.1657 -0.8033
10411TIP3   OH252647   1.392   6.205   1.062 -0.4392 -0.0854 -0.3728
10411TIP3    H152648   1.430   6.117   1.070 -0.4567  0.0335  1.5226
10411TIP3    H252649   1.298   6.191   1.067 -0.4012  0.1315  1.5123
10412TIP3   OH252650   4.363   2.252   6.457 -0.9204 -0.9882 -0.4817
10412TIP3    H152651   4.377   2.316   6.527  1.0159  1.1542 -2.6434
10412TIP3    H252652   4.437   2.192   6.464  1.5651  1.4994 -2.8092
10413TIP3   OH252653   3.821   5.759  13.937 -0.2785 -0.4390 -0.5078
10413TIP3    H152654   3.849   5.668  13.947 -0.5524 -0.5128 -0.4168
10413TIP3    H252655   3.899   5.804  13.904  0.2593 -0.4293  0.7471
10414TIP3   OH252656   2.817   6.077  13.872 -0.1207  0.3729  0.1640
10414TIP3    H152657   2.760   6.020  13.923  0.2030 -0.8118 -0.7703
10414TIP3    H252658   2.760   6.116  13.806  0.3507 -2.2025 -1.9573
10415TIP3   OH252659   0.426   0.542   5.331 -0.2688 -0.2759  0.2368
10415TIP3    H152660   0.466   0.612   5.384  1.0254 -0.2424 -0.7415
10415TIP3    H252661   0.392   0.587   5.254  1.7577 -0.8339 -1.0518
10416TIP3   OH252662   2.356   0.703  12.383 -0.1964 -0.7231  0.3431
10416TIP3    H152663   2.412   0.780  12.384 -0.0594 -0.7925 -0.6238
10416TIP3    H252664   2.275   0.731  12.427 -0.8068  0.5082 -1.4423
10417TIP3   OH252665   4.550   2.802  15.083  0.0513 -0.0246  0.0504
10417TIP3    H152666   4.639   2.829  15.108  0.3213 -1.3517  0.6191
10417TIP3    H252667   4.541   2.715  15.120 -2.6166  1.2286  2.7971
10418TIP3   OH252668   1.362   0.852   0.631  0.0021  0.1187  0.0225
10418TIP3    H152669   1.353   0.763   0.598 -1.5382  1.1850 -2.8150
10418TIP3    H252670   1.450   0.879   0.604  0.0554 -0.1712 -0.0973
10419TIP3   OH252671   2.980   3.615   5.802 -0.2952  0.0386  0.9315
10419TIP3    H152672   2.921   3.552   5.843  0.5736 -3.0294 -2.0874
10419TIP3    H252673   3.059   3.565   5.783  0.7591  2.2485 -0.9861
10420TIP3   OH252674   6.318   5.782  15.500  0.1671  0.0625  0.0521
10420TIP3    H152675   6.308   5.707  15.441  1.3005 -0.4242  0.4411
10420TIP3    H252676   6.283   5.856  15.451 -2.2047 -0.8982  0.1557
10421TIP3   OH252677   3.682   2.816   6.054 -0.2577 -0.0926  0.0397
10421TIP3    H152678   3.588   2.804   6.037 -0.1245 -1.9236  0.4218
10421TIP3    H252679   3.726   2.783   5.976  0.0907  0.3588  0.0405
10422TIP3   OH252680   3.041   5.672   2.094 -0.3557 -0.1251 -0.1097
10422TIP3    H152681   3.059   5.578   2.085  0.1042 -0.1753  1.0835
10422TIP3    H252682   3.014   5.682   2.186  0.0484  0.9672 -0.0958
10423TIP3   OH252683   0.004   3.895   0.191 -0.2554 -0.2417  0.0506
10423TIP3    H152684   0.060   3.945   0.132  0.4396  0.3245  1.1612
10423TIP3    H252685  -0.062   3.957   0.219 -1.0368 -0.7140 -0.6860
10424TIP3   OH252686   5.825   4.055  13.635  0.2981  0.9742 -0.0390
10424TIP3    H152687   5.888   4.091  13.697  0.8087  1.8019 -1.0270
10424TIP3    H252688   5.862   4.073  13.549 -1.7676  2.4481 -0.6917
10425TIP3   OH252689   3.148   1.290  16.254 -0.4647 -0.0251  0.4916
10425TIP3    H152690   3.167   1.238  16.332  1.2821 -1.3398 -0.7391
10425TIP3    H252691   3.097   1.364  16.287 -0.5873 -1.0179  2.7236
10426TIP3   OH252692   6.186   0.419   6.576  0.0503 -0.4890  0.3912
10426TIP3    H152693   6.261   0.380   6.532  0.5145  1.8177 -1.0041
10426TIP3    H252694   6.129   0.344   6.595  2.1785 -2.1824  0.5788
10427TIP3   OH252695   2.006   6.043   6.128  0.0368  0.0233  0.4934
10427TIP3    H152696   2.039   6.120   6.174 -0.5502 -0.7887  2.4101
10427TIP3    H252697   1.911   6.056   6.126  0.0600  0.0454 -0.5107
10428TIP3   OH252698   1.271   4.855  11.069  0.6242 -0.3122  0.1728
10428TIP3    H152699   1.248   4.823  11.156  1.2039 -0.6621  0.2053
10428TIP3    H252700   1.273   4.776  11.014  2.1625 -0.3796  0.2696
10429TIP3   OH252701   3.799   6.433  16.766  0.5521  0.0798  0.2920
10429TIP3    H152702   3.863   6.379  16.812  0.8834  1.7132  1.8675
10429TIP3    H252703   3.847   6.470  16.692  1.1606  0.5470  0.9196
10430TIP3   OH252704   2.113   2.903  15.995  0.0202 -0.4645  0.1383
10430TIP3    H152705   2.018   2.902  16.009  0.0353 -0.8007  0.2301
10430TIP3    H252706   2.140   2.811  16.005  0.6605 -0.0984  2.2765
10431TIP3   OH252707   6.203   4.919  13.494  0.8078  0.1136 -0.1797
10431TIP3    H152708   6.161   4.900  13.410  0.6254 -0.6713  0.0771
10431TIP3    H252709   6.169   5.005  13.519  2.2047  1.1728 -1.7227
10432TIP3   OH252710   5.677   0.663  16.311 -0.1501 -0.0106 -0.3813
10432TIP3    H152711   5.642   0.729  16.251  1.9873  3.3759  1.7775
10432TIP3    H252712   5.767   0.648  16.281 -0.1755 -0.9280 -0.0394
10433TIP3   OH252713   0.611   5.684   4.551 -0.2252 -0.4702 -0.1393
10433TIP3    H152714   0.677   5.737   4.506 -0.6535 -1.9111 -2.6342
10433TIP3    H252715   0.650   5.598   4.559 -1.1206 -0.8724  0.0570
10434TIP3   OH252716   4.863   1.764   0.460  0.5305  0.0149  0.7444
10434TIP3    H152717   4.912   1.832   0.506 -1.6441  1.9247  0.3923
10434TIP3    H252718   4.845   1.698   0.526  1.2449  0.5896  1.5302
10435TIP3   OH252719   4.122   4.560  14.792 -0.0397  0.7125  0.0368
10435TIP3    H152720   4.156   4.617  14.861  0.7999  0.0027  0.2321
10435TIP3    H252721   4.072   4.493  14.840 -1.5590  1.6058 -0.2306
10436TIP3   OH252722   1.408   1.791  12.658  0.0665 -0.1936 -0.1009
10436TIP3    H152723   1.382   1.748  12.577  0.7262  1.9261 -1.5073
10436TIP3    H252724   1.484   1.741  12.689 -2.4435 -3.4438  1.4572
10437TIP3   OH252725   4.149   5.749   2.390 -0.0013 -0.3525 -0.1018
10437TIP3    H152726   4.106   5.833   2.407  1.4140  0.4052 -0.0485
10437TIP3    H252727   4.187   5.759   2.303  1.3398 -0.3949  0.4532
10438TIP3   OH252728   4.937   3.536   5.915  0.0616 -0.2972  0.0045
10438TIP3    H152729   4.924   3.544   5.820  1.5159 -0.2091 -0.2186
10438TIP3    H252730   4.919   3.624   5.949 -1.9935 -0.6887  0.0557
10439TIP3   OH252731   4.862   1.829   5.271  0.1583  0.4035  0.3810
10439TIP3    H152732   4.820   1.747   5.296  1.7411 -1.0133 -1.3838
10439TIP3    H252733   4.790   1.885   5.242 -0.8091 -0.8484  0.2968
10440TIP3   OH252734   2.172   2.527   2.113  0.1429  0.3679  0.5197
10440TIP3    H152735   2.237   2.457   2.112 -0.5175 -0.2618  0.3857
10440TIP3    H252736   2.217   2.602   2.151  1.1100  0.1139 -0.0941
10441TIP3   OH252737   1.232   1.719  12.042  0.3964  0.3610 -0.2584
10441TIP3    H152738   1.170   1.751  11.977  0.1460  0.0718 -0.1579
10441TIP3    H252739   1.213   1.771  12.121  0.8571  0.8803 -0.4763
10442TIP3   OH252740   6.579   2.089  14.797 -0.0519 -0.1132  0.2929
10442TIP3    H152741   6.488   2.069  14.773 -0.1586  1.1604 -0.4977
10442TIP3    H252742   6.621   2.110  14.714  0.2526  1.9217  0.8990
10443TIP3   OH252743   2.337   4.980   0.014 -0.1970 -0.6329 -0.2696
10443TIP3    H152744   2.352   5.025  -0.069  0.3275 -0.2310  0.0377
10443TIP3    H252745   2.270   5.032   0.059  1.2467  0.5774  0.6036
10444TIP3   OH252746   2.891   3.729  14.855  0.1586  0.0917  0.4222
10444TIP3    H152747   2.980   3.708  14.828  0.4487 -0.6628  1.8518
10444TIP3    H252748   2.847   3.645  14.859 -0.3628  0.3674  0.5760
10445TIP3   OH252749   1.949   5.925  15.090  0.2917 -0.3040  0.7841
10445TIP3    H152750   1.890   5.898  15.160 -0.1205  1.6856  1.2709
10445TIP3    H252751   2.033   5.886  15.113 -0.3364 -1.4245  1.2294
10446TIP3   OH252752   1.783   6.727  10.731  0.0087 -0.6429 -0.1221
10446TIP3    H152753   1.868   6.685  10.726 -0.6654 -2.2185  0.9368
10446TIP3    H252754   1.722   6.656  10.753 -1.6593  0.3369 -1.3607
10447TIP3   OH252755   5.374   5.662   4.045 -0.4617  0.0736  0.0357
10447TIP3    H152756   5.320   5.584   4.032 -0.6223 -0.0097  1.1406
10447TIP3    H252757   5.317   5.723   4.091 -0.9476  1.5742 -2.3438
10448TIP3   OH252758   3.334   5.560   3.133 -0.7436 -0.2968 -0.2869
10448TIP3    H152759   3.322   5.516   3.049 -0.7614 -0.4113 -0.2249
10448TIP3    H252760   3.370   5.492   3.191 -2.5311 -0.7639  0.3385
10449TIP3   OH252761   4.746   6.262  11.781 -0.3655  0.5869 -0.2081
10449TIP3    H152762   4.720   6.305  11.699 -0.8243  0.1763 -0.2887
10449TIP3    H252763   4.730   6.327  11.849 -0.5701  0.7194 -0.3811
10450TIP3   OH252764   2.055   1.497  15.733 -0.5354 -0.3015 -0.1895
10450TIP3    H152765   1.988   1.564  15.747 -0.8068 -0.5128 -0.4510
10450TIP3    H252766   2.135   1.546  15.715 -0.4654 -0.0361  0.7795
10451TIP3   OH252767   2.829   6.333   0.934  0.1591 -0.1039 -0.1690
10451TIP3    H152768   2.773   6.341   1.012  0.0985 -0.8594 -0.1288
10451TIP3    H252769   2.771   6.299   0.866  0.7715 -1.9019  0.1506
10452TIP3   OH252770   5.193   1.196  13.196 -0.3038 -0.1451 -0.4072
10452TIP3    H152771   5.246   1.272  13.172 -0.0120  0.0733  0.8907
10452TIP3    H252772   5.111   1.207  13.148 -0.4006  1.1651  0.0403
10453TIP3   OH252773   0.283   5.921   1.462  0.1119 -0.4012  0.3996
10453TIP3    H152774   0.311   5.993   1.406 -1.1219 -0.4084 -0.2612
10453TIP3    H252775   0.235   5.963   1.533 -0.3202 -0.5286  0.1916
10454TIP3   OH252776   5.900   1.925  17.136  0.2981 -0.0342 -0.9657
10454TIP3    H152777   5.963   1.954  17.201  0.2967  0.5475 -1.2195
10454TIP3    H252778   5.900   1.829  17.143  0.5460  0.0099 -0.3508
10455TIP3   OH252779   4.936   4.275  15.354  0.4091  0.3715 -0.0427
10455TIP3    H152780   5.024   4.310  15.349  0.6903 -0.2880  0.1067
10455TIP3    H252781   4.899   4.314  15.434 -0.8064  3.5993 -1.9808
10456TIP3   OH252782   1.471   4.324   1.233  0.2556 -0.0853 -0.1522
10456TIP3    H152783   1.415   4.264   1.282  0.7514 -0.1660  0.3148
10456TIP3    H252784   1.497   4.390   1.296 -0.0881  0.4987 -0.6061
10457TIP3   OH252785   4.160   4.926   2.154 -0.1479 -0.1543 -0.2780
10457TIP3    H152786   4.210   5.008   2.154 -0.3708 -0.0079  0.3220
10457TIP3    H252787   4.076   4.950   2.194 -0.3894 -0.5732 -0.5303
10458TIP3   OH252788   1.909   4.514   5.177  0.1722  0.6162 -0.3771
10458TIP3    H152789   1.867   4.566   5.107  0.0792 -0.5724 -1.2377
10458TIP3    H252790   1.864   4.540   5.257 -2.8436 -1.1288 -1.3464
10459TIP3   OH252791   0.458   3.190   4.270  0.6311 -0.5845  0.0654
10459TIP3    H152792   0.416   3.227   4.348 -1.8576 -0.1955 -1.3474
10459TIP3    H252793   0.505   3.264   4.231 -0.9555  0.1328 -0.5682
10460TIP3   OH252794   0.908   3.687  12.434  0.3005 -0.6431  0.3878
10460TIP3    H152795   0.816   3.675  12.461  0.2933 -0.5639  0.3975
10460TIP3    H252796   0.905   3.757  12.370  0.5312  0.3199  1.4008
10461TIP3   OH252797   1.695   0.281   3.011 -0.1828  0.1573  0.0921
10461TIP3    H152798   1.625   0.217   2.996  0.8801 -0.7618 -1.1925
10461TIP3    H252799   1.756   0.266   2.939 -0.2182  3.1040 -0.6847
10462TIP3   OH252800   6.502   3.493   3.358  0.1328 -0.5326  0.6124
10462TIP3    H152801   6.478   3.562   3.297 -0.8313  0.9166  2.5227
10462TIP3    H252802   6.597   3.482   3.346  0.0015 -0.1857 -0.9716
10463TIP3   OH252803   4.954   1.865   1.368 -0.6568 -0.0536  0.0602
10463TIP3    H152804   5.021   1.930   1.350 -1.7605  0.6874 -1.5604
10463TIP3    H252805   4.996   1.781   1.349 -0.7838  0.5071 -3.1978
10464TIP3   OH252806   5.117   2.805  12.983  0.3439 -0.3294  0.1611
10464TIP3    H152807   5.115   2.812  12.888 -0.1209  1.9379  0.2853
10464TIP3    H252808   5.083   2.889  13.015 -1.6901 -1.8369  2.3321
10465TIP3   OH252809   6.276   0.398  15.798  0.4872  0.3089 -0.4769
10465TIP3    H152810   6.237   0.313  15.777  3.0369 -1.0881 -0.0565
10465TIP3    H252811   6.316   0.386  15.884  2.6246  1.2185 -1.2477
10466TIP3   OH252812   5.307   5.175  11.595 -0.0848  0.1757  0.4956
10466TIP3    H152813   5.373   5.138  11.537  0.6787  0.7086  1.0023
10466TIP3    H252814   5.306   5.268  11.574 -0.8398  0.1385  0.3436
10467TIP3   OH252815   2.528   5.344   4.233 -0.1679  0.1060  0.2340
10467TIP3    H152816   2.554   5.373   4.320 -1.4907  0.0191  0.6761
10467TIP3    H252817   2.578   5.399   4.173  1.2969 -0.3213  1.0246
10468TIP3   OH252818   0.965   0.354  16.015  0.2406  0.1608  0.4537
10468TIP3    H152819   1.019   0.320  15.943 -1.0143 -0.9185 -0.0072
10468TIP3    H252820   0.999   0.443  16.030 -0.1093  0.8224 -2.1650
10469TIP3   OH252821   4.001   0.090  15.376 -0.2254 -0.2164  1.1456
10469TIP3    H152822   4.077   0.124  15.423  0.0171 -0.0343  0.6313
10469TIP3    H252823   3.945   0.166  15.361  0.7402  0.1826 -0.8014
10470TIP3   OH252824   2.568   2.291  17.172 -0.0251  0.8575  0.1591
10470TIP3    H152825   2.561   2.381  17.142  0.1082  0.8449  0.0882
10470TIP3    H252826   2.511   2.286  17.249  0.7546  1.2623  0.7679
10471TIP3   OH252827   5.245   1.348   4.212  0.5375 -0.3726 -0.4970
10471TIP3    H152828   5.226   1.432   4.254  0.9595 -1.3759  1.8725
10471TIP3    H252829   5.178   1.339   4.144  0.1348  1.5988 -0.4129
10472TIP3   OH252830   4.662   2.047  13.684  0.2801  0.2860 -0.7046
10472TIP3    H152831   4.689   2.006  13.766  0.9003  0.2122 -0.9359
10472TIP3    H252832   4.613   2.125  13.710  2.7180  1.7738 -0.2016
10473TIP3   OH252833   0.980   3.658   5.610  0.0356  0.3613  0.4090
10473TIP3    H152834   1.008   3.666   5.518 -1.7776  1.3343 -0.1007
10473TIP3    H252835   0.965   3.748   5.638 -1.3173 -0.0352  1.0264
10474TIP3   OH252836   5.289   4.098  12.032 -0.0390  0.2154 -0.1866
10474TIP3    H152837   5.249   4.043  11.964 -0.1745  0.3814 -0.2449
10474TIP3    H252838   5.217   4.154  12.062 -0.5681 -1.3362  1.6596
10475TIP3   OH252839   0.620   4.136  12.716  0.2393 -0.0267 -0.1127
10475TIP3    H152840   0.711   4.108  12.717  1.1963  2.5765 -1.9853
10475TIP3    H252841   0.601   4.151  12.623 -1.0837  2.3734  0.4747
10476TIP3   OH252842   6.550   2.887   1.112  0.0871  0.1541 -0.1139
10476TIP3    H152843   6.473   2.935   1.083 -0.4237 -1.4727 -1.6258
10476TIP3    H252844   6.535   2.796   1.084  2.1025 -0.4185  0.4216
10477TIP3   OH252845   1.275   2.527   5.774 -0.2393  0.4941 -0.5671
10477TIP3    H152846   1.317   2.473   5.706  0.2264  0.9408 -0.6398
10477TIP3    H252847   1.344   2.546   5.836 -0.3034  1.3254 -0.7389
10478TIP3   OH252848   6.661   5.848   5.131 -0.0452 -0.1970  0.5653
10478TIP3    H152849   6.664   5.943   5.147 -1.5394 -0.0756  0.2676
10478TIP3    H252850   6.720   5.835   5.056 -1.6305  0.8755 -0.9443
10479TIP3   OH252851   5.152   4.260   2.187  0.1569 -0.6194 -0.3174
10479TIP3    H152852   5.109   4.175   2.198 -0.3951 -0.1848  1.0768
10479TIP3    H252853   5.213   4.265   2.261  0.0713  0.2551 -0.2964
10480TIP3   OH252854   2.759   0.946  12.238  0.2655 -0.0724 -0.4153
10480TIP3    H152855   2.800   0.894  12.307 -0.2220 -0.7857 -0.6448
10480TIP3    H252856   2.736   0.882  12.171  0.4839  0.5768 -1.1160
10481TIP3   OH252857   3.022   2.209  15.518 -0.0637 -0.3572  0.6945
10481TIP3    H152858   3.043   2.181  15.607  3.0117 -1.3918 -0.2280
10481TIP3    H252859   2.927   2.212  15.516 -0.2859 -1.7470  3.5779
10482TIP3   OH252860   2.796   2.213  15.020 -0.0704 -0.2849 -0.6765
10482TIP3    H152861   2.791   2.117  15.017  0.1332 -0.3117 -0.3638
10482TIP3    H252862   2.880   2.233  14.979 -0.4116 -0.1929 -1.3396
10483TIP3   OH252863   5.138   5.973   5.284 -0.0576  0.1313 -0.0693
10483TIP3    H152864   5.134   5.989   5.190  1.2244  0.1873 -0.1346
10483TIP3    H252865   5.095   6.048   5.324 -0.1680  0.3499 -0.5963
10484TIP3   OH252866   2.722   2.271  15.480 -0.3717 -0.1968  0.4643
10484TIP3    H152867   2.635   2.293  15.447  0.1233  0.0020 -0.7807
10484TIP3    H252868   2.714   2.181  15.512 -1.7711  0.7889  3.2390
10485TIP3   OH252869   5.741   2.149  13.958  0.3887 -0.2594 -0.0080
10485TIP3    H152870   5.742   2.080  13.892 -0.6068 -2.5945  2.2607
10485TIP3    H252871   5.797   2.117  14.029 -0.4464  1.0263  1.3124
10486TIP3   OH252872   0.385   2.417   4.733 -0.3026 -0.2730  0.1544
10486TIP3    H152873   0.329   2.488   4.698  0.4314 -0.2203 -0.9804
10486TIP3    H252874   0.456   2.463   4.777 -0.4321 -0.3218  0.4139
10487TIP3   OH252875   6.684   2.369  14.683  0.0818 -0.2244  0.0775
10487TIP3    H152876   6.625   2.443  14.692 -1.9251 -1.8430  0.9209
10487TIP3    H252877   6.730   2.364  14.766 -1.2438 -1.0792  0.7862
10488TIP3   OH252878   6.280   0.581  15.606 -0.4374  0.0839  0.0170
10488TIP3    H152879   6.186   0.595  15.612 -0.0805  3.1267  0.4414
10488TIP3    H252880   6.305   0.548  15.692 -1.0614 -0.6161 -0.0571
10489TIP3   OH252881   3.913   5.245   0.388 -0.1114  0.1761 -0.5977
10489TIP3    H152882   3.921   5.208   0.475  2.0253 -0.8407 -1.1650
10489TIP3    H252883   3.889   5.171   0.332 -0.4358  0.6070 -1.0444
10490TIP3   OH252884   4.945   3.166  11.510  0.2922 -0.6484 -0.3974
10490TIP3    H152885   4.998   3.138  11.585  0.3788  1.3279  0.3471
10490TIP3    H252886   4.918   3.255  11.532 -0.0157 -0.1547 -2.5530
10491TIP3   OH252887   0.695   5.795  16.938  0.3262  0.3692  0.1398
10491TIP3    H152888   0.698   5.733  17.011  0.1188  1.1408  0.8257
10491TIP3    H252889   0.711   5.881  16.979 -1.1522  0.9838 -0.5114
10492TIP3   OH252890   3.964   5.090  13.688  0.3051  0.0081 -1.0363
10492TIP3    H152891   3.959   4.994  13.687 -0.6767  0.0325 -3.1243
10492TIP3    H252892   3.970   5.115  13.596 -0.9705  2.0360 -0.6290
10493TIP3   OH252893   3.297   2.819   4.812 -0.5198 -0.5103  0.2176
10493TIP3    H152894   3.213   2.811   4.766  0.0092  2.8053 -1.6155
10493TIP3    H252895   3.362   2.792   4.747 -0.0181 -1.2077  0.9916
10494TIP3   OH252896   3.466   0.505   5.545 -0.4720 -0.3179  0.6677
10494TIP3    H152897   3.412   0.426   5.556 -0.2496 -0.3744  1.3727
10494TIP3    H252898   3.511   0.515   5.628  1.1049 -0.6366 -0.1183
10495TIP3   OH252899   2.569   1.435  17.096 -0.4548 -0.3578  0.2771
10495TIP3    H152900   2.496   1.449  17.035  0.5574  0.4004 -0.7814
10495TIP3    H252901   2.544   1.356  17.144 -1.9639 -0.1342 -0.0653
10496TIP3   OH252902   6.240   4.113   2.357  0.0080 -0.2218 -0.0378
10496TIP3    H152903   6.169   4.168   2.325  0.2575 -0.3066 -0.7617
10496TIP3    H252904   6.320   4.156   2.326  0.5396  1.5905  3.2854
10497TIP3   OH252905   4.493   5.579   4.696  0.3413  0.1755  0.4643
10497TIP3    H152906   4.548   5.657   4.689  0.3958  0.0988 -0.0210
10497TIP3    H252907   4.548   5.508   4.664  1.0553 -0.4636  2.8799
10498TIP3   OH252908   4.725   6.731   3.641  0.1178 -0.0707  0.2114
10498TIP3    H152909   4.759   6.708   3.727 -1.7599 -0.1993  0.9607
10498TIP3    H252910   4.671   6.808   3.656 -1.5257 -1.0173 -0.5248
10499TIP3   OH252911   5.474   6.473  12.313 -0.1021  0.5123  0.2765
10499TIP3    H152912   5.554   6.430  12.345  0.2842  1.2073  0.2651
10499TIP3    H252913   5.423   6.489  12.392 -0.5569 -0.5503  0.2193
10500TIP3   OH252914   5.318   4.579   1.600  0.5469  0.2753  0.1205
10500TIP3    H152915   5.309   4.589   1.695 -1.5879  3.0705 -0.2362
10500TIP3    H252916   5.251   4.514   1.577 -0.1294  0.8662  0.3793
10501TIP3   OH252917   4.221   2.279   4.073  0.2510 -0.3098 -0.0083
10501TIP3    H152918   4.161   2.261   4.146  0.1549 -1.9259 -0.4407
10501TIP3    H252919   4.168   2.266   3.995  1.0902 -1.6742 -0.3962
10502TIP3   OH252920   2.695   6.756   3.363  0.2797  0.1241 -0.0904
10502TIP3    H152921   2.605   6.723   3.358  0.4305 -0.5625  1.2467
10502TIP3    H252922   2.746   6.697   3.308  0.2564 -0.8758  0.9126
10503TIP3   OH252923   3.077   6.584  16.711 -0.0123 -0.2228 -0.3007
10503TIP3    H152924   3.006   6.643  16.688  0.8505  0.0680 -2.4216
10503TIP3    H252925   3.119   6.563  16.628  1.5323 -1.4926  0.7337
10504TIP3   OH252926   2.547   2.560   2.265 -0.4970  0.2909 -0.2191
10504TIP3    H152927   2.592   2.530   2.344 -1.5737 -0.5675  0.0884
10504TIP3    H252928   2.552   2.486   2.205 -1.7585  0.0668 -0.0667
10505TIP3   OH252929   3.874   4.304   0.809 -0.3935 -0.3037 -0.1539
10505TIP3    H152930   3.957   4.323   0.854  0.2980 -3.0698 -0.0688
10505TIP3    H252931   3.838   4.390   0.788  0.8273  1.0986  2.7958
10506TIP3   OH252932   0.907   5.311   1.501  0.3711 -0.0604  0.2172
10506TIP3    H152933   0.966   5.368   1.551  1.7228 -1.4450  0.2873
10506TIP3    H252934   0.823   5.317   1.546  0.5885  1.5292  0.4587
10507TIP3   OH252935   0.372   2.636  14.550  0.0344  0.3800  0.0641
10507TIP3    H152936   0.460   2.601  14.537 -0.0324  0.6883 -1.4288
10507TIP3    H252937   0.385   2.721  14.592  0.3815 -0.0367  0.8074
10508TIP3   OH252938   5.888   2.072  11.809 -0.1622 -0.4680  0.3419
10508TIP3    H152939   5.823   2.003  11.800 -0.4531 -0.1741  0.1533
10508TIP3    H252940   5.860   2.121  11.887 -1.2101  0.7462 -0.7572
10509TIP3   OH252941   1.166   0.108   2.133 -0.4235  0.8689 -0.1096
10509TIP3    H152942   1.215   0.142   2.208  0.9589 -0.7001 -0.2540
10509TIP3    H252943   1.078   0.093   2.167 -0.0420  1.0076  0.9716
10510TIP3   OH252944   5.755   0.722   3.518 -0.0883 -0.1853  0.1317
10510TIP3    H152945   5.662   0.744   3.505  0.6303  2.4098 -1.2551
10510TIP3    H252946   5.779   0.672   3.439  0.3986  1.9041 -1.1182
10511TIP3   OH252947   1.304   2.089   4.907 -0.0185  0.1779  0.1050
10511TIP3    H152948   1.267   2.076   4.995 -0.5082  1.8167  0.1581
10511TIP3    H252949   1.306   2.001   4.870  0.0100 -0.5340  1.6801
10512TIP3   OH252950   3.818   0.592   0.621 -0.5262  0.8204  0.2242
10512TIP3    H152951   3.744   0.568   0.566 -2.1063  2.5048  1.4923
10512TIP3    H252952   3.861   0.509   0.642 -2.9231 -0.3894  0.6500
10513TIP3   OH252953   4.298   2.286   1.192 -0.1918 -0.0530  0.0847
10513TIP3    H152954   4.355   2.214   1.166  1.2060  0.8482  0.5397
10513TIP3    H252955   4.354   2.363   1.188 -1.8418  1.1592 -1.1229
10514TIP3   OH252956   0.461   0.468   0.657  0.0649 -0.1975  0.2232
10514TIP3    H152957   0.391   0.447   0.596 -0.4704 -3.1359  1.6844
10514TIP3    H252958   0.420   0.466   0.743  1.3215  1.3140  0.9086
10515TIP3   OH252959   5.808   3.149   3.842 -0.1473  0.5701 -0.0049
10515TIP3    H152960   5.788   3.241   3.858  0.1818  0.7326 -0.5047
10515TIP3    H252961   5.870   3.126   3.911 -2.1123  0.0110  1.6604
10516TIP3   OH252962   4.761   5.827  11.599  0.5826  0.0439 -0.1086
10516TIP3    H152963   4.845   5.809  11.557 -0.0051  1.1295 -1.8682
10516TIP3    H252964   4.729   5.907  11.556 -0.3430  0.9227  2.0795
10517TIP3   OH252965   0.606   3.690  14.405  0.4568  0.4847 -0.1243
10517TIP3    H152966   0.646   3.763  14.357  0.5679  0.0586 -0.6919
10517TIP3    H252967   0.563   3.731  14.480 -0.3606  1.2484 -0.9915
10518TIP3   OH252968   5.790   3.413   1.264  0.5601 -0.1335  0.1311
10518TIP3    H152969   5.779   3.329   1.309  0.0332  1.0248  2.3018
10518TIP3    H252970   5.865   3.453   1.308 -0.1609  1.1731  0.2101
10519TIP3   OH252971   2.634   2.852   0.802  0.5281 -0.4916 -0.4648
10519TIP3    H152972   2.583   2.799   0.741  0.1230 -0.5674 -0.0631
10519TIP3    H252973   2.717   2.867   0.757  0.1339 -0.3226 -1.1418
10520TIP3   OH252974   2.945   3.665  13.866 -0.0127  0.1013 -0.2644
10520TIP3    H152975   3.034   3.701  13.870 -0.1172  0.4184 -0.7007
10520TIP3    H252976   2.898   3.712  13.934  0.2952 -0.4833  0.3638
10521TIP3   OH252977   3.014   6.434  13.270 -0.0208 -0.1192  0.4237
10521TIP3    H152978   2.932   6.478  13.292 -0.0970  0.0925 -0.2834
10521TIP3    H252979   3.061   6.495  13.214  0.0885 -0.7297 -0.1617
10522TIP3   OH252980   2.979   3.428  16.930  0.0452 -0.1706  0.1827
10522TIP3    H152981   3.011   3.402  17.016 -1.1051  1.8988  1.3319
10522TIP3    H252982   3.053   3.415  16.871  0.5511 -2.5714  1.2457
10523TIP3   OH252983   4.195   5.341  10.314 -0.2212  0.0260  0.2263
10523TIP3    H152984   4.107   5.356  10.349  0.0359 -0.9699  1.3546
10523TIP3    H252985   4.254   5.358  10.387  0.3644 -1.5374  0.1668
10524TIP3   OH252986   4.535   6.800   4.153  0.1456  0.2256  0.2372
10524TIP3    H152987   4.504   6.857   4.224  0.4158 -0.7392  1.1495
10524TIP3    H252988   4.493   6.716   4.169  0.4590 -0.0984 -0.5747
10525TIP3   OH252989   1.657   1.142  16.514  0.1316 -0.0040  0.4448
10525TIP3    H152990   1.688   1.201  16.582  0.2980  1.3929 -0.7961
10525TIP3    H252991   1.736   1.120  16.464 -0.2861  0.6850 -0.5480
10526TIP3   OH252992   5.274   0.879   3.034  0.0427  0.7856 -0.2717
10526TIP3    H152993   5.303   0.841   2.951  1.7657 -1.2854  1.1379
10526TIP3    H252994   5.222   0.809   3.075  0.5572  1.1338  1.0341
10527TIP3   OH252995   5.295   4.082  13.001 -0.2311 -0.8115  0.4579
10527TIP3    H152996   5.246   4.091  12.920 -0.8969 -0.3093  0.9096
10527TIP3    H252997   5.274   3.994  13.032 -1.0130 -0.5275  0.7514
10528TIP3   OH252998   3.674   3.828  14.902  0.8063 -0.0567 -0.0192
10528TIP3    H152999   3.687   3.818  14.807  0.7218 -0.0839 -0.0279
10528TIP3    H253000   3.657   3.739  14.932 -1.5106  0.2168 -0.3232
10529TIP3   OH253001   2.908   3.189  15.535  0.2409  0.2067 -0.1742
10529TIP3    H153002   2.903   3.192  15.439  0.4823  0.5495 -0.1796
10529TIP3    H253003   2.989   3.236  15.556  0.6044 -0.5663  0.1640
10530TIP3   OH253004   3.700   3.730   3.467 -0.1447 -0.3246  0.0089
10530TIP3    H153005   3.782   3.749   3.422  0.9478 -3.6355  0.3331
10530TIP3    H253006   3.632   3.756   3.404  0.8112  5.1323  0.7843
10531TIP3   OH253007   1.127   0.345  16.539  0.3409  0.0498  0.2776
10531TIP3    H153008   1.155   0.273  16.482  0.5097 -1.0304  1.6881
10531TIP3    H253009   1.191   0.414  16.523  0.9134 -0.5773 -0.1743
10532TIP3   OH253010   0.408   3.927  15.364  0.4489 -0.3210  0.1618
10532TIP3    H153011   0.413   3.957  15.274 -2.7489 -1.7863 -0.6222
10532TIP3    H253012   0.434   3.835  15.360 -0.6692 -0.6616  0.5361
10533TIP3   OH253013   4.981   3.643   1.660 -0.2202 -0.2042 -0.1116
10533TIP3    H153014   4.962   3.595   1.740 -0.5692 -0.0055 -0.0719
10533TIP3    H253015   5.075   3.630   1.645 -0.7478 -3.0344 -1.4883
10534TIP3   OH253016   0.171   6.442   3.901 -0.2869 -0.3602 -0.0467
10534TIP3    H153017   0.202   6.423   3.989 -0.4113 -1.5871 -0.2494
10534TIP3    H253018   0.240   6.409   3.843 -0.8360 -0.8778 -0.4276
10535TIP3   OH253019   4.915   0.942   2.915  0.3657 -0.1879 -0.1579
10535TIP3    H153020   4.821   0.932   2.898  0.3210  0.3396 -0.2530
10535TIP3    H253021   4.921   1.017   2.973  0.7935  0.4333 -0.9765
10536TIP3   OH253022   2.784   0.749  11.165  0.7458  0.0176 -0.4660
10536TIP3    H153023   2.714   0.691  11.196  0.0617  0.8778 -0.3720
10536TIP3    H253024   2.864   0.696  11.174  0.2849 -0.5344  0.6494
10537TIP3   OH253025   2.511   1.044   5.186 -0.1451  0.5476  0.4439
10537TIP3    H153026   2.462   1.061   5.266  0.1548  0.6659  0.6041
10537TIP3    H253027   2.461   1.087   5.117 -0.2994  0.6119  0.5962
10538TIP3   OH253028   0.674   5.948   2.583  0.2040  0.2468  0.3990
10538TIP3    H153029   0.628   5.890   2.522  0.9049 -1.5742  1.5375
10538TIP3    H253030   0.735   5.891   2.630  2.8008  2.3465 -0.1787
10539TIP3   OH253031   4.828   1.050   0.087  0.2154  0.1389 -0.3700
10539TIP3    H153032   4.901   1.092   0.133 -0.1894 -0.2015  0.6070
10539TIP3    H253033   4.858   0.960   0.073 -0.9463 -0.7918  2.3674
10540TIP3   OH253034   5.422   3.251   4.040  0.2126 -0.1189  0.1720
10540TIP3    H153035   5.431   3.347   4.037 -3.7967  0.4485 -3.3412
10540TIP3    H253036   5.434   3.224   3.949  2.0199 -3.2031  1.1930
10541TIP3   OH253037   6.149   6.091  12.733  0.0492  0.2158 -0.1396
10541TIP3    H153038   6.181   6.179  12.755  1.5770 -0.3503  0.0201
10541TIP3    H253039   6.074   6.107  12.676  0.4631  1.6264 -0.3349
10542TIP3   OH253040   5.743   4.902  15.464 -0.7233 -0.6671  0.2451
10542TIP3    H153041   5.761   4.823  15.515 -0.2378 -1.0095 -0.4392
10542TIP3    H253042   5.711   4.870  15.380 -1.5481 -0.1092  0.3282
10543TIP3   OH253043   5.529   1.983  11.611 -0.3381  0.3393 -0.5659
10543TIP3    H153044   5.620   1.954  11.616  0.1761  1.8709 -0.4245
10543TIP3    H253045   5.480   1.905  11.588  0.5132 -1.4496  3.0367
10544TIP3   OH253046   4.805   2.499   0.141 -0.3376 -0.4500  0.1788
10544TIP3    H153047   4.805   2.421   0.085  0.0739  0.7218 -1.5047
10544TIP3    H253048   4.839   2.467   0.225  0.6706 -1.9200 -0.7299
10545TIP3   OH253049   1.081   6.314   2.678 -0.1765  0.3079  0.2996
10545TIP3    H153050   1.001   6.263   2.667 -0.3739  0.7397 -0.3342
10545TIP3    H253051   1.152   6.250   2.673 -0.4141  0.1073 -0.5923
10546TIP3   OH253052   0.654   0.594   3.337  0.6100  0.2176  0.7185
10546TIP3    H153053   0.687   0.622   3.251 -3.1523 -1.8677 -1.6381
10546TIP3    H253054   0.606   0.514   3.320 -1.5299  0.4453  4.5684
10547TIP3   OH253055   4.694   4.940  14.206 -0.8367  0.1427 -0.7295
10547TIP3    H153056   4.630   4.876  14.175 -0.0180 -0.2645 -1.6476
10547TIP3    H253057   4.752   4.954  14.131  1.7075 -1.4390  0.7533
10548TIP3   OH253058   3.367   3.602  11.824 -0.5677 -0.0424 -0.0501
10548TIP3    H153059   3.272   3.607  11.836 -0.8357 -1.4985 -1.2130
10548TIP3    H253060   3.384   3.509  11.812  0.7947  0.3382 -1.3294
10549TIP3   OH253061   5.315   4.332   4.604 -0.6672  0.2646 -0.7845
10549TIP3    H153062   5.264   4.288   4.536 -0.1121 -0.5784 -0.6677
10549TIP3    H253063   5.268   4.413   4.620 -3.3707 -1.4535  0.9314
10550TIP3   OH253064   4.175   2.142  14.037 -0.5613 -0.5486  0.7767
10550TIP3    H153065   4.200   2.197  14.111 -0.7339 -0.2870  0.6422
10550TIP3    H253066   4.179   2.201  13.962  1.3148 -1.2214  0.2952
10551TIP3   OH253067   3.810   1.116  16.101  0.1319 -0.1099 -0.2898
10551TIP3    H153068   3.720   1.093  16.077 -0.1534  0.9104 -0.2482
10551TIP3    H253069   3.825   1.069  16.183 -0.8303  0.7046  0.3792
10552TIP3   OH253070   5.918   3.464   0.079 -0.0193  0.6191  0.1965
10552TIP3    H153071   5.829   3.433   0.099  0.3598 -0.2992  0.5325
10552TIP3    H253072   5.945   3.412   0.004  0.5276  0.3117  0.5971
10553TIP3   OH253073   4.766   4.188   6.480  0.0793  0.0168 -0.3075
10553TIP3    H153074   4.851   4.178   6.437  0.7319 -2.7043  1.3883
10553TIP3    H253075   4.787   4.214   6.570 -0.9683  0.3961 -0.1536
10554TIP3   OH253076   4.087   3.251  17.142  0.4413 -0.2651  0.4169
10554TIP3    H153077   4.057   3.234  17.053  0.1741 -1.7240  0.7470
10554TIP3    H253078   4.026   3.316  17.176  0.9034  0.7329 -0.6415
10555TIP3   OH253079   3.358   5.177  12.090  0.4656 -0.1408 -0.4820
10555TIP3    H153080   3.301   5.254  12.098  0.9463  0.3533 -1.6226
10555TIP3    H253081   3.337   5.124  12.167 -0.3289  0.8276 -0.0034
10556TIP3   OH253082   1.559   1.969  12.461 -0.4292 -0.3216 -0.1721
10556TIP3    H153083   1.580   2.050  12.508  0.0260 -0.2986 -0.4127
10556TIP3    H253084   1.467   1.980  12.436 -0.6195 -0.2517  0.5432
10557TIP3   OH253085   1.689   5.038  11.863 -0.1606 -0.1656  0.3595
10557TIP3    H153086   1.734   5.104  11.810 -0.1731 -0.5791 -0.1786
10557TIP3    H253087   1.596   5.057  11.852 -0.2493 -1.3538 -1.2704
10558TIP3   OH253088   4.497   4.603  16.283 -0.4192 -0.8919  0.1849
10558TIP3    H153089   4.591   4.620  16.296 -0.5551 -0.6446  0.9058
10558TIP3    H253090   4.482   4.619  16.190  0.3227 -1.2607 -0.0048
10559TIP3   OH253091   2.748   6.767   0.284  0.3274  0.2219  0.2682
10559TIP3    H153092   2.783   6.678   0.297  0.7004  0.1220 -1.2483
10559TIP3    H253093   2.663   6.753   0.243  0.0423  0.5546  0.7434
10560TIP3   OH253094   6.417   1.787   0.586 -0.0274  0.5979 -0.6809
10560TIP3    H153095   6.418   1.822   0.497  1.4261  0.5616 -0.6988
10560TIP3    H253096   6.493   1.827   0.629  0.2082 -0.5870  0.0576
10561TIP3   OH253097   2.665   3.383   3.961 -0.2581  0.5290 -0.5738
10561TIP3    H153098   2.703   3.378   4.049  0.3096  0.6689 -0.8119
10561TIP3    H253099   2.639   3.293   3.941  0.6486  0.2990 -0.7237
10562TIP3   OH253100   3.399   5.328  14.465  0.3011  0.4047  0.7442
10562TIP3    H153101   3.428   5.323  14.556  0.3693  1.1699  0.7651
10562TIP3    H253102   3.357   5.243  14.449  0.0202  0.3766  1.5795
10563TIP3   OH253103   2.289   1.266  12.353  0.5258  0.1124 -0.0323
10563TIP3    H153104   2.314   1.182  12.392  0.9829 -0.6948 -1.9351
10563TIP3    H253105   2.372   1.309  12.334  0.3209  0.3596 -0.3779
10564TIP3   OH253106   4.535   6.390  15.320 -0.0285 -0.1364  0.2282
10564TIP3    H153107   4.450   6.367  15.282  0.8378 -1.9578 -0.7656
10564TIP3    H253108   4.527   6.368  15.413 -0.0020 -2.5342 -0.2551
10565TIP3   OH253109   3.617   3.167   1.693  0.1738 -0.4106 -0.4850
10565TIP3    H153110   3.569   3.119   1.760  0.3765  0.4323  0.2745
10565TIP3    H253111   3.709   3.153   1.713  0.3028  2.1700  1.2095
10566TIP3   OH253112   3.306   2.534  15.272  0.2004 -0.4705  0.2260
10566TIP3    H153113   3.375   2.582  15.319  0.5987 -1.3012  0.5017
10566TIP3    H253114   3.249   2.500  15.341  0.0646 -0.6185  0.0414
10567TIP3   OH253115   5.122   4.862   1.681 -0.3126  0.0498 -0.1931
10567TIP3    H153116   5.130   4.957   1.677 -0.7182  0.2045  1.8483
10567TIP3    H253117   5.087   4.837   1.595  2.3925  1.4008 -1.8144
10568TIP3   OH253118   3.354   1.093  15.143  0.9906 -0.0999  0.4800
10568TIP3    H153119   3.364   1.046  15.061  1.7565  0.6761  0.1091
10568TIP3    H253120   3.295   1.166  15.122  0.6047 -0.3079  0.8078
10569TIP3   OH253121   5.031   2.247   3.432 -0.3502 -0.1654 -0.0922
10569TIP3    H153122   5.019   2.206   3.346  2.0102  0.5513 -0.8584
10569TIP3    H253123   5.064   2.334   3.412 -4.1061  1.8387  1.5176
10570TIP3   OH253124   0.516   2.289   0.362 -0.1506 -0.2854 -0.1993
10570TIP3    H153125   0.424   2.318   0.368  0.0136  0.0599  0.9084
10570TIP3    H253126   0.515   2.201   0.398 -0.0998 -0.4073 -0.4969
10571TIP3   OH253127   6.503   2.857  13.091  0.1462  0.1306  0.2504
10571TIP3    H153128   6.459   2.925  13.142  0.4870 -0.2708  1.0960
10571TIP3    H253129   6.479   2.775  13.134  0.7511 -0.1891 -0.0125
10572TIP3   OH253130   1.174   1.072   4.845 -0.3053  0.2639  0.2646
10572TIP3    H153131   1.215   1.157   4.863  0.2522  0.0161  0.1604
10572TIP3    H253132   1.141   1.080   4.756  1.3756 -0.2592 -0.4401
10573TIP3   OH253133   3.192   1.338   3.071  0.1786  0.3543  0.4174
10573TIP3    H153134   3.253   1.265   3.071  0.5334  0.5293  3.5223
10573TIP3    H253135   3.143   1.329   3.152 -2.5233  1.4173 -0.9811
10574TIP3   OH253136   0.883   6.308  15.327 -0.1729  0.5692 -0.4089
10574TIP3    H153137   0.905   6.306  15.420  1.0040  2.0468 -0.6219
10574TIP3    H253138   0.966   6.293  15.282 -0.1092  2.8974 -1.2074
10575TIP3   OH253139   6.032   1.762   3.932 -1.2218 -0.4447 -0.7406
10575TIP3    H153140   6.114   1.785   3.975 -2.1059 -1.9694  1.9763
10575TIP3    H253141   6.043   1.793   3.842  1.4352  1.3564  0.0773
10576TIP3   OH253142   5.939   2.327   0.443  0.2951 -0.9054 -0.0304
10576TIP3    H153143   5.963   2.395   0.380  0.0844 -0.3052  0.5344
10576TIP3    H253144   5.858   2.290   0.409 -0.2385 -0.0501  0.3001
10577TIP3   OH253145   4.109   1.507  12.391 -0.0932  0.2231 -0.3824
10577TIP3    H153146   4.045   1.487  12.323  0.6315 -2.4395 -0.3765
10577TIP3    H253147   4.086   1.595  12.420 -3.3867 -0.4117 -0.7601
10578TIP3   OH253148   2.762   6.193   4.352  0.3339 -0.5665 -0.1941
10578TIP3    H153149   2.734   6.143   4.429 -1.6214  0.2223 -0.3403
10578TIP3    H253150   2.730   6.282   4.368  1.2883 -0.0055 -1.2239
10579TIP3   OH253151   1.381   6.034  11.841  0.3864 -0.0523 -0.1228
10579TIP3    H153152   1.387   6.039  11.746  0.1884 -1.4921 -0.2416
10579TIP3    H253153   1.376   6.125  11.870  0.7085  0.4181 -1.4639
10580TIP3   OH253154   5.952   1.544  15.226 -0.1156 -0.3973  0.0813
10580TIP3    H153155   5.957   1.450  15.241 -0.5245 -0.4727 -0.2473
10580TIP3    H253156   5.870   1.557  15.178 -0.2010  0.1568  0.3688
10581TIP3   OH253157   2.362   3.301   5.689 -0.2675  0.2744 -0.7920
10581TIP3    H153158   2.451   3.270   5.707 -0.1079 -0.7283 -2.9884
10581TIP3    H253159   2.370   3.396   5.691  0.2160  0.2592  1.6453
10582TIP3   OH253160   5.877   5.634  16.370  0.3381 -0.5581 -0.7453
10582TIP3    H153161   5.808   5.614  16.307  0.2310 -1.8184 -0.2428
10582TIP3    H253162   5.845   5.711  16.417 -0.4751 -0.8000 -0.8875
10583TIP3   OH253163   1.876   6.275   0.398 -0.1974 -0.5163  0.7589
10583TIP3    H153164   1.940   6.346   0.393  0.4273 -1.1359 -0.4295
10583TIP3    H253165   1.898   6.228   0.478  1.3750 -1.1857 -0.0169
10584TIP3   OH253166   1.178   3.181  16.077  0.1222 -0.4526  0.7459
10584TIP3    H153167   1.102   3.131  16.109  0.3066 -1.1060  0.1864
10584TIP3    H253168   1.180   3.164  15.983  0.9279 -0.4037  0.7451
10585TIP3   OH253169   0.204   2.854  15.107  0.7481  0.0597  0.2985
10585TIP3    H153170   0.110   2.840  15.115  1.0130 -1.3038  1.3608
10585TIP3    H253171   0.216   2.948  15.124 -0.7329  1.0552 -3.3974
10586TIP3   OH253172   2.529   3.203  15.887  0.3030  0.3338  0.3407
10586TIP3    H153173   2.461   3.145  15.923  0.3828  0.3107  0.4564
10586TIP3    H253174   2.601   3.197  15.950  0.5879  0.0069 -0.0092
10587TIP3   OH253175   4.812   3.495   0.326  0.3068  0.4262  0.2747
10587TIP3    H153176   4.742   3.542   0.281 -1.6309 -1.0695  1.5125
10587TIP3    H253177   4.781   3.490   0.417  1.6002 -1.0799  0.6600
10588TIP3   OH253178   5.373   0.988   5.119  0.2787 -0.0808 -0.0354
10588TIP3    H153179   5.392   1.080   5.101  0.0296 -0.3840 -2.0848
10588TIP3    H253180   5.278   0.982   5.116  0.3220 -0.5405 -0.7683
10589TIP3   OH253181   6.267   6.641   2.083 -0.3044  0.4392  0.0302
10589TIP3    H153182   6.340   6.621   2.025 -2.1093  1.1168 -2.6717
10589TIP3    H253183   6.217   6.708   2.036 -3.3645 -0.9166  1.0974
10590TIP3   OH253184   0.352   4.133   1.528  0.3312 -0.0160 -0.5467
10590TIP3    H153185   0.265   4.100   1.550  0.8769 -0.4082  1.2115
10590TIP3    H253186   0.363   4.211   1.582  0.9589  0.1932 -0.9686
10591TIP3   OH253187   0.586   5.792  15.711  0.3840  0.4993 -0.2330
10591TIP3    H153188   0.604   5.823  15.800 -1.4366 -1.4527  0.8908
10591TIP3    H253189   0.492   5.802  15.700 -0.2661 -3.6339 -0.0357
10592TIP3   OH253190   5.407   3.209   3.221 -0.2090  0.1437  0.1158
10592TIP3    H153191   5.375   3.162   3.144  0.6373 -1.1102  0.5146
10592TIP3    H253192   5.429   3.296   3.188 -1.8243  0.3127 -0.6239
10593TIP3   OH253193   5.591   3.704  11.784  0.2890 -1.0330  0.8396
10593TIP3    H153194   5.518   3.643  11.769 -0.0291 -0.5614  0.4575
10593TIP3    H253195   5.574   3.777  11.725  1.4719 -1.2564  0.1748
10594TIP3   OH253196   1.220   1.245   4.310 -0.3071  0.0395 -0.2516
10594TIP3    H153197   1.236   1.155   4.282 -2.2985 -0.7363  0.9140
10594TIP3    H253198   1.306   1.277   4.338  0.2511 -1.8848  0.3804
10595TIP3   OH253199   2.803   5.392   3.637 -0.0573  0.1574 -0.8198
10595TIP3    H153200   2.893   5.368   3.662  0.2113  1.3137 -0.6141
10595TIP3    H253201   2.800   5.487   3.650 -1.3611  0.1083 -0.6936
10596TIP3   OH253202   4.365   3.329  12.461 -0.4542  0.1791  0.3359
10596TIP3    H153203   4.382   3.242  12.496 -0.4204 -0.7667 -1.8738
10596TIP3    H253204   4.272   3.345  12.481 -1.1236 -1.4066 -1.1959
10597TIP3   OH253205   2.607   5.629  12.751  0.3794  0.6608 -0.3770
10597TIP3    H153206   2.665   5.687  12.701 -1.0260  1.9902 -0.5714
10597TIP3    H253207   2.601   5.669  12.837  0.9173 -0.3166  0.1350
10598TIP3   OH253208   2.865   5.667   0.756  0.1433  0.2519  0.6317
10598TIP3    H153209   2.831   5.602   0.696 -1.5339  1.1682  0.5062
10598TIP3    H253210   2.954   5.639   0.776  0.3387 -0.6784 -1.3713
10599TIP3   OH253211   3.601   3.181   2.600  0.4027 -0.2803  0.1785
10599TIP3    H153212   3.603   3.110   2.535 -3.1141 -0.4243  0.0253
10599TIP3    H253213   3.624   3.138   2.682  3.8684 -0.3100 -0.6454
10600TIP3   OH253214   5.160   0.878   3.782 -0.2891  0.3110 -0.1964
10600TIP3    H153215   5.247   0.891   3.819  1.2186 -1.0591 -3.0002
10600TIP3    H253216   5.131   0.793   3.815  0.6931 -0.5222 -1.3942
10601TIP3   OH253217   5.363   6.579   1.995 -0.4514 -0.8142  0.0383
10601TIP3    H153218   5.318   6.581   1.910 -1.1583  1.0860  0.3994
10601TIP3    H253219   5.455   6.590   1.974 -0.4536 -1.8081 -0.5522
10602TIP3   OH253220   2.672   3.079  17.008  0.0698  0.0709 -0.0308
10602TIP3    H153221   2.744   3.025  16.976  0.3935  0.7514 -0.4792
10602TIP3    H253222   2.644   3.130  16.932  0.3129  1.1289  0.5604
10603TIP3   OH253223   0.198   0.194  13.771  0.1677 -0.4379 -0.8620
10603TIP3    H153224   0.232   0.106  13.759 -1.0199 -0.9455 -0.6159
10603TIP3    H253225   0.235   0.244  13.699  0.5557 -1.2245 -1.2183
10604TIP3   OH253226   0.913   4.900  14.774  0.5386 -0.4793  0.4590
10604TIP3    H153227   0.873   4.927  14.691  2.1447 -0.5483 -0.3873
10604TIP3    H253228   0.958   4.979  14.805  0.9766 -0.7850  0.6092
10605TIP3   OH253229   1.738   2.365  12.967 -0.0460  0.3161 -0.6855
10605TIP3    H153230   1.756   2.417  12.889  0.8713  0.2435 -0.5256
10605TIP3    H253231   1.701   2.428  13.029  1.9238  1.0191 -0.1584
10606TIP3   OH253232   5.436   4.597  15.399 -0.7583  0.5285  1.0751
10606TIP3    H153233   5.424   4.535  15.328  2.1331  0.4454  0.5124
10606TIP3    H253234   5.527   4.626  15.390 -1.0756  2.5029  3.1876
10607TIP3   OH253235   6.384   4.405  15.733  0.4802 -0.2130  0.3215
10607TIP3    H153236   6.442   4.479  15.750  0.5712  0.2600 -1.7545
10607TIP3    H253237   6.442   4.335  15.703  0.2998 -0.8746  1.4529
10608TIP3   OH253238   3.789   5.665   5.376 -0.3771  0.0879  0.0351
10608TIP3    H153239   3.771   5.657   5.282  2.9079  2.0870 -0.9329
10608TIP3    H253240   3.863   5.607   5.391  0.1785  1.0175  1.0056
10609TIP3   OH253241   6.083   5.973  14.802  0.1761 -0.1727  0.0957
10609TIP3    H153242   6.075   6.030  14.725  2.8242 -0.0861 -0.2223
10609TIP3    H253243   6.174   5.944  14.800  0.3191 -0.2374  3.1642
10610TIP3   OH253244   4.753   4.237   2.952 -0.3323  0.7659 -0.2522
10610TIP3    H153245   4.833   4.187   2.933 -0.8510  0.7238 -2.6417
10610TIP3    H253246   4.683   4.172   2.947 -0.6504  1.0644  0.3479
10611TIP3   OH253247   5.197   0.774  16.032  0.2233  0.7900  0.0254
10611TIP3    H153248   5.239   0.781  16.118  1.2892 -0.8604 -0.3202
10611TIP3    H253249   5.237   0.844  15.981  0.4685  1.0199  0.5177
10612TIP3   OH253250   0.667   2.984   0.917  0.5401 -0.0639  0.3763
10612TIP3    H153251   0.725   3.045   0.871 -0.5308 -1.4356 -3.0924
10612TIP3    H253252   0.718   2.904   0.927 -0.0666 -0.6569 -0.9984
10613TIP3   OH253253   5.515   5.191   6.493  0.0154  0.0404 -0.6117
10613TIP3    H153254   5.486   5.280   6.512  0.6683  0.1476 -0.1019
10613TIP3    H253255   5.571   5.199   6.416  2.1910  0.4791  0.9210
10614TIP3   OH253256   5.792   3.896  15.729  0.2221  0.2105 -0.3482
10614TIP3    H153257   5.842   3.819  15.701 -0.0315  0.5114 -1.6774
10614TIP3    H253258   5.833   3.921  15.812  0.4359 -1.2259  0.0080
10615TIP3   OH253259   0.456   1.705   0.811  0.4702  0.4827 -0.6623
10615TIP3    H153260   0.542   1.732   0.845  0.4835  0.4779 -0.6912
10615TIP3    H253261   0.472   1.619   0.771  0.0994 -0.2631  0.7549
10616TIP3   OH253262   5.736   2.748  11.378  0.1326 -0.6782  0.1396
10616TIP3    H153263   5.746   2.772  11.470  1.9603 -1.1199  0.1142
10616TIP3    H253264   5.749   2.653  11.377  1.0943 -0.5627 -0.6541
10617TIP3   OH253265   2.670   2.085  17.007 -0.0345 -0.0356 -0.2488
10617TIP3    H153266   2.747   2.058  17.056 -0.7229 -0.3470  0.6875
10617TIP3    H253267   2.652   2.174  17.037 -0.7771 -0.4225  0.4983
10618TIP3   OH253268   3.837   0.791   0.989 -0.4353  0.3682 -0.0449
10618TIP3    H153269   3.758   0.844   0.998 -1.3799 -1.0842  0.7592
10618TIP3    H253270   3.869   0.808   0.901 -1.6684  0.9507 -0.3893
10619TIP3   OH253271   3.401   5.141   4.018 -0.5402 -0.2349  0.2254
10619TIP3    H153272   3.348   5.125   3.939  0.8391 -0.3618 -0.7228
10619TIP3    H253273   3.375   5.228   4.047 -0.4801  0.1808 -0.8893
10620TIP3   OH253274   1.668   5.538  15.181 -0.0679 -0.0310  0.1154
10620TIP3    H153275   1.679   5.628  15.212  1.4200 -0.6945  1.7191
10620TIP3    H253276   1.687   5.542  15.087 -0.6995  1.4112  0.0222
10621TIP3   OH253277   1.974   0.837  10.586  0.2305 -0.0102 -0.0497
10621TIP3    H153278   1.917   0.910  10.609  0.8350  0.2188  0.7539
10621TIP3    H253279   2.057   0.856  10.630  0.5711 -0.9078 -0.2734
10622TIP3   OH253280   5.424   4.709   5.462  0.2771 -0.4092 -0.0142
10622TIP3    H153281   5.353   4.646   5.447  0.7607 -0.7964 -0.7359
10622TIP3    H253282   5.500   4.668   5.422  0.7568  0.3238  0.1450
10623TIP3   OH253283   6.011   5.772  13.032 -0.3779 -0.2846 -0.1107
10623TIP3    H153284   6.085   5.825  13.061 -0.4218 -1.2677  1.9920
10623TIP3    H253285   5.937   5.801  13.086 -0.9714 -0.8415 -0.6045
10624TIP3   OH253286   5.196   4.704   2.745 -0.0117  0.3729 -0.1361
10624TIP3    H153287   5.118   4.673   2.700  0.2437 -0.6162  0.0551
10624TIP3    H253288   5.182   4.678   2.837  1.4893 -1.9291 -0.4609
10625TIP3   OH253289   3.302   4.884   0.641  0.2743  0.1154 -0.1128
10625TIP3    H153290   3.397   4.882   0.641  0.2661 -0.8340 -0.1410
10625TIP3    H253291   3.279   4.974   0.666  1.1590  0.6659 -1.2165
10626TIP3   OH253292   1.437   6.135   2.088  0.3672  0.5046  0.2984
10626TIP3    H153293   1.376   6.083   2.036 -0.6505  0.7750  1.1947
10626TIP3    H253294   1.447   6.216   2.038  0.2537  0.3276 -0.0158
10627TIP3   OH253295   6.117   0.193  17.082 -0.6582  0.6151  0.3556
10627TIP3    H153296   6.158   0.250  17.017  0.3819  0.6279  0.9973
10627TIP3    H253297   6.073   0.253  17.143 -0.7261  0.6513  0.2709
10628TIP3   OH253298   0.220   2.297   5.952 -0.5056 -0.1703  0.3056
10628TIP3    H153299   0.253   2.387   5.955 -0.2579 -0.2395 -0.1873
10628TIP3    H253300   0.253   2.256   6.032 -1.3905  0.4311  0.9974
10629TIP3   OH253301   0.289   5.259   0.376 -0.0731 -0.7364 -0.1037
10629TIP3    H153302   0.270   5.293   0.464 -0.4483 -0.3475 -0.3281
10629TIP3    H253303   0.214   5.203   0.356  0.4550 -1.5578  0.1885
10630TIP3   OH253304   1.388   4.669   3.967 -0.3146  0.0469  0.5362
10630TIP3    H153305   1.480   4.670   3.940 -0.5689  1.1368 -0.3320
10630TIP3    H253306   1.380   4.588   4.018  1.9223  1.5014  3.5634
10631TIP3   OH253307   5.455   5.629   0.620 -0.2265 -0.6583 -0.6380
10631TIP3    H153308   5.493   5.699   0.567  1.5672  0.3010  1.7454
10631TIP3    H253309   5.398   5.674   0.682 -0.2077 -1.4465 -0.0287
10632TIP3   OH253310   0.690   5.977   1.250  0.2373 -0.1998 -0.0373
10632TIP3    H153311   0.634   5.958   1.175 -0.8232 -0.3496  0.7658
10632TIP3    H253312   0.705   6.072   1.246 -0.5835 -0.0625  0.0790
10633TIP3   OH253313   5.476   5.325  15.879 -0.5564  0.1433  0.7352
10633TIP3    H153314   5.570   5.327  15.899  0.0705  1.8170 -1.7915
10633TIP3    H253315   5.456   5.233  15.867  0.9590 -0.1952  0.5831
10634TIP3   OH253316   0.315   3.743   5.922 -0.3018 -0.2570  0.2523
10634TIP3    H153317   0.369   3.804   5.973 -0.0623  0.3119 -0.6642
10634TIP3    H253318   0.344   3.656   5.950  0.4051  0.0425  0.4739
10635TIP3   OH253319   1.794   3.744   4.094  0.4455  0.1332 -0.3457
10635TIP3    H153320   1.795   3.829   4.137  0.3278 -0.1197  0.1544
10635TIP3    H253321   1.741   3.758   4.015 -0.2476  0.3165  0.1514
10636TIP3   OH253322   3.548   1.288   3.982  0.1808 -0.2162  0.0795
10636TIP3    H153323   3.528   1.377   4.012  1.7347 -0.0563  0.7656
10636TIP3    H253324   3.494   1.231   4.036 -0.2598  0.2704  0.1610
10637TIP3   OH253325   5.733   5.681  14.673 -0.1546  0.3536  0.3393
10637TIP3    H153326   5.666   5.636  14.725 -0.6733  0.4699 -0.2120
10637TIP3    H253327   5.807   5.620  14.670 -0.8054 -0.4196 -0.2984
10638TIP3   OH253328   2.370   3.066  14.037  0.1341  0.3047  0.6246
10638TIP3    H153329   2.314   3.142  14.025  0.0766  0.1347 -0.3199
10638TIP3    H253330   2.384   3.060  14.131 -0.8340  0.7776  0.8072
10639TIP3   OH253331   5.534   0.710  17.084  0.1895 -0.0811 -0.0293
10639TIP3    H153332   5.547   0.791  17.035 -1.4917 -1.3715 -2.8346
10639TIP3    H253333   5.460   0.729  17.142 -1.8950 -0.1897 -2.4696
10640TIP3   OH253334   5.901   5.134  14.669 -0.3453  0.3901  0.4075
10640TIP3    H153335   5.980   5.139  14.616 -0.4331  0.2377  0.2585
10640TIP3    H253336   5.900   5.044  14.701  1.0946  1.1502  2.8373
10641TIP3   OH253337   2.379   4.884  13.431  0.1163 -0.2120  0.3497
10641TIP3    H153338   2.474   4.887  13.437  0.1688  1.0616 -0.7870
10641TIP3    H253339   2.360   4.896  13.338 -1.1928  0.9384  0.7433
10642TIP3   OH253340   3.859   1.953  16.530  0.2890 -0.2499  0.1042
10642TIP3    H153341   3.799   2.025  16.552  1.2253  0.2247  1.1540
10642TIP3    H253342   3.808   1.874  16.549 -1.2050  0.0358 -2.2233
10643TIP3   OH253343   5.847   2.409  12.478 -0.3417  0.4928 -0.7325
10643TIP3    H153344   5.776   2.473  12.469 -1.4274 -0.1037  2.4044
10643TIP3    H253345   5.904   2.445  12.545  0.1828 -0.8508 -0.4246
10644TIP3   OH253346   0.979   5.772  14.422  0.1584 -0.4154 -0.5259
10644TIP3    H153347   0.971   5.769  14.327 -1.6758 -1.2021 -0.3870
10644TIP3    H253348   0.943   5.689  14.452 -2.8855  1.3002  1.0156
10645TIP3   OH253349   2.706   5.545   4.428  0.9681  0.5617  0.0399
10645TIP3    H153350   2.628   5.580   4.470  0.7288  1.0026 -0.7366
10645TIP3    H253351   2.729   5.611   4.362  1.3368 -0.0837 -0.4970
10646TIP3   OH253352   5.494   1.143  11.282 -0.1668  0.5000  0.0132
10646TIP3    H153353   5.548   1.135  11.360 -1.5110  1.3349  1.0680
10646TIP3    H253354   5.423   1.081  11.296 -1.6112  2.2021  0.5121
10647TIP3   OH253355   3.296   6.396  13.907 -0.0215  0.5762  0.0078
10647TIP3    H153356   3.246   6.478  13.908 -0.2747  0.4358 -0.6318
10647TIP3    H253357   3.238   6.333  13.866 -0.4979 -0.3858  2.0373
10648TIP3   OH253358   6.144   6.270  12.406  0.0416 -0.1910  0.0534
10648TIP3    H153359   6.101   6.203  12.458 -0.9070 -1.1171 -1.8329
10648TIP3    H253360   6.092   6.349  12.420 -1.0044 -0.7676 -0.5231
10649TIP3   OH253361   2.869   2.237   5.903  0.4522 -0.3332  0.2610
10649TIP3    H153362   2.829   2.315   5.941 -1.1265  0.3993 -2.6291
10649TIP3    H253363   2.821   2.164   5.941  0.9940  0.1375  1.9262
10650TIP3   OH253364   4.569   2.961   3.711  0.0533  0.4925 -0.2109
10650TIP3    H153365   4.653   2.995   3.741  1.9282 -2.4878 -1.6374
10650TIP3    H253366   4.573   2.966   3.616 -0.5475 -1.4268 -0.3744
10651TIP3   OH253367   5.641   0.607  13.937 -0.4751 -0.2817 -0.1807
10651TIP3    H153368   5.718   0.657  13.963 -0.2757 -1.3293  1.3777
10651TIP3    H253369   5.658   0.582  13.846  1.2161 -0.8289  0.2614
10652TIP3   OH253370   0.801   6.343  13.951 -0.2201 -0.5526 -0.5068
10652TIP3    H153371   0.892   6.324  13.972 -0.2514 -0.1648  0.0172
10652TIP3    H253372   0.790   6.436  13.972 -0.4920 -0.3581 -1.4622
10653TIP3   OH253373   6.456   1.686   4.708 -0.4986 -0.0762  0.0928
10653TIP3    H153374   6.520   1.685   4.638 -1.0076 -0.6729 -0.3725
10653TIP3    H253375   6.461   1.599   4.747 -1.0326 -0.1370  0.0382
10654TIP3   OH253376   0.621   3.335   3.894  0.6219 -0.4857 -0.3398
10654TIP3    H153377   0.662   3.257   3.932  3.4639  1.3938  0.8088
10654TIP3    H253378   0.594   3.387   3.970  0.7758  0.6060 -1.0085
10655TIP3   OH253379   5.757   1.852   5.493  0.2199  0.5382  0.6556
10655TIP3    H153380   5.808   1.819   5.567 -1.0906 -3.2942  0.0898
10655TIP3    H253381   5.684   1.899   5.533 -0.2985 -1.2041  1.8833
10656TIP3   OH253382   4.437   3.865   3.692  0.3651 -0.2686 -0.3864
10656TIP3    H153383   4.372   3.931   3.713  0.4226 -0.7730  1.5257
10656TIP3    H253384   4.461   3.827   3.776 -0.6875 -3.6952 -1.4740
10657TIP3   OH253385   5.320   4.880   4.765  0.3400 -0.1753  0.5927
10657TIP3    H153386   5.356   4.861   4.678 -1.3403 -0.4802 -0.0751
10657TIP3    H253387   5.303   4.974   4.763 -0.6715 -0.3472  0.1664
10658TIP3   OH253388   3.934   4.084   1.093 -0.3243 -0.1047 -0.0716
10658TIP3    H153389   3.867   4.141   1.132 -1.0182 -1.1810  0.3747
10658TIP3    H253390   3.891   4.047   1.016  0.5448  0.8951 -1.0560
10659TIP3   OH253391   3.925   4.619   2.367  0.4873  0.3266  0.3562
10659TIP3    H153392   3.977   4.552   2.411  0.9238  0.9703  0.8622
10659TIP3    H253393   3.837   4.609   2.401  0.3523 -0.5404 -0.2270
10660TIP3   OH253394   4.483   6.562   0.256  0.0910  0.2056 -0.6912
10660TIP3    H153395   4.409   6.615   0.228 -0.4368  0.6061  1.2852
10660TIP3    H253396   4.451   6.472   0.251  0.5181  0.1123 -2.6860
10661TIP3   OH253397   0.971   2.144  16.824  0.0060 -0.1058  0.0788
10661TIP3    H153398   1.041   2.186  16.872 -0.8578 -0.6054  1.8455
10661TIP3    H253399   0.967   2.191  16.741  1.0578  1.2683  0.7750
10662TIP3   OH253400   1.363   0.261   5.696 -0.3604  0.5049 -0.0846
10662TIP3    H153401   1.363   0.221   5.783 -0.2248 -0.8393 -0.6858
10662TIP3    H253402   1.271   0.268   5.673 -0.3697 -0.2393 -0.3083
10663TIP3   OH253403   5.072   5.937   1.697 -0.0115  0.3223  0.0600
10663TIP3    H153404   5.010   5.887   1.643 -0.1426 -0.8478  1.2425
10663TIP3    H253405   5.082   6.020   1.651  1.0929 -1.1768 -2.6144
10664TIP3   OH253406   0.608   5.002  13.859 -0.0039 -0.6677 -0.2762
10664TIP3    H153407   0.602   4.909  13.882 -1.6520 -0.4599  0.2358
10664TIP3    H253408   0.521   5.037  13.877  0.6425  1.0281 -0.2754
10665TIP3   OH253409   4.490   3.697   4.187 -0.3129  0.0768 -0.4680
10665TIP3    H153410   4.408   3.649   4.170 -1.4936  2.1244 -0.9376
10665TIP3    H253411   4.559   3.633   4.168 -1.7593 -1.8693  0.3477
10666TIP3   OH253412   3.320   2.026   5.884 -0.6815  0.3535 -0.3815
10666TIP3    H153413   3.390   2.031   5.820  1.3673 -0.5966  1.6578
10666TIP3    H253414   3.317   2.113   5.924  1.6868 -0.4130  1.7375
10667TIP3   OH253415   0.534   6.169   4.839  0.1028 -0.1302  0.4277
10667TIP3    H153416   0.536   6.073   4.833  2.1306 -0.2895  2.1515
10667TIP3    H253417   0.490   6.186   4.923  1.8118  0.2757  1.2924
10668TIP3   OH253418   5.274   6.727  15.562 -0.7354 -0.0856  0.1920
10668TIP3    H153419   5.332   6.802  15.551  0.8965 -1.4825 -1.4061
10668TIP3    H253420   5.212   6.754  15.630 -0.4832  2.8172 -0.6063
10669TIP3   OH253421   0.465   1.844  11.798  0.5057 -0.7462  0.1573
10669TIP3    H153422   0.434   1.934  11.801 -0.9456 -1.0695 -2.6088
10669TIP3    H253423   0.539   1.846  11.737  2.6300 -0.9643  2.5415
10670TIP3   OH253424   4.211   4.849  15.383 -0.0394 -0.0462 -0.2922
10670TIP3    H153425   4.136   4.803  15.345 -0.8627 -0.6747  1.9079
10670TIP3    H253426   4.188   4.942  15.376  0.2873 -0.0681 -2.1113
10671TIP3   OH253427   4.978   3.699   0.087 -0.0045  0.3795  0.3471
10671TIP3    H153428   4.897   3.702   0.037  0.2906  0.5706 -0.1357
10671TIP3    H253429   5.029   3.629   0.046  0.2612  0.5723  0.3453
10672TIP3   OH253430   2.408   5.991   3.028 -0.2093 -0.7914 -0.0318
10672TIP3    H153431   2.331   5.949   2.991  0.0111 -0.5579 -0.7735
10672TIP3    H253432   2.439   5.929   3.095 -0.2860 -1.4964 -0.6323
10673TIP3   OH253433   5.283   2.483  14.894  0.2518 -0.1906  0.7465
10673TIP3    H153434   5.260   2.480  14.987 -0.0091 -0.0181  0.6888
10673TIP3    H253435   5.375   2.509  14.893 -0.1263  1.2303  0.9162
10674TIP3   OH253436   3.737   6.228  13.688  0.2993  0.0458  0.2657
10674TIP3    H153437   3.736   6.143  13.645  2.1642  0.7252 -1.2478
10674TIP3    H253438   3.647   6.261  13.680 -0.7483 -2.1657  1.8486
10675TIP3   OH253439   6.417   4.378  12.728  0.0152  0.4235 -0.2114
10675TIP3    H153440   6.459   4.452  12.772 -0.0807  0.0421  0.5508
10675TIP3    H253441   6.426   4.397  12.635  2.6271 -0.0167 -0.1355
10676TIP3   OH253442   0.065   3.934  12.970 -0.2482  0.0031  0.5516
10676TIP3    H153443   0.059   3.910  12.878 -0.4783 -1.4773  0.9376
10676TIP3    H253444   0.017   3.866  13.017 -1.1829  1.3783  1.6927
10677TIP3   OH253445   1.381   5.324  14.529 -0.1703  0.1098  0.3876
10677TIP3    H153446   1.378   5.228  14.527 -2.1359  0.1374 -1.8647
10677TIP3    H253447   1.343   5.347  14.614  0.0115 -1.1063  0.8165
10678TIP3   OH253448   3.821   2.609   3.281  0.1943 -0.7592 -0.2234
10678TIP3    H153449   3.771   2.538   3.321 -1.8352 -1.3801 -3.4718
10678TIP3    H253450   3.754   2.672   3.253  1.5725  0.3031 -1.2350
10679TIP3   OH253451   1.937   2.350   4.181 -0.3318 -0.1141 -0.1757
10679TIP3    H153452   1.938   2.325   4.274 -3.0771 -0.0021 -0.0334
10679TIP3    H253453   1.967   2.271   4.135 -0.1191 -0.5854  0.7440
10680TIP3   OH253454   0.157   2.992  13.639  0.0772 -0.8955  0.3898
10680TIP3    H153455   0.066   3.008  13.615 -0.1602  0.2672  1.9161
10680TIP3    H253456   0.169   2.898  13.625 -1.2758 -1.0251 -0.0621
10681TIP3   OH253457   3.509   0.415   2.884 -0.0096  0.3884 -0.4763
10681TIP3    H153458   3.496   0.328   2.921 -1.3926  0.4572 -0.7436
10681TIP3    H253459   3.454   0.472   2.938  1.3587  1.2354  0.1078
10682TIP3   OH253460   2.504   0.718   1.370 -0.7065 -0.4648 -0.1428
10682TIP3    H153461   2.461   0.703   1.285  0.3424 -2.2373 -0.4023
10682TIP3    H253462   2.441   0.772   1.419 -1.7835 -0.2686 -1.6563
10683TIP3   OH253463   1.557   2.737   0.041 -0.6486  0.1424  0.1812
10683TIP3    H153464   1.464   2.712   0.038 -0.6935  0.3942 -2.1894
10683TIP3    H253465   1.604   2.654   0.028 -0.6471  0.3763 -1.4872
10684TIP3   OH253466   5.195   5.842   2.633  0.8382  0.1910 -0.2165
10684TIP3    H153467   5.183   5.754   2.597 -1.6089  0.1277  0.5502
10684TIP3    H253468   5.243   5.828   2.715 -0.4764 -0.6225  0.4593
10685TIP3   OH253469   1.058   6.622  12.285  0.0433 -0.1962  0.0062
10685TIP3    H153470   1.090   6.686  12.349 -1.1789  0.3261  0.1214
10685TIP3    H253471   1.015   6.555  12.338  0.0692 -0.3777 -0.2023
10686TIP3   OH253472   5.483   2.967   1.905  0.5321 -0.2569 -0.0395
10686TIP3    H153473   5.477   2.986   1.812 -0.7775 -0.4286 -0.0142
10686TIP3    H253474   5.426   2.890   1.917  0.0556  0.2433  1.0187
10687TIP3   OH253475   3.543   0.547   1.144 -0.1260  0.4009 -0.0160
10687TIP3    H153476   3.523   0.467   1.193  0.5196  1.3567  1.9295
10687TIP3    H253477   3.459   0.576   1.110 -0.7581  0.1433  1.2670
10688TIP3   OH253478   0.455   4.807   3.728 -0.5084 -0.4486  0.0258
10688TIP3    H153479   0.533   4.759   3.700  1.1266  0.7952  2.1614
10688TIP3    H253480   0.478   4.899   3.716 -1.0527  0.0016  2.0300
10689TIP3   OH253481   1.756   2.101  15.710  0.3262 -0.2370  0.2440
10689TIP3    H153482   1.845   2.135  15.702  0.0058  0.6280  0.2439
10689TIP3    H253483   1.747   2.077  15.802  0.0180  1.2951  0.6533
10690TIP3   OH253484   1.209   5.317   1.861 -0.1704  0.1672 -0.6887
10690TIP3    H153485   1.168   5.234   1.837 -0.2749 -0.3590  1.1903
10690TIP3    H253486   1.165   5.382   1.807 -0.5949 -0.8997 -1.6680
10691TIP3   OH253487   6.304   5.432   3.143 -0.3452 -0.0043  0.0943
10691TIP3    H153488   6.211   5.415   3.128 -0.4149 -0.2940  0.8312
10691TIP3    H253489   6.349   5.381   3.075 -0.6909 -0.4380  0.1859
10692TIP3   OH253490   2.961   0.965  11.329  0.5553 -0.7175 -0.0589
10692TIP3    H153491   3.013   0.894  11.292 -1.1336 -2.0251 -0.0483
10692TIP3    H253492   2.974   0.956  11.424 -0.3796 -1.6289 -0.0029
10693TIP3   OH253493   0.905   6.373  12.135 -0.2582 -0.1287  0.2255
10693TIP3    H153494   0.832   6.431  12.112  1.1793  2.0965  0.9668
10693TIP3    H253495   0.896   6.299  12.075 -3.2100 -0.0662  0.4208
10694TIP3   OH253496   6.748   5.657   5.397 -0.6915 -0.6900 -0.2263
10694TIP3    H153497   6.813   5.727   5.406 -0.1648 -1.0370 -1.1262
10694TIP3    H253498   6.672   5.700   5.359 -0.2595 -0.6407 -1.0683
10695TIP3   OH253499   3.112   3.362   2.575  0.0111  0.2505 -0.3955
10695TIP3    H153500   3.143   3.273   2.592 -1.1804 -0.3303 -1.0992
10695TIP3    H253501   3.063   3.385   2.654 -1.9774 -0.8214 -1.2232
10696TIP3   OH253502   4.049   5.209  16.647  0.3862  0.1165  0.2692
10696TIP3    H153503   4.083   5.122  16.666  0.2513 -0.2624 -1.1257
10696TIP3    H253504   4.114   5.269  16.685  0.5369 -0.5778  1.1413
10697TIP3   OH253505   2.113   2.299  16.401  0.0204  0.3880  0.2710
10697TIP3    H153506   2.104   2.220  16.348  0.9899  0.5067 -0.1007
10697TIP3    H253507   2.084   2.273  16.488  0.0772 -0.3036  0.0898
10698TIP3   OH253508   2.633   4.849   2.554 -0.1976  0.8041 -0.2694
10698TIP3    H153509   2.623   4.764   2.597  1.3036  1.0575  0.6325
10698TIP3    H253510   2.584   4.840   2.472 -3.2768  0.3745  1.4935
10699TIP3   OH253511   5.916   0.311   1.253  0.1696  0.8197  0.3275
10699TIP3    H153512   5.869   0.276   1.328 -0.2906  1.5074  0.3693
10699TIP3    H253513   5.850   0.361   1.205  0.2816 -0.2016 -0.9366
10700TIP3   OH253514   3.630   3.609   4.445  0.0958  0.2226 -0.1508
10700TIP3    H153515   3.564   3.666   4.485  1.0238  0.6633  0.7891
10700TIP3    H253516   3.580   3.534   4.414 -1.2469  1.6857 -1.8057
10701TIP3   OH253517   3.669   0.144   2.532  0.2885  0.0446 -0.5611
10701TIP3    H153518   3.682   0.170   2.441 -0.6965  0.6607 -0.5413
10701TIP3    H253519   3.574   0.134   2.541  0.1314  2.2481  0.9717
10702TIP3   OH253520   4.446   5.716  13.799  0.0740  0.7073 -0.2817
10702TIP3    H153521   4.436   5.690  13.707 -1.8707  0.7709 -0.1227
10702TIP3    H253522   4.530   5.677  13.826 -1.1800 -2.7927 -0.9402
10703TIP3   OH253523   0.966   2.886  10.182 -0.0345 -0.0741 -0.4148
10703TIP3    H153524   0.947   2.819  10.247  0.1567  0.4714  0.2172
10703TIP3    H253525   1.009   2.839  10.111  2.0923 -0.3264  0.9479
10704TIP3   OH253526   2.509   1.455  14.964  0.5028 -0.1107  0.3922
10704TIP3    H153527   2.484   1.450  15.057 -1.0445  1.6053  0.1366
10704TIP3    H253528   2.432   1.424  14.917  0.8067  0.2251 -0.3403
10705TIP3   OH253529   4.283   0.105  14.984  0.4129  0.0702  0.0730
10705TIP3    H153530   4.300   0.193  14.951 -1.4394  0.8085  0.9230
10705TIP3    H253531   4.301   0.111  15.078  0.4669 -0.5200  0.1026
10706TIP3   OH253532   5.598   2.298  15.496 -0.0255  0.6549 -0.6493
10706TIP3    H153533   5.606   2.212  15.455 -1.5353  0.7798 -1.2897
10706TIP3    H253534   5.562   2.354  15.426  1.6898  2.0264 -0.5056
10707TIP3   OH253535   3.111   1.984   0.648  0.0441 -0.9053  0.4082
10707TIP3    H153536   3.140   2.053   0.707 -0.8642  1.0545 -1.3119
10707TIP3    H253537   3.151   2.005   0.564 -0.9712 -1.9577 -0.3832
10708TIP3   OH253538   5.970   0.255   2.538 -0.2345 -0.1863  0.5260
10708TIP3    H153539   6.054   0.290   2.568  0.1871 -0.0302 -0.7786
10708TIP3    H253540   5.945   0.191   2.604  0.5027  0.3595  1.3524
10709TIP3   OH253541   6.284   6.753  12.730 -0.6001  0.2500  0.4825
10709TIP3    H153542   6.297   6.780  12.821 -0.6430  2.3064 -0.0669
10709TIP3    H253543   6.326   6.822  12.678 -0.4591 -0.9474 -1.0664
10710TIP3   OH253544   6.797   0.235  11.172 -0.7766  0.1023 -0.6448
10710TIP3    H153545   6.851   0.312  11.150  1.5951 -1.2029  0.2505
10710TIP3    H253546   6.847   0.190  11.240 -2.4262 -1.9022 -0.6810
10711TIP3   OH253547   6.128   0.977   3.816  0.0910  0.5358  0.1359
10711TIP3    H153548   6.108   0.887   3.787  1.7330 -0.3146  1.4710
10711TIP3    H253549   6.222   0.986   3.800  0.1213  1.6860  0.9126
10712TIP3   OH253550   2.635   2.296  13.155 -0.0884  0.0292  1.0611
10712TIP3    H153551   2.657   2.388  13.167 -1.1179  1.0242 -2.9822
10712TIP3    H253552   2.715   2.257  13.121 -0.6008  0.3959 -0.6803
10713TIP3   OH253553   4.245   5.555  11.467 -0.0414  0.3440  0.1588
10713TIP3    H153554   4.251   5.548  11.562 -0.1510  0.3562  0.1662
10713TIP3    H253555   4.152   5.570  11.449  0.0931  1.1643  0.0969
10714TIP3   OH253556   5.887   2.551   0.299  0.2143 -0.3089  0.2403
10714TIP3    H153557   5.951   2.611   0.261  0.1869  0.4485  1.3546
10714TIP3    H253558   5.805   2.571   0.252  0.4607 -0.2803 -0.1825
10715TIP3   OH253559   3.990   5.826   4.826 -0.3455 -0.7582  0.3145
10715TIP3    H153560   3.996   5.881   4.904 -1.3350 -0.8508  0.4730
10715TIP3    H253561   4.076   5.785   4.818  0.3605  0.6467  0.3087
10716TIP3   OH253562   4.693   4.687   2.581  0.9162  0.4116  0.2845
10716TIP3    H153563   4.638   4.708   2.506 -0.4495 -0.7535  0.9271
10716TIP3    H253564   4.725   4.773   2.612  1.4324  0.9113 -1.5230
10717TIP3   OH253565   6.725   5.832  14.871  0.3844 -0.1709 -0.3606
10717TIP3    H153566   6.815   5.864  14.877 -0.1945  1.9443 -1.8953
10717TIP3    H253567   6.705   5.834  14.778 -2.0018  1.7185  0.1151
10718TIP3   OH253568   0.208   3.142  15.369  0.0673 -0.5268  0.1526
10718TIP3    H153569   0.284   3.150  15.312 -0.6679 -1.8548 -1.1067
10718TIP3    H253570   0.227   3.199  15.443  2.4669 -1.1271  0.0904
10719TIP3   OH253571   4.508   1.394  12.893 -0.0429  0.1286 -0.3145
10719TIP3    H153572   4.488   1.331  12.962  1.3973 -0.0518 -0.0512
10719TIP3    H253573   4.422   1.412  12.853 -0.6166 -1.2902  0.1951
10720TIP3   OH253574   3.014   4.780  14.023 -1.0345 -0.3884 -0.1172
10720TIP3    H153575   3.063   4.814  13.948 -1.2989 -0.7114 -0.4407
10720TIP3    H253576   3.068   4.802  14.099 -1.0830  0.5406 -0.3382
10721TIP3   OH253577   4.906   5.672   3.392  0.0384  0.3426 -0.1136
10721TIP3    H153578   4.916   5.581   3.367  1.1422  0.0564  1.2424
10721TIP3    H253579   4.921   5.721   3.311  0.1327 -0.6425 -0.7055
10722TIP3   OH253580   6.584   1.223   5.143  0.0884  0.2427 -0.2261
10722TIP3    H153581   6.553   1.300   5.097  1.5229  0.5499 -0.7259
10722TIP3    H253582   6.613   1.164   5.073  2.9342  0.9910  0.2033
10723TIP3   OH253583   0.014   0.254   2.914 -0.5217  0.2160 -0.3163
10723TIP3    H153584  -0.054   0.199   2.875 -0.0767  0.1330 -0.9908
10723TIP3    H253585   0.001   0.340   2.873 -0.8488  0.4651  0.3013
10724TIP3   OH253586   5.263   1.769  13.961  0.4965  0.0153  0.2186
10724TIP3    H153587   5.264   1.673  13.952  0.5643 -0.6064  4.6093
10724TIP3    H253588   5.173   1.789  13.987  0.8672  0.9298  0.8122
10725TIP3   OH253589   3.582   3.277   4.942  0.1791 -0.2293 -0.1160
10725TIP3    H153590   3.536   3.335   4.881  0.1585  1.6249  1.5389
10725TIP3    H253591   3.522   3.204   4.956  0.6527 -1.3479 -3.1090
10726TIP3   OH253592   4.409   1.799  11.216 -0.3299 -0.4353  0.1422
10726TIP3    H153593   4.369   1.726  11.263  0.4337 -0.5280  0.6482
10726TIP3    H253594   4.335   1.858  11.199 -0.6992 -0.6093  1.0546
10727TIP3   OH253595   5.748   2.572   0.044  0.2283  0.3968 -0.5907
10727TIP3    H153596   5.775   2.657   0.079 -1.4045 -0.2855  2.6976
10727TIP3    H253597   5.675   2.592  -0.015  0.0546  1.3077 -0.0780
10728TIP3   OH253598   5.398   2.186   4.276  0.3232 -0.8528  0.1565
10728TIP3    H153599   5.422   2.240   4.352  0.9678  0.6740 -1.0856
10728TIP3    H253600   5.310   2.215   4.252 -0.2367 -1.9325  0.7822
10729TIP3   OH253601   1.704   6.178   2.944 -0.7868  0.0979  0.0045
10729TIP3    H153602   1.717   6.125   2.865  1.3022  0.2113  0.2279
10729TIP3    H253603   1.724   6.119   3.016 -1.5291  0.3329  0.4171
10730TIP3   OH253604   1.000   2.041   3.166  0.4113  0.0614 -0.0179
10730TIP3    H153605   0.938   2.113   3.155  0.1722 -0.3007 -1.1690
10730TIP3    H253606   0.979   2.004   3.252 -0.3761  0.5155 -0.0040
10731TIP3   OH253607   1.014   2.274  16.574  0.0801  0.4685  0.0165
10731TIP3    H153608   1.023   2.215  16.499 -2.5692 -1.5562  1.1282
10731TIP3    H253609   1.097   2.265  16.622  0.2143 -1.5044 -0.4866
10732TIP3   OH253610   3.001   2.120  11.434 -0.3232 -0.3686  0.3237
10732TIP3    H153611   2.984   2.052  11.499  0.7567  0.7327  1.8298
10732TIP3    H253612   3.073   2.086  11.382  0.5194 -0.2061  1.3635
10733TIP3   OH253613   5.247   5.223   1.249  0.4800 -0.2934  0.3022
10733TIP3    H153614   5.323   5.198   1.196  1.2075  0.7581  0.7917
10733TIP3    H253615   5.262   5.316   1.268 -0.7900 -0.1532  0.6649
10734TIP3   OH253616   3.796   3.662   1.393  1.1297  0.2962  0.6184
10734TIP3    H153617   3.847   3.743   1.398 -0.2927  1.3819 -1.1198
10734TIP3    H253618   3.837   3.613   1.322  0.2415  0.8824 -0.3432
10735TIP3   OH253619   5.866   4.318   0.624  0.4383  0.3705  0.4606
10735TIP3    H153620   5.871   4.380   0.551  1.7664 -1.0306 -0.7015
10735TIP3    H253621   5.957   4.303   0.649  0.2962 -2.2142 -0.3140
10736TIP3   OH253622   3.389   3.969  11.694 -0.0551  0.1685  0.0446
10736TIP3    H153623   3.324   4.019  11.644 -1.5694 -1.3884  0.3298
10736TIP3    H253624   3.342   3.945  11.774  1.5106  0.5074  1.0933
10737TIP3   OH253625   4.679   1.451  14.767 -0.1178  0.3619 -0.0723
10737TIP3    H153626   4.645   1.534  14.735 -0.7598  0.3954  0.6697
10737TIP3    H253627   4.678   1.460  14.863 -1.1538 -0.8568  0.0532
10738TIP3   OH253628   1.100   5.258  16.190  0.3382 -0.3130  0.2712
10738TIP3    H153629   1.106   5.292  16.101  0.0023  0.2393  0.4603
10738TIP3    H253630   1.124   5.332  16.246  3.2804 -1.3546  0.5607
10739TIP3   OH253631   6.573   2.191   1.144 -0.4551  0.1822 -0.1473
10739TIP3    H153632   6.480   2.194   1.164 -0.5057 -2.9561  0.5967
10739TIP3    H253633   6.613   2.149   1.220  1.5286  1.1380 -0.5976
10740TIP3   OH253634   2.597   6.110  11.655 -0.4344  0.2093 -0.6272
10740TIP3    H153635   2.578   6.131  11.563  1.1040 -0.6391 -1.1806
10740TIP3    H253636   2.681   6.065  11.652 -0.1849  0.4784  1.2588
10741TIP3   OH253637   6.658   3.710  16.043 -0.0646  0.6099  0.3134
10741TIP3    H153638   6.694   3.700  16.131 -1.8652 -0.5982  0.9525
10741TIP3    H253639   6.677   3.802  16.021  1.5466  0.5946  1.3945
10742TIP3   OH253640   0.455   5.619   0.412 -0.4410 -0.3248 -0.0876
10742TIP3    H153641   0.433   5.680   0.341 -2.1517  0.3729  0.9923
10742TIP3    H253642   0.547   5.638   0.431  0.1507 -0.7412 -2.2741
10743TIP3   OH253643   5.994   3.538   1.470 -0.4555 -0.0673 -0.0516
10743TIP3    H153644   6.081   3.499   1.465 -0.3843  0.2142 -1.4078
10743TIP3    H253645   5.958   3.507   1.553  0.7700 -0.5333  0.3198
10744TIP3   OH253646   3.912   3.915  16.439 -0.0305  0.2088  0.1339
10744TIP3    H153647   3.987   3.862  16.412  0.1744  0.2975  0.5242
10744TIP3    H253648   3.836   3.872  16.399  0.0200 -0.9653  1.2415
10745TIP3   OH253649   4.275   1.499   1.176  0.4394  0.1150 -0.9352
10745TIP3    H153650   4.295   1.593   1.172 -0.4951  0.4319  0.7915
10745TIP3    H253651   4.181   1.494   1.154  0.2628 -0.2922 -0.1177
10746TIP3   OH253652   6.240   5.425  16.343  0.4623  0.4937  0.2235
10746TIP3    H153653   6.197   5.483  16.406  0.5796 -1.7419  2.5416
10746TIP3    H253654   6.172   5.362  16.317  1.0507 -0.0906  0.0443
10747TIP3   OH253655   0.094   3.100  13.913  0.1151  0.1270 -0.0727
10747TIP3    H153656   0.135   3.064  13.834  2.4443  1.5624  0.3617
10747TIP3    H253657   0.168   3.134  13.964 -1.4194  0.1568  2.2605
10748TIP3   OH253658   2.238   5.923  16.930  0.0444 -0.0161 -0.5278
10748TIP3    H153659   2.257   6.001  16.878 -1.3456  1.4748  1.1071
10748TIP3    H253660   2.288   5.934  17.011  0.2045 -1.0781 -0.4581
10749TIP3   OH253661   3.562   4.828  15.205 -0.0994  0.2109 -0.2714
10749TIP3    H153662   3.619   4.752  15.219 -0.4211 -0.0443 -0.3394
10749TIP3    H253663   3.603   4.876  15.134  0.6471  0.6302  0.4295
10750TIP3   OH253664   3.535   2.317   4.289  0.1721  0.5042  0.4729
10750TIP3    H153665   3.514   2.311   4.196 -1.2088 -1.0401  0.8323
10750TIP3    H253666   3.603   2.251   4.303 -1.2868 -0.9533  0.9461
10751TIP3   OH253667   3.166   3.532   0.610 -0.2818 -0.2854  0.1922
10751TIP3    H153668   3.181   3.501   0.700 -0.3681 -0.7098  0.0638
10751TIP3    H253669   3.125   3.618   0.621  0.3696 -0.0103  0.5527
10752TIP3   OH253670   3.244   1.845  15.461  1.1261 -0.5953  0.0017
10752TIP3    H153671   3.282   1.875  15.543  1.9699  0.9969 -0.9178
10752TIP3    H253672   3.231   1.925  15.410  0.2108 -1.4988 -1.2449
10753TIP3   OH253673   4.006   6.527   0.675 -0.1064  0.4665  0.0636
10753TIP3    H153674   3.931   6.535   0.733 -0.0658  1.3937 -0.0105
10753TIP3    H253675   3.975   6.559   0.590  0.5870  1.6221  0.2206
10754TIP3   OH253676   3.915   0.864  11.200  0.0594  0.5032  0.0875
10754TIP3    H153677   3.825   0.832  11.210 -0.0271  1.1060  1.5782
10754TIP3    H253678   3.952   0.812  11.129 -0.8953 -1.0562  0.6858
10755TIP3   OH253679   4.549   3.454   3.797  0.3937  0.1199 -0.0254
10755TIP3    H153680   4.633   3.477   3.759 -0.6833  0.8147 -2.1630
10755TIP3    H253681   4.569   3.389   3.864  2.6512  0.6536 -0.1094
10756TIP3   OH253682   1.000   2.350   5.533  0.4973  0.3314 -0.4577
10756TIP3    H153683   0.934   2.415   5.510 -0.3497 -0.2273  0.3394
10756TIP3    H253684   0.985   2.277   5.473 -1.1009 -0.7318  1.1552
10757TIP3   OH253685   0.909   3.352  12.683 -0.5408  0.0259  0.3989
10757TIP3    H153686   0.934   3.341  12.591 -0.3637 -2.5799  0.6629
10757TIP3    H253687   0.992   3.362  12.729 -0.3375 -1.8866  0.5509
10758TIP3   OH253688   6.549   6.483  15.610  0.4216  0.2144 -0.6194
10758TIP3    H153689   6.544   6.428  15.532  1.6875  0.2841 -0.7770
10758TIP3    H253690   6.461   6.518  15.621  0.1662  0.0000 -1.8749
10759TIP3   OH253691   3.534   3.601  12.286 -0.1819 -0.7591  0.3397
10759TIP3    H153692   3.483   3.653  12.347 -0.7382 -1.8279  0.8081
10759TIP3    H253693   3.620   3.643  12.284 -1.3394  1.7587 -1.3138
10760TIP3   OH253694   1.198   5.085  11.264  0.3673 -0.4748  0.6147
10760TIP3    H153695   1.173   5.082  11.356  1.9259 -0.9652  1.0473
10760TIP3    H253696   1.249   5.166  11.256  0.7322 -0.7282  0.3329
10761TIP3   OH253697   2.471   2.657   0.650 -0.2467  0.1839  0.0087
10761TIP3    H153698   2.431   2.729   0.602  0.0795  0.3788  0.0268
10761TIP3    H253699   2.398   2.613   0.693 -0.4260  0.6260  0.1603
10762TIP3   OH253700   2.464   4.094  15.013 -0.4058 -0.2559  0.2006
10762TIP3    H153701   2.513   4.171  15.041  0.5688 -0.7382 -0.1456
10762TIP3    H253702   2.373   4.124  15.009  0.2259  1.7433 -2.6836
10763TIP3   OH253703   3.773   3.431   2.979 -0.3953  0.1978 -0.6865
10763TIP3    H153704   3.812   3.348   2.952 -2.6251 -0.9622 -0.5923
10763TIP3    H253705   3.776   3.485   2.901  1.7142  0.3329 -0.5657
10764TIP3   OH253706   4.470   1.223   0.851 -0.5115 -0.1923  0.1248
10764TIP3    H153707   4.404   1.218   0.783  1.6242  1.7935 -2.2996
10764TIP3    H253708   4.509   1.136   0.854 -1.3524 -0.5956 -0.3833
10765TIP3   OH253709   5.097   5.636  10.530 -0.5862  0.4481  0.1484
10765TIP3    H153710   5.115   5.696  10.603  0.1726 -0.3516  0.6320
10765TIP3    H253711   5.098   5.549  10.570  2.6718 -0.2887 -1.2430
10766TIP3   OH253712   2.761   6.537  13.324 -0.1691  0.5062  0.2708
10766TIP3    H153713   2.699   6.513  13.254 -2.0475  0.0478  1.9943
10766TIP3    H253714   2.768   6.632  13.318 -2.3323  0.7633  0.9803
10767TIP3   OH253715   0.373   1.675   2.346 -0.5037  0.0347  0.0591
10767TIP3    H153716   0.332   1.668   2.433  0.8275 -1.1098  0.6374
10767TIP3    H253717   0.348   1.594   2.302  0.8163 -0.5295  0.3047
10768TIP3   OH253718   5.646   5.521   2.099 -0.0347 -0.8264  0.1141
10768TIP3    H153719   5.575   5.554   2.155  1.9951  2.3542  1.1026
10768TIP3    H253720   5.719   5.507   2.160  0.4760 -3.2663 -0.9696
10769TIP3   OH253721   5.215   3.094  12.197 -0.3447  0.1596 -0.3429
10769TIP3    H153722   5.226   3.166  12.135 -1.2641 -0.3511 -1.1114
10769TIP3    H253723   5.298   3.092  12.245 -0.1529  1.4710 -0.5715
10770TIP3   OH253724   6.446   3.140  11.309  0.1992 -0.3894 -0.1686
10770TIP3    H153725   6.400   3.089  11.243 -0.5483 -0.7611  0.6265
10770TIP3    H253726   6.535   3.104  11.309  0.2918 -0.2061 -1.1381
10771TIP3   OH253727   0.716   0.274  12.542 -0.1063 -0.1315  0.1479
10771TIP3    H153728   0.796   0.271  12.489 -0.3892 -0.7397 -0.2592
10771TIP3    H253729   0.705   0.184  12.574 -0.7774 -0.1284 -0.0431
10772TIP3   OH253730   5.692   0.932  14.734  0.4763  0.1845 -0.5108
10772TIP3    H153731   5.625   0.934  14.665 -0.4472 -3.3154  0.0765
10772TIP3    H253732   5.643   0.941  14.815  1.2591  1.6917 -0.1811
10773TIP3   OH253733   1.780   2.600   5.471  0.3745 -0.3502 -0.3030
10773TIP3    H153734   1.708   2.557   5.426 -0.5080 -0.2503  0.9462
10773TIP3    H253735   1.840   2.626   5.402 -1.8375  1.5543 -1.6830
10774TIP3   OH253736   5.873   0.690  13.775  0.5108 -0.1260  0.4499
10774TIP3    H153737   5.812   0.720  13.708 -1.5653 -0.1253  2.2305
10774TIP3    H253738   5.924   0.768  13.798  0.2082  0.2263 -0.0516
10775TIP3   OH253739   6.355   2.043   0.242  0.4061 -0.3280 -0.5560
10775TIP3    H153740   6.402   2.125   0.256  0.5776 -0.6712  1.1056
10775TIP3    H253741   6.287   2.043   0.309 -1.2558 -0.3916 -2.1594
10776TIP3   OH253742   4.376   0.652  12.552 -0.1654 -0.4810 -0.2292
10776TIP3    H153743   4.416   0.593  12.488  0.4836 -1.7745  1.2987
10776TIP3    H253744   4.448   0.678  12.609 -0.5449  1.4495 -0.5708
10777TIP3   OH253745   2.206   3.105   4.264  0.4890  0.2335  0.3315
10777TIP3    H153746   2.266   3.146   4.201 -0.2180 -0.2384 -0.6917
10777TIP3    H253747   2.147   3.176   4.290  0.6523  0.3830  0.2975
10778TIP3   OH253748   5.819   1.137  17.063  0.3732  0.2209 -0.2953
10778TIP3    H153749   5.736   1.178  17.038  1.4675  1.5053 -2.0986
10778TIP3    H253750   5.795   1.075  17.131 -1.6144  2.9661  1.7679
10779TIP3   OH253751   6.204   2.473  12.170 -0.4308 -0.6035  0.0446
10779TIP3    H153752   6.155   2.465  12.251 -1.1350 -1.0517 -0.4141
10779TIP3    H253753   6.165   2.408  12.112 -1.5151  1.2743 -1.4497
10780TIP3   OH253754   1.402   4.451  13.040  0.4977  0.4853 -0.3486
10780TIP3    H153755   1.405   4.524  12.979  1.9942  1.3287  0.6731
10780TIP3    H253756   1.480   4.461  13.094  0.3814 -1.4819  0.2786
10781TIP3   OH253757   0.690   6.420  14.851  0.2517  0.3281  0.1587
10781TIP3    H153758   0.780   6.442  14.828  0.7919 -1.8531 -0.0664
10781TIP3    H253759   0.687   6.324  14.844 -2.5036  0.4374 -1.3665
10782TIP3   OH253760   4.091   2.826  13.880  0.1688 -0.0926 -0.1235
10782TIP3    H153761   4.083   2.769  13.803 -1.5493  0.1068 -0.1354
10782TIP3    H253762   4.015   2.804  13.934 -0.1126  1.6447  0.2343
10783TIP3   OH253763   0.425   3.821  13.131 -0.2204  0.4712 -0.4905
10783TIP3    H153764   0.340   3.778  13.141 -0.8799  1.4093 -1.7077
10783TIP3    H253765   0.461   3.785  13.050  1.2509 -0.9894  0.7533
10784TIP3   OH253766   5.939   1.402   0.337  0.3114 -0.3968  0.7477
10784TIP3    H153767   5.967   1.399   0.245 -0.9767  0.2915  0.3118
10784TIP3    H253768   5.916   1.312   0.358 -1.0836 -0.2728 -0.1700
10785TIP3   OH253769   5.914   2.504  13.125 -0.0424 -0.1895  0.3617
10785TIP3    H153770   5.889   2.587  13.084  0.1204 -1.4028 -2.4648
10785TIP3    H253771   5.967   2.528  13.200  0.2066  2.2614 -0.5300
10786TIP3   OH253772   6.605   4.973   0.401 -0.5762 -0.3776  0.2172
10786TIP3    H153773   6.610   4.881   0.428 -0.9398 -0.4628  0.0050
10786TIP3    H253774   6.557   4.971   0.318  0.2283 -0.0907 -0.2746
10787TIP3   OH253775   4.865   3.811   5.897 -0.0276  0.1325 -0.2358
10787TIP3    H153776   4.788   3.785   5.846  1.2218  1.0103 -2.7588
10787TIP3    H253777   4.867   3.907   5.891  0.9621  0.1604  0.2554
10788TIP3   OH253778   6.128   3.323   3.934  0.2488  0.4684  0.5572
10788TIP3    H153779   6.129   3.228   3.951 -0.4233  0.4372  0.4387
10788TIP3    H253780   6.072   3.359   4.003  0.5215  0.7836  0.6141
10789TIP3   OH253781   0.329   6.024   5.956  0.2827 -0.5735 -0.6881
10789TIP3    H153782   0.412   6.026   6.003 -1.5538 -1.2004  2.9299
10789TIP3    H253783   0.287   6.107   5.978 -0.8295 -1.0731 -0.8600
10790TIP3   OH253784   4.810   4.043  10.374 -0.2450  0.1982 -0.3843
10790TIP3    H153785   4.870   4.117  10.361  0.0061  0.1214  0.3019
10790TIP3    H253786   4.747   4.074  10.439 -1.5567  0.6216 -1.8123
10791TIP3   OH253787   1.480   3.117   4.469 -0.7708 -0.1260  0.0430
10791TIP3    H153788   1.401   3.165   4.492 -0.6971 -0.4374  0.9499
10791TIP3    H253789   1.522   3.172   4.402 -1.2957  0.4737  0.1956
10792TIP3   OH253790   4.954   0.128   1.529  0.1223  0.2442 -0.1332
10792TIP3    H153791   5.022   0.115   1.462  0.1914  3.5399 -0.8765
10792TIP3    H253792   4.872   0.124   1.481 -0.1589 -1.8041  0.4360
10793TIP3   OH253793   4.761   3.183  12.420  0.0189 -0.2340  0.0920
10793TIP3    H153794   4.747   3.151  12.331  1.2821  0.4313 -0.3708
10793TIP3    H253795   4.852   3.212  12.421 -0.6146  1.9109  0.9264
10794TIP3   OH253796   2.098   3.537   4.450  0.0698 -0.0552 -0.2693
10794TIP3    H153797   2.091   3.561   4.357  1.0591  1.8381  0.0903
10794TIP3    H253798   2.132   3.616   4.492 -1.5748 -0.4291  1.9296
10795TIP3   OH253799   1.361   0.359  14.219  0.2787 -0.1122 -0.6189
10795TIP3    H153800   1.435   0.379  14.277  1.1258 -1.2939 -1.2560
10795TIP3    H253801   1.285   0.397  14.263  0.9591 -0.6299  1.0632
10796TIP3   OH253802   4.499   5.708  13.535 -0.4984 -0.0242 -0.3002
10796TIP3    H153803   4.580   5.754  13.511  0.8904 -1.7932  0.6847
10796TIP3    H253804   4.503   5.626  13.486 -2.6414  0.5941 -1.6074
10797TIP3   OH253805   4.108   4.918  14.007 -0.4143 -0.2809  0.5461
10797TIP3    H153806   4.062   5.001  13.996 -0.7614 -0.5559 -0.0967
10797TIP3    H253807   4.042   4.860  14.046 -0.6149 -0.6669 -0.3497
10798TIP3   OH253808   5.167   5.038   2.015 -0.2792 -0.2431 -0.1833
10798TIP3    H153809   5.193   4.972   1.951  0.1427 -0.3879  0.1387
10798TIP3    H253810   5.225   5.112   1.998 -0.4632 -0.1123 -0.2544
10799TIP3   OH253811   2.799   1.656  12.948 -0.6611 -0.0414  0.3565
10799TIP3    H153812   2.820   1.703  12.867 -0.2058  2.3037  1.7384
10799TIP3    H253813   2.704   1.648  12.947 -0.5483 -2.0989 -1.4124
10800TIP3   OH253814   6.377   4.059   6.183 -0.0387 -0.3906 -0.3311
10800TIP3    H153815   6.454   4.067   6.126 -1.3957  0.5756 -2.1220
10800TIP3    H253816   6.410   4.016   6.262  2.8948  2.1877  0.0599
10801TIP3   OH253817   4.725   1.368   5.403 -0.9793  0.2204  0.7422
10801TIP3    H153818   4.763   1.283   5.426  0.1546 -0.1730 -2.1888
10801TIP3    H253819   4.793   1.431   5.423  0.1253 -0.1516 -1.5586
10802TIP3   OH253820   2.806   6.523   4.260 -0.3118  0.4173 -0.0908
10802TIP3    H153821   2.830   6.507   4.169 -0.4086 -2.5826  0.3372
10802TIP3    H253822   2.744   6.597   4.256 -0.0670  0.5564 -2.3912
10803TIP3   OH253823   2.553   1.542   0.711  0.4867 -0.2898  0.3221
10803TIP3    H153824   2.501   1.620   0.693  1.2558  0.0112 -0.6414
10803TIP3    H253825   2.515   1.475   0.654  1.9049  0.2546 -1.3574
10804TIP3   OH253826   4.949   5.744  14.269  0.3855 -0.4732 -0.4163
10804TIP3    H153827   4.856   5.724  14.279  0.3239 -0.2258 -0.4858
10804TIP3    H253828   4.951   5.817  14.207  0.5482  0.3430  0.5382
10805TIP3   OH253829   6.516   4.899  13.322 -0.3659 -0.5811 -0.2321
10805TIP3    H153830   6.492   4.807  13.331 -0.3026 -0.4202  2.1981
10805TIP3    H253831   6.442   4.940  13.278 -0.7515 -1.6239 -0.5785
10806TIP3   OH253832   6.088   4.011  14.572 -0.0345  0.0377  0.0661
10806TIP3    H153833   6.011   3.973  14.614  0.8332 -1.6421  0.2086
10806TIP3    H253834   6.076   4.106  14.581 -1.1886 -0.2253  1.7027
10807TIP3   OH253835   5.913   5.880  14.367 -0.3725  0.6221 -0.2014
10807TIP3    H153836   5.830   5.841  14.394  0.2155 -0.4305  0.1440
10807TIP3    H253837   5.891   5.934  14.291 -1.4210  0.6177  0.0966
10808TIP3   OH253838   1.187   0.954  10.976 -0.1084 -0.5687 -0.1988
10808TIP3    H153839   1.125   0.926  10.909  0.8438 -0.3415 -1.1979
10808TIP3    H253840   1.268   0.970  10.929  0.5932 -0.4072  1.0126
10809TIP3   OH253841   2.016   6.397   1.565  0.1359 -0.3730  0.4069
10809TIP3    H153842   2.045   6.326   1.508 -0.1660 -1.0720  1.1203
10809TIP3    H253843   2.038   6.368   1.653  0.3070  0.5652  0.6832
10810TIP3   OH253844   4.638   0.486  11.331  0.1484 -0.0662  0.1348
10810TIP3    H153845   4.554   0.479  11.285  1.0713 -1.5562 -1.4557
10810TIP3    H253846   4.639   0.411  11.389  0.1938  0.2115  0.4937
10811TIP3   OH253847   0.750   5.674   0.002  0.2151 -0.0512  0.4388
10811TIP3    H153848   0.801   5.616   0.059 -2.6205  1.4635  5.1640
10811TIP3    H253849   0.669   5.625  -0.014 -0.0092  0.5287 -0.2383
10812TIP3   OH253850   3.097   1.617  13.969  0.6615  0.0376  0.0029
10812TIP3    H153851   3.171   1.644  14.023 -0.7459  1.8875  1.1299
10812TIP3    H253852   3.042   1.566  14.028 -0.4684  1.3483  0.1308
10813TIP3   OH253853   4.683   0.437  12.726 -0.1834  0.1549 -0.8464
10813TIP3    H153854   4.749   0.403  12.785 -1.0595 -0.1205  0.0050
10813TIP3    H253855   4.694   0.386  12.646 -0.4154 -1.0186 -0.1505
10814TIP3   OH253856   0.660   0.360   5.363  0.5677 -0.3614 -0.2480
10814TIP3    H153857   0.618   0.443   5.385  0.2021 -0.7065  0.4029
10814TIP3    H253858   0.618   0.296   5.421  2.3640 -0.6370  0.8456
10815TIP3   OH253859   2.180   0.952  10.773 -0.3098  0.2469 -0.3725
10815TIP3    H153860   2.258   1.004  10.793 -1.4269  1.9806 -0.2886
10815TIP3    H253861   2.214   0.868  10.744  1.5571  0.4824  0.9310
10816TIP3   OH253862   1.169   2.991   0.068  0.0088  0.4012  0.3185
10816TIP3    H153863   1.127   2.969  -0.015  1.2416 -0.5428 -0.0879
10816TIP3    H253864   1.242   3.047   0.044  0.6493 -0.2501  0.7050
10817TIP3   OH253865   2.248   2.426  12.321 -0.2438  0.7559 -0.3947
10817TIP3    H153866   2.173   2.373  12.346 -0.7063  1.4486 -0.2993
10817TIP3    H253867   2.306   2.365  12.274 -1.1143  0.3497 -0.9630
10818TIP3   OH253868   1.471   4.289   2.607  0.2264  0.3685  0.2429
10818TIP3    H153869   1.539   4.347   2.572 -0.6328  1.5515  0.4759
10818TIP3    H253870   1.390   4.321   2.568 -0.1795 -1.3594 -0.4542
10819TIP3   OH253871   0.522   5.114   5.084 -0.4656 -0.6272  0.3697
10819TIP3    H153872   0.534   5.120   5.179 -1.5629  0.7719  0.4552
10819TIP3    H253873   0.599   5.159   5.048 -0.4037 -0.5226  0.6251
10820TIP3   OH253874   5.818   0.133  13.753  0.0167 -0.4693 -0.5026
10820TIP3    H153875   5.819   0.056  13.810 -2.6916  0.1404  0.5384
10820TIP3    H253876   5.756   0.193  13.795  2.3385  2.5069 -1.0329
10821TIP3   OH253877   1.889   5.925  13.178  0.1138 -0.2557 -0.3474
10821TIP3    H153878   1.975   5.948  13.212 -0.2958  0.1899  0.4092
10821TIP3    H253879   1.888   5.829  13.174  0.6889 -0.2549 -0.4964
10822TIP3   OH253880   3.983   6.109   3.771  0.2524  0.0310  0.2732
10822TIP3    H153881   4.014   6.149   3.690 -0.4273  0.0770  0.0280
10822TIP3    H253882   4.046   6.039   3.788  0.5786  0.2201 -0.1249
10823TIP3   OH253883   2.967   2.464  17.032 -0.6928  0.0155  0.3626
10823TIP3    H153884   2.892   2.432  16.981 -0.6151  0.2602  0.0900
10823TIP3    H253885   2.944   2.445  17.123 -0.5017 -1.1203  0.1895
10824TIP3   OH253886   1.907   6.307  14.410 -0.3535 -0.2240 -0.1193
10824TIP3    H153887   1.861   6.265  14.337 -4.0917 -1.0244  2.4117
10824TIP3    H253888   1.910   6.400  14.386 -2.0539 -0.3804 -1.0894
10825TIP3   OH253889   2.065   2.411  15.485 -0.3396 -0.5999  0.1400
10825TIP3    H153890   2.021   2.360  15.417  0.4832 -1.9566  0.5680
10825TIP3    H253891   2.104   2.345  15.543 -1.2970  0.4911  2.1411
10826TIP3   OH253892   3.754   2.331  13.660 -0.1128  0.0687  0.3427
10826TIP3    H153893   3.813   2.405  13.673  1.5111 -1.3418  1.4375
10826TIP3    H253894   3.780   2.294  13.576  1.1344 -0.9754  1.1446
10827TIP3   OH253895   4.028   3.219  16.514 -0.5004  0.1321 -0.1648
10827TIP3    H153896   3.995   3.228  16.425  1.2038 -0.8188 -0.9368
10827TIP3    H253897   4.034   3.125  16.529 -2.2585  0.2188  1.5939
10828TIP3   OH253898   2.847   4.969   1.282  0.4416 -0.3994 -0.1292
10828TIP3    H153899   2.839   4.920   1.200 -1.6292  1.0215 -0.8484
10828TIP3    H253900   2.887   5.052   1.257  2.8450 -1.1546  0.8982
10829TIP3   OH253901   6.742   1.712   2.656  0.1478  0.5278  0.1483
10829TIP3    H153902   6.814   1.775   2.659 -0.4399  1.4416 -2.4613
10829TIP3    H253903   6.785   1.627   2.644  0.8344  1.0801 -1.5694
10830TIP3   OH253904   1.418   0.035   2.046  0.2658  0.2297 -0.6945
10830TIP3    H153905   1.329   0.068   2.059  0.2615  0.5223 -1.3999
10830TIP3    H253906   1.408  -0.061   2.047  0.5451  0.1002  3.1514
10831TIP3   OH253907   0.215   5.529   4.130 -0.2892 -0.4023  0.3057
10831TIP3    H153908   0.254   5.572   4.206 -0.5400  1.4773 -0.5651
10831TIP3    H253909   0.288   5.522   4.067 -0.3895 -0.7644  0.2244
10832TIP3   OH253910   2.378   5.278   1.381  0.8552 -0.1231  0.3022
10832TIP3    H153911   2.473   5.266   1.385  0.8597 -3.0222 -3.5203
10832TIP3    H253912   2.366   5.353   1.322  0.6969  0.8218  1.4965
10833TIP3   OH253913   0.832   1.319  11.683  0.0252 -0.2186  0.6533
10833TIP3    H153914   0.833   1.327  11.779  0.0607  0.1320  0.6225
10833TIP3    H253915   0.823   1.409  11.651  1.9235 -0.1265  0.2955
10834TIP3   OH253916   5.289   6.313  15.477 -0.0397 -0.0503  0.0516
10834TIP3    H153917   5.249   6.300  15.391 -1.7463  1.1211  0.6123
10834TIP3    H253918   5.328   6.228  15.498 -0.5374 -0.6726 -1.4035
10835TIP3   OH253919   0.659   6.238   2.009  0.3044  0.1727  0.4271
10835TIP3    H153920   0.608   6.207   2.083 -2.4989  1.4011 -0.8541
10835TIP3    H253921   0.650   6.170   1.942 -1.6072  1.2872 -0.5586
10836TIP3   OH253922   5.234   2.974  16.282  0.9135 -0.1767  0.2472
10836TIP3    H153923   5.251   2.918  16.207  0.3690 -0.9070  0.6624
10836TIP3    H253924   5.224   3.062  16.244  1.2656 -0.4311 -0.4559
10837TIP3   OH253925   4.275   5.863  12.378  0.7905  0.1258 -0.7804
10837TIP3    H153926   4.342   5.929  12.360 -0.0874  0.8528 -1.4828
10837TIP3    H253927   4.195   5.900  12.342 -0.3175 -0.0781  1.3491
10838TIP3   OH253928   0.089   1.421   5.244 -0.6199 -0.2092 -0.0784
10838TIP3    H153929   0.107   1.466   5.162  0.6052 -2.7816 -1.3360
10838TIP3    H253930   0.168   1.432   5.297 -0.0163 -1.4019 -0.6895
10839TIP3   OH253931   3.620   6.093   3.356  0.4908 -0.3987  0.0212
10839TIP3    H153932   3.562   6.168   3.368 -1.7164 -2.1332  0.8690
10839TIP3    H253933   3.632   6.057   3.444  0.4388 -1.7863 -0.5110
10840TIP3   OH253934   6.309   5.551   0.644  0.1114  0.0490 -0.2808
10840TIP3    H153935   6.219   5.522   0.655 -0.5641  1.6015 -1.4146
10840TIP3    H253936   6.353   5.524   0.725 -1.9797  1.4884  1.4489
10841TIP3   OH253937   0.729   4.809   6.710 -0.0270 -0.2929  0.1739
10841TIP3    H153938   0.709   4.847   6.624  0.6882  1.3636  0.6864
10841TIP3    H253939   0.644   4.782   6.744 -0.3373 -0.8752 -0.9855
10842TIP3   OH253940   2.494   5.329   5.442 -0.3212  0.3162  0.0678
10842TIP3    H153941   2.399   5.342   5.439  0.0012  3.3450 -0.1101
10842TIP3    H253942   2.509   5.253   5.387 -2.5801  0.3224 -0.6650
10843TIP3   OH253943   4.581   2.768   4.547 -0.1477  0.7733  0.3712
10843TIP3    H153944   4.494   2.781   4.509  0.0028  0.0112 -0.2771
10843TIP3    H253945   4.570   2.695   4.607  0.1876  0.1782 -0.2726
10844TIP3   OH253946   1.266   2.386   0.279  0.6704  0.0191 -0.0045
10844TIP3    H153947   1.276   2.336   0.198  0.1102  0.3532 -0.2869
10844TIP3    H253948   1.179   2.424   0.273  0.7460  0.3058  0.6166
10845TIP3   OH253949   3.893   6.404  15.019  0.0298  0.3339 -0.2166
10845TIP3    H153950   3.856   6.374  14.936  0.5603 -0.6263 -0.1133
10845TIP3    H253951   3.857   6.492  15.030 -1.3820 -0.1578 -0.6318
10846TIP3   OH253952   4.824   1.302  11.296  0.1623  0.6798  0.0649
10846TIP3    H153953   4.808   1.215  11.259 -1.3724  0.7993  0.3882
10846TIP3    H253954   4.778   1.302  11.380  1.2996  1.3508  0.7146
10847TIP3   OH253955   5.254   6.532  14.672 -0.4115  0.2839 -0.2124
10847TIP3    H153956   5.172   6.503  14.711 -1.8008  2.6074 -1.1925
10847TIP3    H253957   5.246   6.509  14.579  0.1886  0.2886 -0.2717
10848TIP3   OH253958   5.619   1.241   4.806  0.0403 -0.5473 -0.0639
10848TIP3    H153959   5.707   1.272   4.784  0.1907 -1.0451 -0.1733
10848TIP3    H253960   5.620   1.148   4.785 -0.4746 -0.5855  0.0586
10849TIP3   OH253961   4.718   6.068  11.451  0.2974 -0.2349 -0.6182
10849TIP3    H153962   4.655   6.138  11.434 -0.6948 -0.8393  0.4129
10849TIP3    H253963   4.801   6.113  11.467 -0.1347  0.6477 -0.8227
10850TIP3   OH253964   3.078   2.754   5.826 -0.1844 -0.1954  0.1499
10850TIP3    H153965   3.073   2.660   5.841  0.9445 -0.3729 -0.4501
10850TIP3    H253966   3.003   2.790   5.873 -0.7924 -1.4150  0.1491
10851TIP3   OH253967   3.872   4.537  11.162 -0.6100  0.3846  0.3242
10851TIP3    H153968   3.945   4.486  11.128 -0.4943  2.6164 -3.3116
10851TIP3    H253969   3.808   4.471  11.191 -0.3049 -1.9677 -3.6453
10852TIP3   OH253970   3.644   4.634  15.660  0.3423  0.8223  0.0953
10852TIP3    H153971   3.612   4.719  15.631  0.8053  0.0539 -3.0506
10852TIP3    H253972   3.717   4.654  15.719 -1.7426  2.5267  2.3186
10853TIP3   OH253973   0.941   6.069  16.556 -0.1464 -0.3943 -0.2762
10853TIP3    H153974   0.933   6.004  16.487 -1.3605  2.2892 -2.9006
10853TIP3    H253975   0.850   6.088  16.581  0.1665  0.3934  0.2865
10854TIP3   OH253976   2.212   1.696   4.805 -0.1001  0.3325  0.0930
10854TIP3    H153977   2.126   1.732   4.781  0.9450  2.9402 -0.1054
10854TIP3    H253978   2.212   1.698   4.901 -0.2396  0.3799  0.0934
10855TIP3   OH253979   0.166   0.123   0.484  0.2070  0.3158 -0.1931
10855TIP3    H153980   0.209   0.132   0.399 -0.9987  2.0854 -0.6724
10855TIP3    H253981   0.073   0.115   0.462 -0.2582  2.0680  0.9533
10856TIP3   OH253982   5.951   2.914   6.368  0.3280 -0.1988  0.1488
10856TIP3    H153983   5.927   2.842   6.426 -1.6986  0.1369 -0.1889
10856TIP3    H253984   6.007   2.970   6.421  1.1910 -1.5415  0.7077
10857TIP3   OH253985   6.402   0.694  15.212  0.1418  0.1366 -0.3789
10857TIP3    H153986   6.374   0.603  15.211  0.5593 -0.0002  0.1178
10857TIP3    H253987   6.384   0.724  15.301 -0.9480  0.8476 -0.8133
10858TIP3   OH253988   2.714   0.532  10.463  0.2389  0.1432 -0.0334
10858TIP3    H153989   2.799   0.561  10.429  0.6592 -1.1361 -0.1108
10858TIP3    H253990   2.726   0.439  10.481 -1.7572 -0.5731 -2.0027
10859TIP3   OH253991   1.048   4.841   5.835  0.3168  0.0786  0.1387
10859TIP3    H153992   0.981   4.807   5.775 -0.2912 -1.0267  1.3966
10859TIP3    H253993   1.125   4.856   5.779 -0.2686 -0.7793 -0.9417
10860TIP3   OH253994   2.854   1.836   4.082  0.3095  0.7754 -0.0586
10860TIP3    H153995   2.772   1.866   4.123  0.6526  1.0285  0.4537
10860TIP3    H253996   2.895   1.916   4.050 -0.7910  0.4384 -2.5557
10861TIP3   OH253997   2.551   5.435  17.021 -0.6851 -0.0978  0.3218
10861TIP3    H153998   2.493   5.412  16.948  0.7743 -1.4483 -0.4822
10861TIP3    H253999   2.522   5.380  17.093 -0.2822 -0.9587 -0.1548
10862TIP3   OH254000   3.024   3.505  14.212  0.0423 -0.0205 -0.4072
10862TIP3    H154001   2.989   3.568  14.275 -0.7008 -0.9045  0.0853
10862TIP3    H254002   2.959   3.435  14.209  0.3265 -0.2556 -1.7664
10863TIP3   OH254003   0.395   4.436   2.721  0.1460  0.1749  0.1637
10863TIP3    H154004   0.362   4.385   2.796 -0.7420  1.8267  0.9438
10863TIP3    H254005   0.360   4.391   2.644 -0.5837 -0.4295  0.8272
10864TIP3   OH254006   0.819   3.039   5.781  0.3203  0.1916 -0.4370
10864TIP3    H154007   0.750   3.087   5.826 -0.2916  0.8821 -2.0328
10864TIP3    H254008   0.895   3.046   5.839  0.3696  3.4105 -0.7210
10865TIP3   OH254009   4.556   2.932  12.317  0.9683 -0.3409  0.4168
10865TIP3    H154010   4.569   2.840  12.294  1.4190 -0.6996  2.0254
10865TIP3    H254011   4.633   2.955  12.369  0.9269  1.0082 -0.0732
10866TIP3   OH254012   1.373   5.036   1.268 -0.1356  0.0900 -0.0279
10866TIP3    H154013   1.423   5.038   1.186 -0.5221  1.1972 -0.2461
10866TIP3    H254014   1.342   4.946   1.274  0.6134 -0.2240 -0.6637
10867TIP3   OH254015   4.662   2.575   5.114  0.0852 -0.5270  0.1516
10867TIP3    H154016   4.577   2.585   5.157 -0.1133  2.2791 -0.6710
10867TIP3    H254017   4.667   2.650   5.055  2.6879 -1.2272 -0.6288
10868TIP3   OH254018   4.178   0.638   4.867  0.2764  0.1324  0.0541
10868TIP3    H154019   4.240   0.690   4.816 -0.2567 -0.0908 -0.8375
10868TIP3    H254020   4.117   0.602   4.802 -0.8091  0.3721  0.9065
10869TIP3   OH254021   1.475   3.531   2.792  0.0859 -0.1462 -0.0366
10869TIP3    H154022   1.397   3.491   2.829  0.7547 -1.1401  0.3505
10869TIP3    H254023   1.444   3.612   2.751 -1.3780 -1.2107 -1.1578
10870TIP3   OH254024   0.419   4.691  15.497 -0.0763 -0.3431  0.4819
10870TIP3    H154025   0.338   4.695  15.447 -0.1746 -0.3496  0.6425
10870TIP3    H254026   0.417   4.770  15.552  0.0724 -0.2907  0.4146
10871TIP3   OH254027   4.094   2.059  13.591 -0.3007  0.5675  0.3802
10871TIP3    H154028   4.122   2.140  13.633 -0.9383  0.3681  1.2112
10871TIP3    H254029   4.161   2.043  13.523  1.2550  0.4470  1.8758
10872TIP3   OH254030   2.004   1.703   2.108 -0.6400  0.2373 -0.1480
10872TIP3    H154031   2.077   1.642   2.116 -0.3869  0.6567  0.9433
10872TIP3    H254032   2.015   1.764   2.181 -1.1338  1.3240 -0.9350
10873TIP3   OH254033   1.553   5.050  10.811 -0.1858  0.3421  0.1513
10873TIP3    H154034   1.646   5.035  10.796 -0.0011 -0.5476  1.9324
10873TIP3    H254035   1.512   4.964  10.800 -0.8509  0.7571 -0.7860
10874TIP3   OH254036   1.229   6.598  15.300  0.5906  0.4523 -0.3303
10874TIP3    H154037   1.181   6.531  15.252  0.1173  1.0332 -0.6864
10874TIP3    H254038   1.277   6.550  15.368 -0.2925 -0.1599 -0.1292
10875TIP3   OH254039   6.579   6.096  14.774  0.8027  0.1329  0.3305
10875TIP3    H154040   6.610   6.133  14.857  1.7307 -2.9161  1.4840
10875TIP3    H254041   6.655   6.052  14.737 -0.2342 -0.7306 -0.8705
10876TIP3   OH254042   4.149   5.738  15.602  0.1233 -0.6108  0.1925
10876TIP3    H154043   4.123   5.708  15.690 -1.8783  0.8114  0.1764
10876TIP3    H254044   4.068   5.773  15.565  1.2531  0.1420 -1.6722
10877TIP3   OH254045   1.516   3.594  12.001  0.2301 -0.3899 -0.2147
10877TIP3    H154046   1.554   3.524  11.946  1.1065 -0.9601  1.0756
10877TIP3    H254047   1.422   3.585  11.988  0.4164 -0.0533 -2.1567
10878TIP3   OH254048   3.823   0.689  13.712 -0.0663  0.3814  0.0408
10878TIP3    H154049   3.789   0.677  13.801  0.8723  2.5620  0.7648
10878TIP3    H254050   3.858   0.778  13.712  1.3336 -0.1064 -2.0738
10879TIP3   OH254051   2.164   3.651   3.771 -0.4648 -0.6608  0.5549
10879TIP3    H154052   2.094   3.677   3.711 -1.2506 -1.3609  1.1332
10879TIP3    H254053   2.149   3.703   3.850 -0.6692 -1.2006  0.8781
10880TIP3   OH254054   3.206   6.057   3.743 -0.0751  0.4084  0.7976
10880TIP3    H154055   3.279   6.011   3.701  0.6243  0.5486  1.8092
10880TIP3    H254056   3.248   6.130   3.788 -0.9184  0.8012  0.9479
10881TIP3   OH254057   4.876   4.847  14.398 -0.4192  0.0677 -0.3696
10881TIP3    H154058   4.792   4.858  14.353 -0.9799  1.0841  0.8604
10881TIP3    H254059   4.894   4.933  14.437  0.0664 -0.7529  1.2934
10882TIP3   OH254060   6.751   5.996   1.937 -0.1871  0.7977 -0.3832
10882TIP3    H154061   6.763   6.061   1.868  1.7246  1.7396  0.7523
10882TIP3    H254062   6.747   5.912   1.890 -2.0548  1.6206 -1.8135
10883TIP3   OH254063   4.774   4.955   2.675  0.1258 -0.2488 -0.3575
10883TIP3    H154064   4.738   5.014   2.610 -0.4475 -0.8291 -0.5750
10883TIP3    H254065   4.869   4.960   2.662  0.0715  0.4325 -0.5277
10884TIP3   OH254066   4.874   2.158   2.548 -0.0077 -0.0254  0.0001
10884TIP3    H154067   4.843   2.068   2.538  1.7211 -0.4132 -3.1085
10884TIP3    H254068   4.809   2.210   2.501 -1.5840  0.6218  2.6769
10885TIP3   OH254069   3.300   0.241  13.946  0.2822  0.5025 -0.9644
10885TIP3    H154070   3.277   0.250  13.854  1.7550 -0.6281 -1.4812
10885TIP3    H254071   3.313   0.147  13.959 -0.0410  0.6291  0.4371
10886TIP3   OH254072   0.385   3.170  16.464  0.1009  0.1293  0.5732
10886TIP3    H154073   0.429   3.189  16.381 -1.1653  0.8003  0.0282
10886TIP3    H254074   0.443   3.207  16.531  0.9796 -0.1305 -0.0206
10887TIP3   OH254075   5.012   0.680   5.084 -0.0308  0.4381 -0.4816
10887TIP3    H154076   4.991   0.769   5.111 -2.1290 -0.4751  1.1828
10887TIP3    H254077   5.078   0.650   5.147  0.4241  0.6861 -0.8350
10888TIP3   OH254078   6.169   1.843   5.263 -0.6189  0.1091 -0.0206
10888TIP3    H154079   6.101   1.889   5.214  1.0875  0.7870 -1.8896
10888TIP3    H254080   6.148   1.750   5.251 -0.1347  0.2237 -2.4047
10889TIP3   OH254081   1.364   4.405  13.529  0.6178 -0.3799  0.0216
10889TIP3    H154082   1.398   4.438  13.612 -0.0226  1.0867 -0.2766
10889TIP3    H254083   1.273   4.383  13.548  0.4905 -0.1107 -0.2669
10890TIP3   OH254084   4.162   2.065  15.930 -0.2976  0.0991 -0.3095
10890TIP3    H154085   4.151   2.105  16.016  0.6023  1.1728 -0.6683
10890TIP3    H254086   4.092   2.000  15.924 -2.0067  1.8293  0.1749
10891TIP3   OH254087   6.738   5.400  13.347  0.4870  0.3308 -0.1604
10891TIP3    H154088   6.786   5.387  13.428  2.1254 -2.2529 -1.3912
10891TIP3    H254089   6.678   5.325  13.342 -0.7138  1.2885 -0.6219
10892TIP3   OH254090   4.008   2.645  12.868 -0.1988 -0.4003 -0.0346
10892TIP3    H154091   3.966   2.699  12.802  0.7813 -0.3538 -0.6353
10892TIP3    H254092   4.039   2.707  12.934 -1.2899 -0.4575  0.5486
10893TIP3   OH254093   6.498   4.987   1.289 -0.3955  0.7982 -0.2721
10893TIP3    H154094   6.478   5.064   1.236  1.1593  2.0939  0.9105
10893TIP3    H254095   6.594   4.988   1.297 -0.4785 -0.2633  1.2120
10894TIP3   OH254096   6.433   4.713  13.703 -0.3613  1.0068 -0.3729
10894TIP3    H154097   6.409   4.656  13.630 -2.6567  0.6731  0.5709
10894TIP3    H254098   6.482   4.656  13.762  0.0330  0.8365 -0.8584
10895TIP3   OH254099   2.346   5.815   3.468  0.3292 -0.1035 -0.4531
10895TIP3    H154100   2.275   5.777   3.519 -0.2911  0.7821 -0.6376
10895TIP3    H254101   2.425   5.770   3.499 -0.2871 -0.9786 -0.1329
10896TIP3   OH254102   3.457   0.884  15.601  0.1496  0.5371 -0.0646
10896TIP3    H154103   3.443   0.792  15.577  3.6430  0.2285 -1.4834
10896TIP3    H254104   3.398   0.933  15.543 -2.1598 -0.7422  1.0812
10897TIP3   OH254105   3.763   2.352  12.715  0.9132  0.1981  0.3845
10897TIP3    H154106   3.708   2.430  12.719  0.1578 -0.2918 -0.1725
10897TIP3    H254107   3.753   2.320  12.625  3.3970  0.9931 -0.2316
10898TIP3   OH254108   5.629   5.413   3.861  0.2805 -1.1841 -0.4036
10898TIP3    H154109   5.535   5.427   3.871  0.4528 -1.8399  4.0121
10898TIP3    H254110   5.635   5.329   3.816 -1.3082 -1.6693  0.1903
10899TIP3   OH254111   4.796   0.463   3.564  0.3474 -0.1471 -0.2500
10899TIP3    H154112   4.887   0.472   3.536  0.4438  0.6650  0.2828
10899TIP3    H254113   4.755   0.411   3.495  1.4288 -1.3771 -0.0216
10900TIP3   OH254114   0.689   1.155  13.105 -0.4875 -0.5252  0.1542
10900TIP3    H154115   0.736   1.227  13.148 -0.3390 -0.8951  0.6298
10900TIP3    H254116   0.620   1.197  13.055 -0.2732 -0.0377  0.2629
10901TIP3   OH254117   3.846   5.506   3.874 -0.4026  0.1089 -0.1048
10901TIP3    H154118   3.773   5.543   3.923 -1.8568 -1.4370 -1.0019
10901TIP3    H254119   3.805   5.454   3.804  1.5585 -0.1404 -1.1603
10902TIP3   OH254120   1.534   3.176  11.277 -0.3471  0.3900 -0.4890
10902TIP3    H154121   1.618   3.132  11.270  0.1981  1.5262 -1.2814
10902TIP3    H254122   1.487   3.152  11.197 -1.0157 -0.6437  0.1704
10903TIP3   OH254123   1.490   1.668   5.509 -0.0312 -0.6658  0.0072
10903TIP3    H154124   1.438   1.693   5.433  1.8034 -2.1611 -1.8409
10903TIP3    H254125   1.530   1.750   5.539 -0.3008 -0.1428 -1.0240
10904TIP3   OH254126   0.983   4.239   4.640 -0.1544  0.2541  0.1617
10904TIP3    H154127   0.925   4.257   4.566 -1.2757  0.2089  1.0028
10904TIP3    H254128   1.003   4.326   4.676 -0.2690  0.2349  0.2764
10905TIP3   OH254129   5.030   3.041   4.925 -0.4412 -0.4647 -0.2206
10905TIP3    H154130   5.073   3.079   4.848 -0.9007  0.4106 -0.0597
10905TIP3    H254131   5.095   3.046   4.994 -1.0833  1.8543  0.3099
10906TIP3   OH254132   4.767   5.444  14.094 -1.0390 -0.5302  0.0642
10906TIP3    H154133   4.735   5.523  14.050 -0.4851 -0.3728 -0.0656
10906TIP3    H254134   4.778   5.470  14.186  0.8004  0.0771 -0.2815
10907TIP3   OH254135   4.913   0.480  11.837  0.0991  0.5670  0.5458
10907TIP3    H154136   4.885   0.411  11.777  1.3458 -1.7551  2.4443
10907TIP3    H254137   4.954   0.545  11.781 -3.0952  0.9644 -1.5805
10908TIP3   OH254138   4.221   3.601  13.414  0.0776 -0.4081  0.1151
10908TIP3    H154139   4.282   3.528  13.415  0.9210  0.2688 -0.1166
10908TIP3    H254140   4.273   3.676  13.443 -0.4270  0.3381 -0.8169
10909TIP3   OH254141   2.986   1.370  10.266 -0.3746 -0.1187  0.3840
10909TIP3    H154142   2.919   1.325  10.214  0.1875  1.4766 -1.9244
10909TIP3    H254143   3.060   1.309  10.268 -0.7196 -0.5536 -0.0108
10910TIP3   OH254144   3.865   5.699  12.326 -0.7098 -0.1908 -0.2991
10910TIP3    H154145   3.957   5.687  12.350 -1.0600 -0.5112  0.9947
10910TIP3    H254146   3.838   5.778  12.372 -1.5193 -1.0496  0.7611
10911TIP3   OH254147   4.457   5.765   6.628 -0.4294  0.1429  0.2162
10911TIP3    H154148   4.369   5.745   6.659 -0.5059 -0.3168 -0.2749
10911TIP3    H254149   4.455   5.744   6.534 -0.3021  1.8011 -0.1878
10912TIP3   OH254150   4.334   2.962  16.175  0.6598 -0.2597 -0.0593
10912TIP3    H154151   4.351   2.944  16.083 -0.9839  0.6315 -0.5705
10912TIP3    H254152   4.303   2.878  16.210 -0.0096 -0.2641 -0.6502
10913TIP3   OH254153   1.171   4.622  14.332 -0.4984 -0.2730 -0.7596
10913TIP3    H154154   1.116   4.608  14.409  0.8296 -1.7248 -0.0153
10913TIP3    H254155   1.135   4.562  14.266 -0.8157 -0.0092 -0.8268
10914TIP3   OH254156   3.702   1.815  14.437 -0.3414  0.1607  0.1018
10914TIP3    H154157   3.766   1.878  14.405  0.1939  0.4367  1.6398
10914TIP3    H254158   3.752   1.754  14.490 -0.6673 -2.2516 -2.1882
10915TIP3   OH254159   6.206   0.133   3.541  0.1593 -0.4065 -0.5725
10915TIP3    H154160   6.212   0.199   3.611 -1.4957 -1.0948  0.2701
10915TIP3    H254161   6.163   0.059   3.582  2.2094 -2.1747 -1.4224
10916TIP3   OH254162   1.780   5.916   3.434 -0.3014 -0.1839 -0.2022
10916TIP3    H154163   1.730   5.883   3.359 -0.9641  0.4516 -0.0474
10916TIP3    H254164   1.863   5.868   3.430 -0.8287 -1.0871 -0.5974
10917TIP3   OH254165   4.640   5.273   1.400  0.0749  0.0736 -0.2622
10917TIP3    H154166   4.630   5.270   1.305 -1.2007 -1.0133 -0.1311
10917TIP3    H254167   4.640   5.181   1.427 -1.0542  0.3721  0.8950
10918TIP3   OH254168   3.554   1.648  12.265 -0.4157 -0.0881  0.7729
10918TIP3    H154169   3.587   1.644  12.355 -1.0704 -1.4854  0.9836
10918TIP3    H254170   3.477   1.592  12.266 -0.1115 -0.5739 -0.7975
10919TIP3   OH254171   6.353   0.150   6.089 -0.3188  0.2199  0.6381
10919TIP3    H154172   6.372   0.238   6.057  0.9951 -0.0887  0.4785
10919TIP3    H254173   6.371   0.093   6.014 -1.3543 -0.1785  0.6771
10920TIP3   OH254174   0.389   2.903   4.625 -0.2317  0.6952  0.2591
10920TIP3    H154175   0.370   2.820   4.668  0.5840  0.3835  0.0374
10920TIP3    H254176   0.359   2.890   4.535  1.0954  0.1615 -0.1221
10921TIP3   OH254177   4.633   1.909  12.485 -0.3717 -0.6811 -0.2862
10921TIP3    H154178   4.645   2.003  12.495 -3.3864 -0.1346 -0.6782
10921TIP3    H254179   4.641   1.893  12.391 -0.5985 -0.6759 -0.3067
10922TIP3   OH254180   5.857   4.518   3.415  0.0941  0.1163  0.4336
10922TIP3    H154181   5.931   4.471   3.377  0.6094  0.1068  1.4049
10922TIP3    H254182   5.780   4.467   3.389  0.3557  0.4727 -1.1163
10923TIP3   OH254183   5.972   3.740   6.525 -0.2064  0.2241  0.5167
10923TIP3    H154184   5.919   3.680   6.472 -0.6578 -0.3615  1.6014
10923TIP3    H254185   6.062   3.723   6.497 -0.3209 -0.9869  0.8084
10924TIP3   OH254186   5.887   5.230   5.313 -0.1807  0.5199 -0.7056
10924TIP3    H154187   5.837   5.195   5.239  0.0507  0.5947 -0.9000
10924TIP3    H254188   5.859   5.178   5.388 -0.7304  0.7233 -0.7664
10925TIP3   OH254189   6.287   0.313  15.491  0.2906 -0.3728  0.3817
10925TIP3    H154190   6.319   0.347  15.408  0.4182 -0.8255  0.2434
10925TIP3    H254191   6.278   0.391  15.547 -0.6813  0.0586 -0.3430
10926TIP3   OH254192   2.104   1.751  15.039 -0.3635 -0.1387  0.6255
10926TIP3    H154193   2.161   1.749  14.962 -1.0900  0.6655  0.0598
10926TIP3    H254194   2.083   1.844  15.051 -3.8552 -0.5943 -0.8983
10927TIP3   OH254195   4.557   6.192   1.232  0.1875  0.0596  0.1623
10927TIP3    H154196   4.514   6.277   1.228  1.3356  0.7324  1.3100
10927TIP3    H254197   4.491   6.134   1.270 -0.6618  0.3746 -0.7896
10928TIP3   OH254198   3.964   6.659   4.273 -0.4255  0.6560 -0.2729
10928TIP3    H154199   4.040   6.663   4.215 -0.7622 -0.2545 -0.7871
10928TIP3    H254200   3.977   6.579   4.324 -0.8683  0.6707 -0.1303
10929TIP3   OH254201   5.850   1.834  14.287  0.2781 -0.0546 -0.0517
10929TIP3    H154202   5.869   1.896  14.357 -1.2141 -0.3114  0.6304
10929TIP3    H254203   5.868   1.882  14.207 -0.6568  1.2294  0.4690
10930TIP3   OH254204   2.175   0.496   1.647  0.7607 -0.2541  0.1536
10930TIP3    H154205   2.233   0.431   1.687  1.8713  0.3668 -0.4047
10930TIP3    H254206   2.146   0.455   1.565  0.5535 -0.4778  0.3333
10931TIP3   OH254207   0.819   3.525   3.778 -0.0226  0.1065  0.0896
10931TIP3    H154208   0.770   3.488   3.852  0.8640 -1.9242 -0.2583
10931TIP3    H254209   0.898   3.561   3.819  1.2837 -2.4907  0.0981
10932TIP3   OH254210   1.455   4.794  12.065  0.5290  0.6989  0.2349
10932TIP3    H154211   1.533   4.786  12.009  1.6482  0.7319  1.7113
10932TIP3    H254212   1.464   4.881  12.104 -0.0139  0.5177  0.7663
10933TIP3   OH254213   1.990   2.419   3.831  0.0406  0.3449 -0.0308
10933TIP3    H154214   2.056   2.427   3.762  0.0220  2.4458  0.1294
10933TIP3    H254215   2.033   2.365   3.898  0.2062 -1.3720 -1.4424
10934TIP3   OH254216   0.453   0.926  11.583  0.3027  0.0509  0.3102
10934TIP3    H154217   0.539   0.943  11.544  1.1648 -2.5733  0.9017
10934TIP3    H254218   0.450   0.831  11.594 -2.3862  0.1512  1.0323
10935TIP3   OH254219   1.368   0.495  13.484 -0.4084 -0.3923  0.3627
10935TIP3    H154220   1.406   0.583  13.488 -1.5338  0.0674  3.1989
10935TIP3    H254221   1.275   0.511  13.468 -0.9367 -0.8562  2.5746
10936TIP3   OH254222   2.661   4.672   5.234  0.2856 -0.0655  0.2608
10936TIP3    H154223   2.577   4.627   5.225  1.0342 -1.2661 -1.1066
10936TIP3    H254224   2.674   4.717   5.151  1.4300 -0.6847  0.0814
10937TIP3   OH254225   1.307   2.257  12.640 -0.4746 -0.1536 -0.7849
10937TIP3    H154226   1.257   2.318  12.693  0.6450 -0.4586  0.6892
10937TIP3    H254227   1.274   2.171  12.665  0.0099 -0.2936 -0.6184
10938TIP3   OH254228   0.959   4.103   1.312 -0.0435 -1.0122  0.3952
10938TIP3    H154229   0.885   4.131   1.258  0.1780  0.1073  0.6437
10938TIP3    H254230   1.027   4.078   1.250 -0.0913 -0.5590  0.1584
10939TIP3   OH254231   5.774   4.347  11.756 -0.1105  0.3730  0.6715
10939TIP3    H154232   5.787   4.393  11.674  1.4381  0.8789  1.1616
10939TIP3    H254233   5.689   4.304  11.747 -0.9771  2.1986 -0.3211
10940TIP3   OH254234   3.248   4.779  12.747 -0.1197 -0.2988  0.1456
10940TIP3    H154235   3.258   4.725  12.825 -1.7800  0.5550  1.0043
10940TIP3    H254236   3.154   4.791  12.738  0.1545  1.9731 -0.3210
10941TIP3   OH254237   2.701   4.198  12.943  0.6933  0.1026  0.1714
10941TIP3    H154238   2.695   4.131  12.875 -1.6746  0.9645 -0.5714
10941TIP3    H254239   2.794   4.221  12.946  1.5353 -2.8877  0.2215
10942TIP3   OH254240   6.484   0.271  11.871  0.2368 -0.6577 -0.2694
10942TIP3    H154241   6.503   0.296  11.781  0.3625  0.4129  0.0398
10942TIP3    H254242   6.480   0.354  11.919  0.6709 -1.2312  0.8043
10943TIP3   OH254243   5.895   1.302   4.418  0.2800  0.5866 -0.5797
10943TIP3    H154244   5.857   1.298   4.330 -1.0355 -0.2450 -0.0014
10943TIP3    H254245   5.942   1.386   4.419 -1.2613  1.5208 -1.4616
10944TIP3   OH254246   2.475   1.321  14.550 -0.6020  0.0080  0.6349
10944TIP3    H154247   2.426   1.292  14.627 -0.3741 -1.5173  0.2304
10944TIP3    H254248   2.429   1.399  14.520 -2.0097 -0.6585  1.0066
10945TIP3   OH254249   5.155   6.802  17.033  0.2246  0.2853 -0.5061
10945TIP3    H154250   5.090   6.759  17.088  0.7528 -0.2765 -0.3092
10945TIP3    H254251   5.162   6.746  16.955 -0.5640  1.1057 -1.1899
10946TIP3   OH254252   3.190   5.368   2.951  0.6036 -0.5276  0.2915
10946TIP3    H154253   3.142   5.451   2.941  0.0488 -0.9309 -0.5207
10946TIP3    H254254   3.134   5.303   2.908  1.3023 -1.2249  0.4210
10947TIP3   OH254255   1.310   1.716  13.448  0.2465 -0.3306  0.3253
10947TIP3    H154256   1.324   1.629  13.485 -0.5700 -0.1812  1.0339
10947TIP3    H254257   1.231   1.706  13.395 -0.8069  0.3227  1.7046
10948TIP3   OH254258   4.769   4.126   5.246 -0.2744 -0.4924 -0.9475
10948TIP3    H154259   4.686   4.172   5.234 -0.2404 -0.7623 -2.4602
10948TIP3    H254260   4.743   4.034   5.253 -0.3011 -0.3615  1.5315
10949TIP3   OH254261   5.284   3.955  15.804  0.1173 -0.3563  0.0874
10949TIP3    H154262   5.306   3.882  15.747 -0.2279 -0.6358  0.3099
10949TIP3    H254263   5.368   3.988  15.835  0.2288 -2.1744  1.8820
10950TIP3   OH254264   6.135   0.970   5.025  0.0140 -0.4138 -0.0911
10950TIP3    H154265   6.107   0.976   4.934  0.3629  0.1761 -0.1688
10950TIP3    H254266   6.216   0.920   5.023  0.0650 -0.3300 -0.1170
10951TIP3   OH254267   4.881   1.916  10.985 -1.0639  0.5427 -0.4349
10951TIP3    H154268   4.801   1.921  11.037  0.0793  0.7584  1.4080
10951TIP3    H254269   4.878   1.830  10.943 -0.5299 -1.1605  2.6914
10952TIP3   OH254270   0.641   3.141  12.303  0.1849 -0.3334 -0.1687
10952TIP3    H154271   0.630   3.048  12.287  2.9749 -0.9379  0.8384
10952TIP3    H254272   0.653   3.149  12.398  0.7796  0.9389 -0.3217
10953TIP3   OH254273   6.802   2.720  14.211  0.4481 -0.2723  0.4503
10953TIP3    H154274   6.890   2.715  14.247  0.4048 -0.5556  0.5218
10953TIP3    H254275   6.751   2.657  14.263  0.0654  0.3325  0.8138
10954TIP3   OH254276   0.717   4.941  14.571  0.0519 -0.4809 -0.0780
10954TIP3    H154277   0.718   4.876  14.501  1.8426 -2.0397  1.3033
10954TIP3    H254278   0.627   4.938  14.605 -0.7527  0.0437 -1.9758
10955TIP3   OH254279   2.600   0.584  14.293 -0.2421 -0.1454 -0.4707
10955TIP3    H154280   2.586   0.524  14.220 -0.1525  0.1959 -0.7696
10955TIP3    H254281   2.513   0.595  14.332  0.0039 -1.8097  0.6580
10956TIP3   OH254282   2.677   5.901  16.560 -0.4732 -0.0121 -0.0943
10956TIP3    H154283   2.598   5.955  16.547 -0.7160 -0.4988 -0.7359
10956TIP3    H254284   2.726   5.946  16.628  0.0173  1.8111 -1.5668
10957TIP3   OH254285   3.413   0.213  13.148 -0.3996  0.2077  0.3865
10957TIP3    H154286   3.369   0.227  13.232 -0.1181  1.8645  0.2944
10957TIP3    H254287   3.342   0.202  13.085 -0.6540  0.6134  0.5952
10958TIP3   OH254288   1.611   3.152  16.049 -0.2067  0.9317  0.2759
10958TIP3    H154289   1.574   3.068  16.021  1.1941  1.0590 -2.2860
10958TIP3    H254290   1.621   3.143  16.144 -1.9471 -0.9971  0.3744
10959TIP3   OH254291   3.804   0.585   1.186  0.2663 -0.0208 -0.1819
10959TIP3    H154292   3.709   0.575   1.188  0.0834  1.4483  2.0280
10959TIP3    H254293   3.819   0.668   1.142  0.5796 -0.4498 -0.9042
10960TIP3   OH254294   3.019   2.869   4.987 -0.0057 -0.7219  0.3423
10960TIP3    H154295   3.005   2.900   5.077  2.3207  1.6764 -0.0126
10960TIP3    H254296   3.033   2.949   4.936  1.2585 -2.1440 -1.6725
10961TIP3   OH254297   6.725   4.451   4.444  0.7242 -0.1293  0.0884
10961TIP3    H154298   6.704   4.358   4.440  0.3455 -0.0289 -0.4891
10961TIP3    H254299   6.747   4.474   4.353 -2.4059  1.0584 -0.5162
10962TIP3   OH254300   4.960   3.893   1.855  1.0714 -0.6899  0.5070
10962TIP3    H154301   5.008   3.971   1.829 -1.0344  0.4177 -0.3251
10962TIP3    H254302   4.938   3.850   1.773 -1.3505  0.1516  0.6183
10963TIP3   OH254303   3.588   6.066  16.079 -0.7235  0.1265 -0.3875
10963TIP3    H154304   3.653   5.996  16.086  1.5552  2.1529  0.0911
10963TIP3    H254305   3.584   6.103  16.167 -1.0976  1.2465 -0.8633
10964TIP3   OH254306   3.114   2.188   5.420 -0.4053  0.2233 -0.4575
10964TIP3    H154307   3.125   2.094   5.437  3.5947  0.6423  0.1923
10964TIP3    H254308   3.104   2.227   5.507  1.4860  0.6365 -0.3778
10965TIP3   OH254309   5.951   3.837   2.662  0.6182 -0.1477 -0.0312
10965TIP3    H154310   6.015   3.886   2.610 -0.9828  0.5928 -1.3919
10965TIP3    H254311   5.930   3.895   2.735 -1.0855  1.1691 -1.5021
10966TIP3   OH254312   4.466   0.007  13.533  0.0331 -0.7999 -0.2175
10966TIP3    H154313   4.500   0.073  13.474  1.5323 -0.9487  0.4397
10966TIP3    H254314   4.474   0.045  13.620 -1.1665 -0.9938  0.0014
10967TIP3   OH254315   2.828   5.907   1.154  1.1321 -0.4557 -0.2105
10967TIP3    H154316   2.849   5.833   1.211 -0.0847  0.3218  1.3302
10967TIP3    H254317   2.736   5.926   1.173  0.4706 -0.5514 -2.9410
10968TIP3   OH254318   4.650   5.729  12.072 -0.0326 -0.3623  0.2968
10968TIP3    H154319   4.653   5.763  11.983 -0.1839 -1.1424 -0.0165
10968TIP3    H254320   4.571   5.675  12.075 -2.5965  3.0300  2.1837
10969TIP3   OH254321   3.179   0.738   0.734 -0.5355 -0.2877 -0.6864
10969TIP3    H154322   3.203   0.823   0.695  0.7797 -0.4355 -0.2552
10969TIP3    H254323   3.099   0.757   0.783 -0.3953  0.6670 -0.7906
10970TIP3   OH254324   2.338   0.589  13.313  0.0453 -0.1676  0.3296
10970TIP3    H154325   2.307   0.499  13.311 -1.4336  0.1862  2.9464
10970TIP3    H254326   2.409   0.589  13.378  1.5456  0.2089 -1.2143
10971TIP3   OH254327   5.360   0.431   5.906 -0.3131 -0.4018 -0.3633
10971TIP3    H154328   5.271   0.465   5.918  0.4377  1.1884  1.1969
10971TIP3    H254329   5.408   0.504   5.868  0.7882 -0.5268  0.7346
10972TIP3   OH254330   4.957   4.826   5.323  0.2363 -0.0811 -0.1093
10972TIP3    H154331   5.012   4.749   5.320  0.2394 -0.1604  1.2474
10972TIP3    H254332   4.868   4.792   5.329  0.0710  0.0450 -1.5338
10973TIP3   OH254333   4.866   4.863   5.591 -0.2842 -0.6836 -0.2484
10973TIP3    H154334   4.776   4.831   5.593 -1.2453  1.7831  0.9354
10973TIP3    H254335   4.897   4.844   5.503 -2.4285 -0.4739 -1.1025
10974TIP3   OH254336   5.260   1.934  16.827 -0.2525  0.5480  0.2944
10974TIP3    H154337   5.220   1.943  16.741 -0.8774 -1.4391  0.3300
10974TIP3    H254338   5.354   1.925  16.809 -0.4664 -0.8182 -0.3020
10975TIP3   OH254339   6.522   6.635  12.335  0.4163 -0.1289 -0.1107
10975TIP3    H154340   6.538   6.628  12.241 -1.4187  0.4753 -0.4984
10975TIP3    H254341   6.487   6.550  12.360  1.0784 -0.3521  0.0799
10976TIP3   OH254342   0.478   1.852  14.227 -0.1032  0.4206  0.4915
10976TIP3    H154343   0.515   1.850  14.138  1.7741 -2.1355  1.1789
10976TIP3    H254344   0.387   1.825  14.216 -0.2679  1.4215 -0.7743
10977TIP3   OH254345   6.273   4.921  12.834 -0.2785  0.1795 -0.3739
10977TIP3    H154346   6.351   4.974  12.820 -1.0617  0.8909 -2.5807
10977TIP3    H254347   6.209   4.956  12.772 -1.9178 -1.2374  0.4248
10978TIP3   OH254348   6.356   5.549   2.495 -0.5838 -0.1793 -0.0227
10978TIP3    H154349   6.381   5.632   2.535 -1.0439  0.4461 -1.0020
10978TIP3    H254350   6.340   5.491   2.569 -1.4430  0.9568  0.7121
10979TIP3   OH254351   0.673   2.932   4.117 -0.1311  0.2922 -0.5170
10979TIP3    H154352   0.587   2.965   4.094 -0.8630  0.3879  1.9865
10979TIP3    H254353   0.656   2.842   4.146  1.0389 -0.5662 -2.3118
10980TIP3   OH254354   1.745   4.922  14.403 -0.2224 -0.3516  0.2681
10980TIP3    H154355   1.690   4.844  14.403  1.8645 -1.9617 -1.8900
10980TIP3    H254356   1.691   4.990  14.363 -1.5474 -1.0522  0.8043
10981TIP3   OH254357   6.630   1.026  14.815  0.2523 -0.2588  0.1636
10981TIP3    H154358   6.722   1.007  14.800  0.3172  0.7058 -0.7204
10981TIP3    H254359   6.630   1.093  14.884  0.2747  0.5591 -0.6171
10982TIP3   OH254360   3.697   2.233   4.831  0.1415  0.0009  0.3588
10982TIP3    H154361   3.791   2.214   4.834 -0.0145 -1.0272 -0.5956
10982TIP3    H254362   3.691   2.327   4.850  1.3827  0.1381  0.1720
10983TIP3   OH254363   1.636   1.614  14.335 -0.2579  0.5758  0.3488
10983TIP3    H154364   1.593   1.550  14.278 -1.3041  0.2430  1.4797
10983TIP3    H254365   1.613   1.587  14.424  1.5911  0.8973  0.9737
10984TIP3   OH254366   2.166   2.544  10.905 -0.2795 -0.4112 -0.0090
10984TIP3    H154367   2.190   2.608  10.838 -1.5832 -0.8204 -0.9263
10984TIP3    H254368   2.177   2.591  10.988  2.2132 -0.1641 -0.3958
10985TIP3   OH254369   4.960   5.815  11.406  0.0887 -0.0960 -0.8646
10985TIP3    H154370   5.029   5.755  11.378  1.4648  0.2797  1.4637
10985TIP3    H254371   4.998   5.902  11.394 -0.8388  0.2190 -1.6090
10986TIP3   OH254372   1.644   2.075  16.257 -0.8374  0.1201 -0.7190
10986TIP3    H154373   1.686   1.991  16.240 -0.7734 -0.1804  0.7792
10986TIP3    H254374   1.714   2.140  16.246 -0.2561 -0.2639  0.5073
10987TIP3   OH254375   2.441   3.971  16.580  0.8153 -0.1993 -0.1146
10987TIP3    H154376   2.490   3.930  16.509  0.3306 -0.7789 -0.1332
10987TIP3    H254377   2.423   4.060  16.550 -0.4117 -0.7917 -1.2653
10988TIP3   OH254378   6.755   2.900   5.032 -0.6563 -0.0886 -0.0503
10988TIP3    H154379   6.827   2.878   4.972 -1.7457 -0.7689 -1.1552
10988TIP3    H254380   6.691   2.945   4.978 -1.5073 -0.3751  0.6904
10989TIP3   OH254381   4.937   3.200  14.240 -0.1245  0.2076  0.4373
10989TIP3    H154382   5.001   3.256  14.283 -0.6675  1.5840 -0.4667
10989TIP3    H254383   4.856   3.215  14.289 -0.7420  1.7687 -0.9520
10990TIP3   OH254384   4.543   5.524   2.687  0.5007 -0.3412 -0.1846
10990TIP3    H154385   4.494   5.588   2.739 -0.3899 -0.5999 -0.6898
10990TIP3    H254386   4.553   5.565   2.601  1.2385 -0.2643 -0.0694
10991TIP3   OH254387   3.686   5.089   3.786 -0.1105  0.8724 -0.2358
10991TIP3    H154388   3.662   5.071   3.695  1.3187  1.3823 -0.7401
10991TIP3    H254389   3.705   5.002   3.823 -2.4070  0.4722  0.1290
10992TIP3   OH254390   1.560   5.787  10.892 -0.9041  0.1835  0.2693
10992TIP3    H154391   1.655   5.776  10.886 -0.6186  1.5021  1.7472
10992TIP3    H254392   1.525   5.715  10.840  0.8721 -2.3913  2.3478
10993TIP3   OH254393   5.723   4.476  15.832  0.7949 -0.2468  0.1057
10993TIP3    H154394   5.700   4.434  15.748 -0.9115 -0.3149  0.5623
10993TIP3    H254395   5.694   4.567  15.822 -0.5876 -0.5509  1.0207
10994TIP3   OH254396   0.182   0.268   3.838 -0.6044 -0.0107  0.8832
10994TIP3    H154397   0.197   0.319   3.758  1.0190 -0.6132  0.7755
10994TIP3    H254398   0.092   0.235   3.828 -1.5478  2.4457  0.7734
10995TIP3   OH254399   2.444   2.966   4.343 -0.2670 -0.5546  0.3270
10995TIP3    H154400   2.358   3.003   4.322  0.1724 -0.2620 -1.0384
10995TIP3    H254401   2.472   3.014   4.421  0.2903  2.0695 -1.3774
10996TIP3   OH254402   3.676   2.005  14.969  0.3114 -0.3303 -0.2525
10996TIP3    H154403   3.629   1.926  14.945  0.8060 -0.4046 -0.9900
10996TIP3    H254404   3.763   1.975  14.994 -0.1982 -0.2752  1.8119
10997TIP3   OH254405   2.976   4.517   1.002 -0.1996 -0.1856 -0.4717
10997TIP3    H154406   3.003   4.432   1.036 -1.4827 -0.7615 -0.8145
10997TIP3    H254407   2.987   4.577   1.077 -2.1139 -1.2524  0.7600
10998TIP3   OH254408   3.479   2.547   3.357  0.6278  0.6746  0.4119
10998TIP3    H154409   3.392   2.569   3.322  1.6825  0.8097 -2.4024
10998TIP3    H254410   3.536   2.616   3.322  2.0598 -0.0632  1.2320
10999TIP3   OH254411   0.824   2.058  17.123  0.0962 -0.2454  0.0122
10999TIP3    H154412   0.909   2.104  17.123  0.2643 -0.5545 -0.0238
10999TIP3    H254413   0.807   2.042  17.216 -0.2586  0.4263  0.0743
11000TIP3   OH254414   5.544   3.206   5.465  0.7406 -0.0237 -0.0127
11000TIP3    H154415   5.600   3.179   5.392  1.5609  1.9121 -0.1773
11000TIP3    H254416   5.551   3.301   5.466  0.8303  0.0239  2.6468
11001TIP3   OH254417   4.384   5.323   0.701 -0.1457  0.2583  0.2494
11001TIP3    H154418   4.478   5.333   0.688 -0.1126  0.3527  0.5506
11001TIP3    H254419   4.346   5.405   0.668 -0.2887 -0.4681 -1.4942
11002TIP3   OH254420   4.115   0.765  12.821  0.4911  0.3504  0.2018
11002TIP3    H154421   4.147   0.828  12.886 -1.3835  3.4936 -1.6505
11002TIP3    H254422   4.164   0.786  12.741  0.3276 -1.0803 -0.3078
11003TIP3   OH254423   2.816   0.751  12.434 -0.2629 -0.7375 -0.6411
11003TIP3    H154424   2.881   0.724  12.499  0.7040  1.4499 -0.6173
11003TIP3    H254425   2.733   0.745  12.481  0.1846 -1.1733  0.1378
11004TIP3   OH254426   5.121   3.925  13.405  0.6218  0.0519  0.8045
11004TIP3    H154427   5.039   3.884  13.378  1.0821  0.2417 -1.0166
11004TIP3    H254428   5.164   3.859  13.461  0.5107 -1.2300 -0.5647
11005TIP3   OH254429   0.174   4.942  16.651 -1.0078  0.7633 -0.2908
11005TIP3    H154430   0.105   4.998  16.616 -0.3921  1.0400 -1.1003
11005TIP3    H254431   0.255   4.976  16.611 -0.7639 -1.5400 -1.8938
11006TIP3   OH254432   0.911   0.126   2.265 -0.8473  0.0124 -0.0248
11006TIP3    H154433   0.822   0.097   2.287 -0.9853  0.4225 -0.0375
11006TIP3    H254434   0.898   0.193   2.197 -0.4559 -0.8914 -1.0213
11007TIP3   OH254435   4.901   2.121   4.966 -0.6253 -0.5638  0.1994
11007TIP3    H154436   4.828   2.077   5.009 -2.3192  0.0985 -1.7989
11007TIP3    H254437   4.870   2.211   4.952 -0.1774 -0.7183 -2.2414
11008TIP3   OH254438   2.994   3.882  16.034  0.0065  0.0698 -0.4692
11008TIP3    H154439   3.002   3.874  15.938  1.6905  1.5541 -0.4941
11008TIP3    H254440   2.948   3.964  16.048  0.8605  0.4771  0.0004
11009TIP3   OH254441   3.821   6.494  15.393 -0.3936 -0.0767  0.2575
11009TIP3    H154442   3.882   6.432  15.433 -1.5698 -1.8012 -0.5132
11009TIP3    H254443   3.876   6.548  15.336  0.4598 -1.5020 -0.3259
11010TIP3   OH254444   0.045   5.179  11.205  0.0745 -0.0431  0.3525
11010TIP3    H154445   0.033   5.264  11.162  1.1895  0.1706  0.4219
11010TIP3    H254446  -0.041   5.138  11.201 -0.4293  0.9885  0.1031
11011TIP3   OH254447   1.807   3.666   0.549 -0.2808  0.1438 -0.0197
11011TIP3    H154448   1.754   3.744   0.529  0.0906  0.5826  0.6491
11011TIP3    H254449   1.780   3.642   0.638  0.4832  0.2495  0.2498
11012TIP3   OH254450   0.141   1.549  13.551 -0.0782 -0.8905  0.5880
11012TIP3    H154451   0.198   1.583  13.481 -1.1107 -1.7032 -0.6892
11012TIP3    H254452   0.143   1.454  13.541 -2.0676 -0.9299  0.1418
11013TIP3   OH254453   3.499   1.758   4.652 -0.0588  0.2998  0.4453
11013TIP3    H154454   3.450   1.759   4.569 -0.7202  0.7611  0.8308
11013TIP3    H254455   3.431   1.763   4.719  0.4646 -0.3180  1.0250
11014TIP3   OH254456   6.685   4.345   2.649  0.1640  0.4910  0.0964
11014TIP3    H154457   6.723   4.283   2.587 -0.7019 -0.6043  0.6313
11014TIP3    H254458   6.697   4.304   2.734 -1.9826  0.1879  0.3074
11015TIP3   OH254459   3.989   4.519   2.901 -0.2691 -0.2220 -0.6139
11015TIP3    H154460   4.037   4.447   2.860 -0.2690 -0.5005 -0.1285
11015TIP3    H254461   3.906   4.480   2.929  0.1309 -0.2930  0.5462
11016TIP3   OH254462   4.447   0.562   3.207  0.1059 -0.7028  0.3321
11016TIP3    H154463   4.369   0.616   3.215  1.3815  1.3656 -0.3132
11016TIP3    H254464   4.459   0.550   3.113 -0.5273 -2.8030  0.4539
11017TIP3   OH254465   4.814   4.117   0.401  0.0349 -0.2575 -0.3314
11017TIP3    H154466   4.868   4.111   0.322 -0.5187  1.1176 -0.8447
11017TIP3    H254467   4.799   4.026   0.427  2.6347 -0.7107 -0.1238
11018TIP3   OH254468   4.142   5.017   4.408 -0.2503 -0.1561  0.0794
11018TIP3    H154469   4.156   5.108   4.435  1.0167 -0.3900  0.2617
11018TIP3    H254470   4.160   4.965   4.487 -0.2272 -0.6154 -0.2212
11019TIP3   OH254471   0.831   1.820  10.763 -0.0189 -0.0330  0.1431
11019TIP3    H154472   0.850   1.914  10.760 -2.3229  0.4850  0.2287
11019TIP3    H254473   0.915   1.780  10.787  0.6827  2.1157  1.6070
11020TIP3   OH254474   0.287   6.410  16.902 -0.6454 -0.0994 -0.4709
11020TIP3    H154475   0.221   6.376  16.963 -0.4994  0.6517  0.1339
11020TIP3    H254476   0.313   6.335  16.849 -0.3688 -0.9276  0.7810
11021TIP3   OH254477   4.227   1.406   5.827 -0.3122  0.0610  0.1692
11021TIP3    H154478   4.173   1.465   5.773  1.4636  0.0197 -1.7629
11021TIP3    H254479   4.163   1.351   5.873 -1.9836  2.2449  0.6465
11022TIP3   OH254480   0.446   6.574   1.660  0.3095 -0.2549  0.0467
11022TIP3    H154481   0.352   6.580   1.643  0.4911 -1.4847 -1.7120
11022TIP3    H254482   0.454   6.500   1.720  0.0883  0.4978  1.0155
11023TIP3   OH254483   0.502   0.780  12.793  0.5577 -0.2897 -0.1173
11023TIP3    H154484   0.457   0.714  12.845  1.1483 -0.4985  0.1357
11023TIP3    H254485   0.553   0.829  12.857  0.2247  0.3342 -0.3208
11024TIP3   OH254486   0.585   0.702  15.218  0.1478 -0.1136 -0.7036
11024TIP3    H154487   0.598   0.717  15.125 -1.5197  0.2794 -0.9135
11024TIP3    H254488   0.493   0.724  15.233  0.4387  0.0449  1.0781
11025TIP3   OH254489   4.783   3.221   2.997  0.1845  0.5756  0.0764
11025TIP3    H154490   4.836   3.181   3.066  1.3531  0.9255 -0.5769
11025TIP3    H254491   4.694   3.219   3.031  0.3104 -1.7521  0.4319
11026TIP3   OH254492   6.235   6.751  16.342  0.5381  0.9617 -0.3372
11026TIP3    H154493   6.320   6.790  16.360  1.8259 -2.2346  1.3499
11026TIP3    H254494   6.209   6.711  16.425 -0.2609 -2.2137 -1.9542
11027TIP3   OH254495   3.160   2.807  10.926  0.1961 -0.1247 -0.3660
11027TIP3    H154496   3.139   2.899  10.909  0.4281 -0.1305 -0.6914
11027TIP3    H254497   3.076   2.762  10.925  0.1501 -0.0338 -0.9550
11028TIP3   OH254498   2.794   5.736  12.558 -0.2467 -0.0196 -0.3257
11028TIP3    H154499   2.780   5.728  12.464 -1.5192 -1.1851 -0.0712
11028TIP3    H254500   2.855   5.666  12.579 -0.8173 -0.4754 -0.1410
11029TIP3   OH254501   5.884   5.169   3.641  0.0191  0.3889 -0.2084
11029TIP3    H154502   5.881   5.264   3.630 -0.2576  0.2993 -0.9584
11029TIP3    H254503   5.952   5.140   3.580  0.0358  0.1018 -0.0543
11030TIP3   OH254504   5.670   3.447   4.241  0.2586 -0.1834  0.3028
11030TIP3    H154505   5.580   3.458   4.211  1.2741 -0.4676 -3.2336
11030TIP3    H254506   5.694   3.358   4.215  1.6966  0.0308  0.7758
11031TIP3   OH254507   2.034   5.217   3.619 -0.5419  0.5701  0.0461
11031TIP3    H154508   2.018   5.310   3.600  1.0978  0.6291 -1.3360
11031TIP3    H254509   2.128   5.206   3.606 -0.4158 -0.9560  1.8452
11032TIP3   OH254510   2.008   1.266  14.607 -0.1782 -0.2241 -0.3437
11032TIP3    H154511   1.968   1.193  14.560 -1.4375  1.1874 -1.5754
11032TIP3    H254512   2.067   1.306  14.544  1.3159 -0.7592  0.6595
11033TIP3   OH254513   5.158   4.300  11.082 -0.7386 -0.4327  0.3003
11033TIP3    H154514   5.166   4.379  11.135  2.2403 -0.7245  0.4358
11033TIP3    H254515   5.175   4.330  10.992  0.5419 -0.9231  0.3723
11034TIP3   OH254516   6.139   4.482   4.304  0.1541  0.6199 -0.0751
11034TIP3    H154517   6.168   4.412   4.363 -0.3006  0.4552 -0.0463
11034TIP3    H254518   6.167   4.453   4.217  0.4176  0.6476 -0.0025
11035TIP3   OH254519   4.972   2.362   4.657  0.2820  0.2429  0.8528
11035TIP3    H154520   4.955   2.386   4.566 -1.8036 -0.6655  0.9363
11035TIP3    H254521   5.000   2.271   4.653  2.4420  0.8444  0.9949
11036TIP3   OH254522   3.194   1.605   3.190 -0.4973 -0.7143  0.1111
11036TIP3    H154523   3.204   1.578   3.281 -0.2751  2.4896  1.1846
11036TIP3    H254524   3.118   1.556   3.159 -0.3468 -2.1804  1.8595
11037TIP3   OH254525   0.528   0.181   2.028 -0.3030 -0.3630  0.5693
11037TIP3    H154526   0.493   0.187   2.117 -0.9103  0.7300  0.2762
11037TIP3    H254527   0.517   0.089   2.004  0.9375 -0.9406  2.0307
11038TIP3   OH254528   4.097   4.105   4.978 -0.1893 -0.1842  0.6221
11038TIP3    H154529   4.142   4.142   5.054  2.1872  0.6599 -1.1016
11038TIP3    H254530   4.025   4.166   4.961  1.2563  1.5054  0.2614
11039TIP3   OH254531   6.234   0.672  11.854 -0.1090  0.5217  0.3218
11039TIP3    H154532   6.251   0.599  11.795 -2.6309  1.2949 -1.5700
11039TIP3    H254533   6.216   0.631  11.939  1.5446 -0.7698  0.0995
11040TIP3   OH254534   6.517   1.704   4.993  0.3460 -0.3219  0.4321
11040TIP3    H154535   6.466   1.727   4.916  0.5737  0.5112  0.5233
11040TIP3    H254536   6.608   1.721   4.968  0.4452 -0.3185  0.7870
11041TIP3   OH254537   3.145   5.196   5.842  0.2527  0.3560 -0.2412
11041TIP3    H154538   3.219   5.178   5.900  0.0269  3.1042  1.0455
11041TIP3    H254539   3.076   5.138   5.874  0.2357  1.5560  2.1178
11042TIP3   OH254540   1.231   6.444  12.170 -0.5228 -0.0565 -0.6294
11042TIP3    H154541   1.149   6.477  12.205 -0.6322  0.3131 -1.2308
11042TIP3    H254542   1.279   6.522  12.142  0.2112 -0.2294  0.0820
11043TIP3   OH254543   2.474   0.229   5.046 -0.4038 -0.3903 -0.3968
11043TIP3    H154544   2.486   0.151   4.991  0.0246 -1.1426  0.7200
11043TIP3    H254545   2.415   0.200   5.115  1.7327 -0.5092  1.4726
11044TIP3   OH254546   2.742   6.008   0.920  0.0169 -0.4572 -0.0884
11044TIP3    H154547   2.804   6.004   0.847  0.8325  0.5765  0.5151
11044TIP3    H254548   2.781   5.952   0.988  0.7346  0.8312  0.5935
11045TIP3   OH254549   0.511   0.572  16.506 -0.1276  0.2384 -0.4308
11045TIP3    H154550   0.562   0.630  16.450  0.7194  1.6275  1.6282
11045TIP3    H254551   0.430   0.620  16.523  0.7867  1.1819  1.6909
11046TIP3   OH254552   4.903   6.376  16.526  0.4842 -0.1066 -0.2178
11046TIP3    H154553   4.934   6.463  16.501  2.1975 -0.0747  1.7394
11046TIP3    H254554   4.809   6.389  16.543  0.7283  1.4063  0.1396
11047TIP3   OH254555   6.706   2.588   0.491  0.1044 -0.4324  0.4712
11047TIP3    H154556   6.753   2.540   0.559 -0.0370 -1.0974  0.1071
11047TIP3    H254557   6.731   2.545   0.409 -1.2285 -0.8930  0.2757
11048TIP3   OH254558   0.224   2.489   3.561  0.0232  0.7034  0.1915
11048TIP3    H154559   0.225   2.520   3.652 -0.6919  1.8863 -0.1882
11048TIP3    H254560   0.171   2.553   3.514  1.2208  0.6966 -1.2676
11049TIP3   OH254561   4.732   2.054  15.920  0.0697 -0.0636  0.4025
11049TIP3    H154562   4.686   2.013  15.846  0.7112  0.8323 -0.5293
11049TIP3    H254563   4.754   2.142  15.888  1.9085 -0.2531  0.9988
11050TIP3   OH254564   6.259   0.551  13.914 -0.3641 -0.1593 -0.1799
11050TIP3    H154565   6.177   0.536  13.865  0.0775 -0.2483 -0.9030
11050TIP3    H254566   6.327   0.514  13.858  0.0238 -1.5648  1.1379
11051TIP3   OH254567   3.135   6.490  14.615  0.0820 -0.0620 -0.4145
11051TIP3    H154568   3.160   6.408  14.572 -1.1901 -0.7700  0.1314
11051TIP3    H254569   3.049   6.471  14.653  0.5894  0.9529  1.3262
11052TIP3   OH254570   4.529   2.076   3.476  0.2125  0.4829 -0.1143
11052TIP3    H154571   4.512   2.165   3.447 -1.3348  0.3012  0.1796
11052TIP3    H254572   4.623   2.063   3.459  0.3280  1.9384 -0.7225
11053TIP3   OH254573   0.958   3.247   3.452  0.0534  0.1931 -0.0715
11053TIP3    H154574   0.983   3.251   3.544  0.0375  1.2140 -0.0975
11053TIP3    H254575   1.010   3.175   3.416  1.4138  0.9322  0.3342
11054TIP3   OH254576   3.562   6.338   0.800  0.3592 -0.4630 -0.2354
11054TIP3    H154577   3.560   6.296   0.714 -0.1912  1.1883 -1.0758
11054TIP3    H254578   3.510   6.418   0.789  2.7183  1.3245  0.7797
11055TIP3   OH254579   1.923   3.359   3.090  0.7459  0.3815  0.0058
11055TIP3    H154580   1.882   3.324   3.169  1.2217  0.6943  0.4049
11055TIP3    H254581   1.984   3.291   3.062 -0.6326 -0.4364 -1.0743
11056TIP3   OH254582   3.424   3.197   4.443  0.0466  0.8703 -0.1465
11056TIP3    H154583   3.448   3.256   4.514 -0.1998 -0.7185  1.3035
11056TIP3    H254584   3.328   3.200   4.441  0.0124  0.1022  0.3003
11057TIP3   OH254585   1.364   5.941  15.600  0.2000 -0.0846 -0.8554
11057TIP3    H154586   1.388   6.029  15.570  0.4819 -0.0281 -0.4763
11057TIP3    H254587   1.280   5.953  15.646  1.1784  0.3521  0.9299
11058TIP3   OH254588   2.419   0.779   5.147 -0.4749 -0.0169  0.3701
11058TIP3    H154589   2.369   0.751   5.070  0.8635 -0.2610 -0.4410
11058TIP3    H254590   2.454   0.864   5.123  0.5160 -0.3985  0.4298
11059TIP3   OH254591   2.495   0.103   2.108 -0.5450  0.8417  0.2465
11059TIP3    H154592   2.534   0.190   2.111 -0.8857  0.9812  0.8683
11059TIP3    H254593   2.490   0.082   2.015  2.5923  0.0889  0.1315
11060TIP3   OH254594   2.609   1.356   5.203 -0.2875  0.4522 -0.1238
11060TIP3    H154595   2.655   1.436   5.176 -0.9363  0.1194 -2.4489
11060TIP3    H254596   2.676   1.301   5.243  0.5543  1.4113 -0.1780
11061TIP3   OH254597   0.528   5.514  17.172 -0.4547  0.4526  0.8123
11061TIP3    H154598   0.436   5.534  17.156  0.0117  1.8750 -0.3610
11061TIP3    H254599   0.532   5.493  17.265 -2.1714 -1.0190  0.6091
11062TIP3   OH254600   0.221   0.936  13.712 -0.4039  0.4026 -0.0775
11062TIP3    H154601   0.273   0.885  13.775 -2.8439 -2.2313 -0.0392
11062TIP3    H254602   0.280   0.948  13.637  0.9281 -0.7440  0.7364
11063TIP3   OH254603   0.676   2.552   6.189  0.2810  0.6508 -0.0868
11063TIP3    H154604   0.631   2.479   6.231 -1.1218  0.1039 -2.3789
11063TIP3    H254605   0.607   2.616   6.172  1.2307  1.8788  0.5041
11064TIP3   OH254606   2.466   3.991   2.909  0.5253 -0.1874  0.1727
11064TIP3    H154607   2.554   4.020   2.887  1.4839 -1.9054  1.4259
11064TIP3    H254608   2.448   3.920   2.848  0.2073 -0.1483  0.2203
11065TIP3   OH254609   6.614   2.910  11.046  0.3164 -0.3491 -0.0677
11065TIP3    H154610   6.561   2.841  11.086  1.3712 -0.7392  0.7139
11065TIP3    H254611   6.586   2.912  10.955  0.0059 -1.5730 -0.0255
11066TIP3   OH254612   2.075   3.355   1.364  0.2380 -0.2394  0.1978
11066TIP3    H154613   2.023   3.323   1.438 -0.1857  0.5919  0.2738
11066TIP3    H254614   2.126   3.428   1.400 -0.0895  0.2766 -0.3564
11067TIP3   OH254615   2.975   6.151  14.364  0.1093  0.1793 -0.3796
11067TIP3    H154616   2.889   6.154  14.407  0.3473  0.8317  0.0666
11067TIP3    H254617   2.963   6.090  14.291  0.0948 -2.2005  1.4838
11068TIP3   OH254618   2.814   2.420  14.372 -0.0600 -0.0953  0.4833
11068TIP3    H154619   2.841   2.407  14.281  0.4974  0.8649  0.4949
11068TIP3    H254620   2.741   2.483  14.366 -0.5182 -0.6022  0.6542
11069TIP3   OH254621   4.627   1.352   2.399 -0.0902 -0.2478  0.0541
11069TIP3    H154622   4.657   1.430   2.447  0.0887 -0.5331  0.4149
11069TIP3    H254623   4.620   1.381   2.308  3.1167 -0.6037 -0.4219
11070TIP3   OH254624   0.478   6.600   5.129  0.7053 -0.6515  0.1130
11070TIP3    H154625   0.425   6.524   5.106 -1.4909  0.9130 -0.1996
11070TIP3    H254626   0.456   6.618   5.220 -0.7293  1.0627 -0.5226
11071TIP3   OH254627   0.482   4.406  15.546 -0.3504  0.2327 -0.4097
11071TIP3    H154628   0.428   4.484  15.535  0.5903  0.6517 -2.4709
11071TIP3    H254629   0.570   4.439  15.560 -0.2611 -0.4739  0.8514
11072TIP3   OH254630   4.955   6.724   6.378 -0.1791  0.2017  0.3561
11072TIP3    H154631   4.920   6.709   6.291  0.4272 -0.8210  0.2690
11072TIP3    H254632   4.949   6.819   6.391 -0.2716  0.3629 -0.7911
11073TIP3   OH254633   2.154   3.579   0.280 -0.3402 -0.3551  0.0373
11073TIP3    H154634   2.193   3.529   0.352  1.4515  0.2430 -0.4620
11073TIP3    H254635   2.229   3.615   0.232 -1.5242  0.9048 -0.9645
11074TIP3   OH254636   5.753   6.013  11.120  0.0521 -0.5042 -0.8836
11074TIP3    H154637   5.840   5.973  11.111  0.0165 -0.4497 -1.4670
11074TIP3    H254638   5.698   5.965  11.059 -0.2913 -0.4144 -0.6465
11075TIP3   OH254639   0.915   0.957   6.372  0.1266  0.0736  0.3003
11075TIP3    H154640   0.827   0.947   6.336  0.3058 -1.2823  0.2148
11075TIP3    H254641   0.905   1.020   6.444 -0.3043  2.5845 -1.7987
11076TIP3   OH254642   3.859   3.546   1.628  0.1871 -0.2732  0.3350
11076TIP3    H154643   3.836   3.562   1.537 -1.3953  0.0946  0.7655
11076TIP3    H254644   3.851   3.631   1.671  0.5870 -0.5057  0.8854
11077TIP3   OH254645   4.480   3.030   4.372 -0.1797  0.3701  0.4123
11077TIP3    H154646   4.401   3.005   4.325  0.3607 -0.5216 -0.0503
11077TIP3    H254647   4.462   3.008   4.463  0.2061 -1.6565  0.0574
11078TIP3   OH254648   3.440   6.711  15.102  0.4815  0.2133  0.1959
11078TIP3    H154649   3.456   6.804  15.114 -0.5714  0.1729  2.1274
11078TIP3    H254650   3.503   6.668  15.159 -0.0549 -0.2005  0.4885
11079TIP3   OH254651   0.221   1.280   5.617  0.5773 -0.3036  0.2517
11079TIP3    H154652   0.262   1.251   5.699 -0.0472  0.0870  0.7077
11079TIP3    H254653   0.295   1.297   5.559  1.0896  0.6761  1.1603
11080TIP3   OH254654   6.460   3.649   5.239 -0.6607 -0.1055  0.5059
11080TIP3    H154655   6.535   3.701   5.270 -0.5234 -0.7184  1.2381
11080TIP3    H254656   6.411   3.631   5.319 -1.6529  0.3745  0.0160
11081TIP3   OH254657   4.759   1.277   4.915  0.5086  0.3213 -0.5657
11081TIP3    H154658   4.721   1.294   5.001 -1.4066 -3.5428 -0.4223
11081TIP3    H254659   4.845   1.320   4.918  0.3875  0.6505  3.1548
11082TIP3   OH254660   1.806   1.864   5.193  0.2444  0.9366 -0.1438
11082TIP3    H154661   1.736   1.901   5.247 -0.2295  0.8398 -0.6802
11082TIP3    H254662   1.836   1.937   5.139  0.3769  0.9148 -0.0989
11083TIP3   OH254663   3.406   5.191   2.937 -0.3421 -0.3313 -0.6542
11083TIP3    H154664   3.453   5.173   2.855  1.4632 -1.0163  0.4730
11083TIP3    H254665   3.367   5.277   2.923  1.2016  0.2497 -1.7159
11084TIP3   OH254666   0.997   5.490   2.828  0.1476 -0.3657 -0.5957
11084TIP3    H154667   1.069   5.541   2.790 -1.2661  1.3536 -1.0831
11084TIP3    H254668   0.936   5.478   2.756 -0.2664 -1.4202 -0.0783
11085TIP3   OH254669   6.321   0.664   2.827  0.1701  0.3308  0.2173
11085TIP3    H154670   6.343   0.573   2.810  0.3794  0.7646 -2.1409
11085TIP3    H254671   6.230   0.672   2.801 -0.1524  0.6120  1.3530
11086TIP3   OH254672   6.016   5.536   2.501  0.4514 -0.3660 -0.1908
11086TIP3    H154673   6.012   5.607   2.566 -0.3982  0.4855 -1.1263
11086TIP3    H254674   6.108   5.513   2.495  0.5859 -0.2229  1.0534
11087TIP3   OH254675   6.303   5.953  13.763  0.0363  0.7255 -0.1203
11087TIP3    H154676   6.314   5.858  13.758  1.4378  0.8444  0.3429
11087TIP3    H254677   6.208   5.966  13.765 -0.2865 -0.5278 -2.7391
11088TIP3   OH254678   3.608   4.461  14.080  0.4059 -0.5192  0.7717
11088TIP3    H154679   3.692   4.450  14.125  2.7915  1.9314 -2.6583
11088TIP3    H254680   3.629   4.458  13.987 -3.6222 -1.2518 -0.3177
11089TIP3   OH254681   0.765   4.762   1.167  0.1983 -0.6568  0.1043
11089TIP3    H154682   0.690   4.765   1.107 -0.5959  0.0093  1.0945
11089TIP3    H254683   0.799   4.674   1.158 -1.3927 -1.3408  0.4345
11090TIP3   OH254684   2.646   6.254  10.486  0.9849 -0.2918 -0.2031
11090TIP3    H154685   2.711   6.318  10.517  0.2125 -0.3485  1.6447
11090TIP3    H254686   2.570   6.307  10.461  1.0901 -0.3558 -0.6705
11091TIP3   OH254687   1.359   4.441   5.193  0.5905 -0.3489  0.1430
11091TIP3    H154688   1.429   4.503   5.217 -1.1682  1.8396 -0.0767
11091TIP3    H254689   1.367   4.371   5.258  4.2126 -1.3027 -1.0521
11092TIP3   OH254690   6.315   3.315  13.162  0.4159 -0.2644  1.1188
11092TIP3    H154691   6.228   3.344  13.190 -0.1903 -1.4209  0.5369
11092TIP3    H254692   6.364   3.395  13.146 -0.7282  0.4130  0.9142
11093TIP3   OH254693   6.574   5.858  16.222 -0.6634 -0.2808 -0.2221
11093TIP3    H154694   6.558   5.788  16.159 -1.4117 -0.1351 -0.2046
11093TIP3    H254695   6.669   5.868  16.224 -0.2158 -3.5792  2.2128
11094TIP3   OH254696   6.223   1.601  15.269 -0.1475  0.1311 -0.3366
11094TIP3    H154697   6.244   1.536  15.335  0.4790  1.5094  0.8962
11094TIP3    H254698   6.136   1.577  15.237  0.0560 -1.2483  0.1108
11095TIP3   OH254699   4.593   5.802   2.210  0.2475 -0.0725 -0.0392
11095TIP3    H154700   4.627   5.889   2.186  1.2564 -0.0623  1.3381
11095TIP3    H254701   4.498   5.815   2.215  0.3802  0.9485  0.1353
11096TIP3   OH254702   5.150   0.281  11.890 -0.1741  0.3704 -0.1459
11096TIP3    H154703   5.223   0.317  11.939 -0.4684  1.4300 -0.4661
11096TIP3    H254704   5.115   0.355  11.840 -0.9717 -0.2916 -0.6003
11097TIP3   OH254705   5.156   3.316   1.158  0.1073 -0.0280  0.4816
11097TIP3    H154706   5.072   3.271   1.164 -0.0519  0.3604  1.2625
11097TIP3    H254707   5.196   3.304   1.245  1.1439 -0.7503 -0.0724
11098TIP3   OH254708   3.464   4.644   3.911 -0.6839 -0.0655 -0.2330
11098TIP3    H154709   3.558   4.655   3.900 -0.4771 -0.7864  0.6614
11098TIP3    H254710   3.425   4.714   3.859  0.3082 -0.5251 -1.6480
11099TIP3   OH254711   6.360   6.330  16.410 -0.1588 -0.9156 -0.5665
11099TIP3    H154712   6.335   6.384  16.335 -0.9614 -0.8194 -0.2465
11099TIP3    H254713   6.283   6.332  16.467  0.5227 -0.7728  0.3780
11100TIP3   OH254714   6.269   6.263   0.089  0.1386 -0.0620 -0.1735
11100TIP3    H154715   6.285   6.346   0.045  0.1074  0.1688  0.2388
11100TIP3    H254716   6.318   6.198   0.038 -0.3671  0.1053 -0.8722
11101TIP3   OH254717   4.006   6.611   1.638  0.2091 -0.1903 -0.5080
11101TIP3    H154718   4.070   6.620   1.709  0.6061 -2.2969 -0.5317
11101TIP3    H254719   3.922   6.635   1.678  0.5051 -0.8538  0.5389
11102TIP3   OH254720   2.199   5.148   1.548  0.8415 -0.1847  0.5266
11102TIP3    H154721   2.273   5.190   1.505 -0.2952  0.2672 -1.0636
11102TIP3    H254722   2.200   5.058   1.515  0.5562 -0.1147  0.3240
11103TIP3   OH254723   3.208   0.611   4.949  0.5292 -0.3672  0.2238
11103TIP3    H154724   3.295   0.573   4.949  0.9297  0.5018 -0.7705
11103TIP3    H254725   3.177   0.599   5.039  1.5588 -0.9173  0.5250
11104TIP3   OH254726   3.390   2.504   2.972  0.2205 -0.1216 -0.3716
11104TIP3    H154727   3.465   2.477   3.024  1.2926  1.5145 -0.9801
11104TIP3    H254728   3.341   2.424   2.955  1.5113 -1.1280  0.5450
11105TIP3   OH254729   5.205   5.233  12.176 -0.0960  0.0922 -0.0753
11105TIP3    H154730   5.245   5.284  12.246 -2.2542  1.1107  0.4977
11105TIP3    H254731   5.214   5.287  12.097  1.3260 -0.5526 -0.3821
11106TIP3   OH254732   6.113   4.375   3.625 -0.1732 -0.3579 -0.2659
11106TIP3    H154733   6.085   4.460   3.658 -0.5206 -1.7833  3.7766
11106TIP3    H254734   6.031   4.330   3.602 -0.3631 -0.7913  1.1504
11107TIP3   OH254735   6.370   3.612  15.939 -0.1038  0.2167  0.4318
11107TIP3    H154736   6.435   3.595  15.871  0.1022  0.1452  0.6480
11107TIP3    H254737   6.384   3.703  15.965  0.2782  0.0357  0.8713
11108TIP3   OH254738   5.970   3.437   4.460 -0.4991 -0.3482 -0.0908
11108TIP3    H154739   5.919   3.509   4.498  0.4852 -0.7986  2.2150
11108TIP3    H254740   5.935   3.358   4.500  1.2842 -0.7549  0.7662
11109TIP3   OH254741   3.073   1.199  13.279  0.2959  0.9331  0.1692
11109TIP3    H154742   3.136   1.210  13.207  1.6946  0.7790  1.3344
11109TIP3    H254743   3.008   1.267  13.263  0.9163  1.3077 -0.9114
11110TIP3   OH254744   1.660   1.403  15.739  0.8408 -0.4393 -0.2475
11110TIP3    H154745   1.679   1.338  15.671 -1.4589 -3.5151  1.7819
11110TIP3    H254746   1.728   1.389  15.804  0.8194 -0.1838 -0.1689
11111TIP3   OH254747   2.249   0.201  12.801  0.4357 -0.1012 -0.3179
11111TIP3    H154748   2.337   0.164  12.789  0.4319 -0.1369 -0.2326
11111TIP3    H254749   2.201   0.134  12.848  0.2710 -0.2115 -0.6405
11112TIP3   OH254750   2.405   6.225  11.434  0.1956 -0.0151 -0.0003
11112TIP3    H154751   2.332   6.183  11.479  1.0257 -0.6175  0.8203
11112TIP3    H254752   2.373   6.312  11.412 -0.4861  0.0371  1.1184
11113TIP3   OH254753   1.543   6.381  16.380 -0.2777  0.2562  0.0403
11113TIP3    H154754   1.568   6.322  16.310 -1.1099 -0.3874  0.2759
11113TIP3    H254755   1.619   6.382  16.439  0.4816  0.9133 -0.9179
11114TIP3   OH254756   5.511   6.565  12.066  0.5056 -0.5578 -0.5005
11114TIP3    H154757   5.434   6.616  12.039 -0.2289 -1.9476 -1.1249
11114TIP3    H254758   5.487   6.527  12.150  1.0610  0.0876 -0.0304
11115TIP3   OH254759   5.063   0.206  10.889 -0.1137  0.0203 -0.4226
11115TIP3    H154760   5.093   0.116  10.871 -2.2920 -0.9580  0.4694
11115TIP3    H254761   5.075   0.252  10.807 -0.7089 -1.6278 -1.4824
11116TIP3   OH254762   0.504   6.301   0.413 -0.2666 -0.7631  0.4975
11116TIP3    H154763   0.500   6.238   0.341 -1.5979 -0.5467  0.3683
11116TIP3    H254764   0.537   6.381   0.373 -0.7463 -0.7205  0.1922
11117TIP3   OH254765   5.352   0.213  14.344  0.6631 -0.1724  0.4876
11117TIP3    H154766   5.292   0.274  14.300 -1.1189 -0.5306  2.2906
11117TIP3    H254767   5.337   0.129  14.300  1.5222  0.1755 -0.5314
11118TIP3   OH254768   1.577   6.392   3.820 -0.4054  0.4280  0.9383
11118TIP3    H154769   1.586   6.332   3.894  0.5986 -2.3744 -1.2723
11118TIP3    H254770   1.663   6.392   3.778 -0.7846  2.3792  0.0394
11119TIP3   OH254771   3.744   0.850   4.827  0.5218 -0.1136 -0.1681
11119TIP3    H154772   3.744   0.768   4.777  5.0862 -1.4776  1.6136
11119TIP3    H254773   3.795   0.911   4.774  1.4637 -0.1043  0.7229
11120TIP3   OH254774   4.887   5.686   1.448  0.1008  0.6838 -0.2235
11120TIP3    H154775   4.838   5.610   1.479 -0.0443  1.5635  1.9088
11120TIP3    H254776   4.820   5.745   1.415 -0.2386  1.3682  1.5507
11121TIP3   OH254777   3.644   6.674  13.172  0.4313  0.5560 -1.1472
11121TIP3    H154778   3.591   6.596  13.189 -1.7152  1.9028 -1.4009
11121TIP3    H254779   3.647   6.720  13.256  1.5892  0.3019 -1.0291
11122TIP3   OH254780   4.380   4.004  13.736 -0.0597 -0.5006 -0.2793
11122TIP3    H154781   4.420   3.923  13.702  0.7752 -0.2954  0.1726
11122TIP3    H254782   4.287   3.994  13.719 -0.0185 -1.7453  0.1267
11123TIP3   OH254783   1.613   2.314  13.599  0.0924 -0.2759  0.3165
11123TIP3    H154784   1.662   2.371  13.539 -0.0498 -1.0092 -0.5151
11123TIP3    H254785   1.525   2.350  13.600 -0.3482 -1.2152 -1.2432
11124TIP3   OH254786   4.649   3.445  12.463  0.6282 -0.1458 -0.2997
11124TIP3    H154787   4.687   3.357  12.451  0.4445 -0.2833  0.1331
11124TIP3    H254788   4.554   3.431  12.454  0.5403 -0.1213  0.5272
11125TIP3   OH254789   5.924   6.787  14.765 -0.3808 -0.1162 -0.2674
11125TIP3    H154790   5.983   6.852  14.805  0.4903 -2.7593  3.2694
11125TIP3    H254791   5.839   6.831  14.762  0.7219  2.1329 -0.8542
11126TIP3   OH254792   1.024   2.236  12.318  0.2828  0.2512  0.3064
11126TIP3    H154793   1.118   2.253  12.328 -0.2886  3.9941  0.4980
11126TIP3    H254794   1.018   2.189  12.235  2.2561  1.0234 -0.3439
11127TIP3   OH254795   5.268   1.472   6.045 -0.4843 -0.3585 -0.1829
11127TIP3    H154796   5.216   1.552   6.051 -0.2198 -0.0900 -1.2501
11127TIP3    H254797   5.228   1.412   6.109 -2.6833 -0.4724 -1.5479
11128TIP3   OH254798   0.588   4.147  13.508  0.4769 -0.4569 -0.2608
11128TIP3    H154799   0.572   4.112  13.420 -0.5481  2.4297 -1.3514
11128TIP3    H254800   0.683   4.155  13.514  0.5041  0.7952 -1.7973
11129TIP3   OH254801   2.175   3.190  13.086 -0.1628 -0.6993 -0.0939
11129TIP3    H154802   2.094   3.229  13.053 -0.9794 -1.3514  1.0522
11129TIP3    H254803   2.191   3.114  13.030 -1.5176 -1.7766  0.8994
11130TIP3   OH254804   1.104   1.257   4.615 -0.0097  0.2619  0.6895
11130TIP3    H154805   1.017   1.256   4.655 -0.5176  0.7084 -0.3513
11130TIP3    H254806   1.088   1.281   4.524  1.3886  2.3107  0.9199
11131TIP3   OH254807   2.677   5.532   6.705  0.3834 -0.4191 -0.1190
11131TIP3    H154808   2.618   5.591   6.659  0.8952 -0.4618 -0.8419
11131TIP3    H254809   2.620   5.480   6.762 -0.0189  1.2833  1.1293
11132TIP3   OH254810   1.823   3.333  11.783  0.1674 -0.3368 -0.2315
11132TIP3    H154811   1.730   3.355  11.777  0.4676  1.3379  0.7419
11132TIP3    H254812   1.857   3.349  11.695  0.3988  3.6060  0.3914
11133TIP3   OH254813   3.707   4.569   4.340 -0.0309 -0.0556 -0.2112
11133TIP3    H154814   3.773   4.535   4.280  0.2751 -1.3253  0.7906
11133TIP3    H254815   3.743   4.554   4.427 -0.7778  1.0803  0.3226
11134TIP3   OH254816   3.835   5.872  16.110 -0.3607 -0.1390  0.5557
11134TIP3    H154817   3.773   5.815  16.154 -2.1726  1.2347 -0.0939
11134TIP3    H254818   3.902   5.891  16.176 -1.6664 -0.1222  1.9185
11135TIP3   OH254819   1.291   6.165   1.552 -0.5339  0.1435 -0.7878
11135TIP3    H154820   1.270   6.097   1.615 -3.4477 -0.7963 -2.5516
11135TIP3    H254821   1.378   6.141   1.518 -0.5020 -1.3602  0.2718
11136TIP3   OH254822   1.954   4.804   1.916  0.1344  0.0295 -0.0321
11136TIP3    H154823   1.945   4.712   1.941  1.4712  0.1147  0.8462
11136TIP3    H254824   1.887   4.817   1.849 -0.3806 -1.4608  0.1568
11137TIP3   OH254825   4.792   5.252   4.938 -0.1546 -0.1279  0.6768
11137TIP3    H154826   4.791   5.173   4.991  2.3431 -1.9194 -1.6862
11137TIP3    H254827   4.884   5.277   4.933 -0.7521  2.3068  0.4077
11138TIP3   OH254828   6.776   5.018   5.238 -0.2801  0.3703 -0.2297
11138TIP3    H154829   6.716   5.012   5.164 -1.7635  1.1248  0.8620
11138TIP3    H254830   6.811   5.107   5.233 -2.2807  1.3202  1.3119
11139TIP3   OH254831   2.587   4.919  13.019  0.0250  0.2435 -0.7370
11139TIP3    H154832   2.554   4.973  12.947  0.1639  0.4425 -0.6532
11139TIP3    H254833   2.593   4.979  13.093 -2.8690 -0.5862  0.2711
11140TIP3   OH254834   4.942   5.803  15.964  0.7034 -0.0643  0.0014
11140TIP3    H154835   4.947   5.711  15.990 -0.2785 -0.3415 -0.7074
11140TIP3    H254836   4.921   5.800  15.871 -1.4840  0.8535  0.4172
11141TIP3   OH254837   2.539   4.524  16.916  0.0185  0.3623 -0.4264
11141TIP3    H154838   2.454   4.562  16.894 -0.5535  0.1913  1.3480
11141TIP3    H254839   2.561   4.562  17.001  0.7922 -1.0893  0.0554
11142TIP3   OH254840   0.824   6.302   5.370  0.6313 -0.4414  0.7375
11142TIP3    H154841   0.905   6.277   5.413  0.2207 -2.7190  0.3638
11142TIP3    H254842   0.824   6.251   5.288  0.0099  1.4736 -0.5163
11143TIP3   OH254843   2.477   1.943   5.365  0.0014 -0.2657 -0.0853
11143TIP3    H154844   2.457   1.852   5.344 -0.2581  0.1350 -1.7171
11143TIP3    H254845   2.546   1.967   5.303  1.2447  0.1832  1.4089
11144TIP3   OH254846   0.136   4.357   5.650  0.0602 -0.1624  0.2447
11144TIP3    H154847   0.181   4.419   5.593  0.9316 -1.1270 -0.1560
11144TIP3    H254848   0.206   4.311   5.696 -0.5177 -1.3761 -0.0369
11145TIP3   OH254849   5.429   5.664  11.412  0.4419 -0.3921 -0.2520
11145TIP3    H154850   5.506   5.629  11.367  0.9013  0.4583 -0.1510
11145TIP3    H254851   5.459   5.747  11.449 -0.8026  0.4689 -1.1015
11146TIP3   OH254852   0.563   4.236   6.022  0.1645  0.3779  0.3386
11146TIP3    H154853   0.551   4.142   6.033 -0.6804  0.1839 -1.8037
11146TIP3    H254854   0.479   4.274   6.046  0.8462  0.7275  2.2868
11147TIP3   OH254855   3.242   0.633  16.524  0.1863  0.2364  0.5508
11147TIP3    H154856   3.167   0.689  16.543  0.0873  0.3775 -0.2240
11147TIP3    H254857   3.282   0.617  16.610 -0.2010  0.8994  0.8678
11148TIP3   OH254858   0.424   1.475   1.059 -0.0813  0.4378  0.0423
11148TIP3    H154859   0.494   1.459   0.995 -0.4173  2.3800 -0.8734
11148TIP3    H254860   0.424   1.396   1.114  1.7384 -0.3093 -0.9266
11149TIP3   OH254861   1.599   6.162   3.992  0.5729  0.3407 -0.0380
11149TIP3    H154862   1.665   6.122   3.935 -0.9311 -1.1887 -0.8278
11149TIP3    H254863   1.526   6.099   3.990 -1.0020  2.0734  0.5776
11150TIP3   OH254864   6.205   2.956  11.924  0.1184 -0.8379 -0.0408
11150TIP3    H154865   6.141   2.955  11.852 -0.4867  0.0022  0.4646
11150TIP3    H254866   6.271   2.892  11.898  0.2618 -0.0960 -1.6608
11151TIP3   OH254867   3.479   4.809   5.401 -0.3335  0.4525  0.0630
11151TIP3    H154868   3.446   4.838   5.317  0.3019  0.7237 -0.0948
11151TIP3    H254869   3.414   4.839   5.465 -1.5876 -1.0189 -0.4463
11152TIP3   OH254870   2.784   1.246  12.453  0.3524  0.1166  0.0117
11152TIP3    H154871   2.798   1.164  12.500  0.5758  1.1994  1.9349
11152TIP3    H254872   2.793   1.314  12.520 -1.0172  1.6492 -1.2785
11153TIP3   OH254873   0.193   4.925  11.203 -0.2151  0.7427  0.0855
11153TIP3    H154874   0.235   4.892  11.124 -0.6908  1.0957 -0.3235
11153TIP3    H254875   0.163   5.013  11.180  2.0850  2.0195  1.5191
11154TIP3   OH254876   5.632   6.601   2.276  0.0872 -0.4958  0.5585
11154TIP3    H154877   5.601   6.653   2.202  0.5080  0.9968  1.3988
11154TIP3    H254878   5.556   6.549   2.303  0.1309 -1.6732 -1.3788
11155TIP3   OH254879   5.396   4.502   0.489  0.0547 -0.2435 -0.7748
11155TIP3    H154880   5.333   4.434   0.514  0.8605 -0.2053  1.5928
11155TIP3    H254881   5.349   4.557   0.427 -1.8361 -0.9024  0.0001
11156TIP3   OH254882   0.022   2.388   0.147  0.6027 -0.7154  0.2822
11156TIP3    H154883  -0.015   2.472   0.174  0.1546 -0.3480 -1.3436
11156TIP3    H254884   0.059   2.405   0.060  0.2965 -2.2532 -0.1861
11157TIP3   OH254885   0.125   0.264   1.936 -0.0953  0.1972  0.0928
11157TIP3    H154886   0.195   0.205   1.909 -0.2963  0.7132 -1.6494
11157TIP3    H254887   0.067   0.210   1.989  1.5842 -0.2434  1.5642
11158TIP3   OH254888   4.182   1.892  16.488 -0.4683  0.1383  0.3549
11158TIP3    H154889   4.197   1.875  16.395  0.1958  0.1445  0.4579
11158TIP3    H254890   4.110   1.833  16.512 -0.6927  0.1912 -0.1770
11159TIP3   OH254891   6.670   2.041   5.199 -0.5147 -0.3932 -0.3028
11159TIP3    H154892   6.591   2.018   5.249  1.3126 -1.0850  2.4995
11159TIP3    H254893   6.728   1.967   5.211  1.3334  0.9512 -0.5727
11160TIP3   OH254894   4.609   1.731   6.107 -0.3863 -0.4703  0.9440
11160TIP3    H154895   4.551   1.806   6.112  1.8650  1.3314  1.4513
11160TIP3    H254896   4.641   1.718   6.197  2.8746  1.1033  0.1728
11161TIP3   OH254897   1.210   4.189   5.291 -0.0159 -0.3444  0.3291
11161TIP3    H154898   1.159   4.260   5.254 -1.0082 -0.2190  1.8502
11161TIP3    H254899   1.216   4.210   5.384  1.4939 -1.1702  0.4469
11162TIP3   OH254900   6.509   4.059  11.210 -0.3822 -0.4040 -0.1233
11162TIP3    H154901   6.574   4.088  11.145  1.6896 -1.5841  1.2765
11162TIP3    H254902   6.552   4.073  11.294 -2.2896 -0.5503  0.9257
11163TIP3   OH254903   3.637   3.768   3.870  0.3442  0.3967  0.4021
11163TIP3    H154904   3.617   3.844   3.924  1.5427  1.5518 -0.6995
11163TIP3    H254905   3.649   3.804   3.782  0.4752 -1.1390 -0.2380
11164TIP3   OH254906   4.849   6.317  16.890  0.3000 -0.2795  0.5079
11164TIP3    H154907   4.757   6.338  16.876  0.2461 -0.5327  0.4742
11164TIP3    H254908   4.848   6.239  16.945  0.4694 -0.9270 -0.3767
11165TIP3   OH254909   3.379   6.512  13.670 -0.2442 -0.2871 -0.4317
11165TIP3    H154910   3.383   6.437  13.729  2.0903  0.4988  0.5221
11165TIP3    H254911   3.399   6.475  13.584 -1.4241 -1.0897 -0.3834
11166TIP3   OH254912   1.355   3.193   3.686  0.1844  0.3609 -0.3339
11166TIP3    H154913   1.355   3.285   3.659 -0.8274  0.9404  1.4439
11166TIP3    H254914   1.336   3.196   3.780 -1.7569 -1.7303 -0.5771
11167TIP3   OH254915   2.368   3.236  14.744  0.1723 -0.1618  0.1585
11167TIP3    H154916   2.311   3.207  14.815 -2.9628  1.2847 -1.5903
11167TIP3    H254917   2.384   3.157  14.692 -0.5499 -0.5435  0.5026
11168TIP3   OH254918   4.366   6.344   4.006  0.3055 -0.4298 -0.5852
11168TIP3    H154919   4.278   6.357   4.042 -0.0070 -1.7497 -0.8193
11168TIP3    H254920   4.353   6.288   3.930  1.2276  0.3701 -1.3623
11169TIP3   OH254921   0.943   1.900  14.282 -0.1564 -0.0577  0.5177
11169TIP3    H154922   0.963   1.861  14.197 -0.8713 -1.7809  1.0964
11169TIP3    H254923   0.859   1.944  14.270 -0.1101 -0.0350  0.2715
11170TIP3   OH254924   5.293   6.072  16.331  0.3954  0.0974 -0.4063
11170TIP3    H154925   5.249   6.132  16.392  1.8067 -1.4708  2.3754
11170TIP3    H254926   5.361   6.125  16.290  1.4874  0.5341  1.8276
11171TIP3   OH254927   2.859   4.180  11.689  0.1039 -0.1161  0.2059
11171TIP3    H154928   2.889   4.254  11.636  1.5379 -1.0401 -0.3224
11171TIP3    H254929   2.929   4.165  11.752 -1.2512  0.4820  1.9528
11172TIP3   OH254930   1.702   4.192   3.572  0.1909 -0.2811  0.3420
11172TIP3    H154931   1.791   4.203   3.538  0.0571 -0.4286 -0.0700
11172TIP3    H254932   1.665   4.280   3.571  0.8390  0.0469  1.9955
11173TIP3   OH254933   4.638   5.016  15.378 -0.0197 -0.1532 -0.0636
11173TIP3    H154934   4.727   5.048  15.392 -0.0823 -0.6434  1.5978
11173TIP3    H254935   4.626   4.947  15.443 -1.0063 -1.3709 -1.4387
11174TIP3   OH254936   5.887   5.891  12.031 -0.2128  0.1558  0.3135
11174TIP3    H154937   5.919   5.801  12.039  0.4359  0.3281 -0.2609
11174TIP3    H254938   5.851   5.895  11.942 -1.3176  0.1329  0.7443
11175TIP3   OH254939   4.803   4.944   1.845  0.0923  0.1453  0.4785
11175TIP3    H154940   4.868   4.984   1.788 -1.2396  1.7797  0.0064
11175TIP3    H254941   4.831   4.853   1.856  1.7350  0.4886 -0.7087
11176TIP3   OH254942   4.402   3.952   6.686 -0.6556  0.1180  0.7069
11176TIP3    H154943   4.314   3.988   6.675  0.2949  2.0044 -1.6618
11176TIP3    H254944   4.402   3.871   6.636 -1.2476 -0.3567  1.4462
11177TIP3   OH254945   4.355   1.349   2.040  0.0699  0.4299 -0.6450
11177TIP3    H154946   4.294   1.415   2.007 -1.2502 -0.7096 -0.6119
11177TIP3    H254947   4.355   1.362   2.134 -2.7822 -1.5721 -0.2125
11178TIP3   OH254948   3.801   5.746  15.486 -0.4279 -0.2601 -0.0641
11178TIP3    H154949   3.741   5.704  15.423  0.1921 -2.2417  0.5947
11178TIP3    H254950   3.866   5.790  15.431 -0.9593 -0.3723 -0.7968
11179TIP3   OH254951   2.966   4.033  14.767  0.6382 -0.1521  0.8180
11179TIP3    H154952   2.970   3.940  14.787  1.0341 -0.0774  1.0928
11179TIP3    H254953   2.949   4.075  14.851 -1.1681 -0.0818  0.4655
11180TIP3   OH254954   3.412   0.049   5.417  0.0126  0.1571  0.1793
11180TIP3    H154955   3.421   0.144   5.407 -2.4306  0.4923  0.5040
11180TIP3    H254956   3.419   0.034   5.512 -2.1515  0.4149  0.4295
11181TIP3   OH254957   0.020   5.465  14.926  0.6268  0.0404  0.3377
11181TIP3    H154958  -0.018   5.468  15.014  0.2836 -1.6594  0.2790
11181TIP3    H254959  -0.045   5.509  14.871 -0.2764 -0.9366  0.5844
11182TIP3   OH254960   1.917   4.917  15.739  0.1724 -0.2996 -0.1711
11182TIP3    H154961   1.879   4.912  15.651  0.8611 -1.1367 -0.4229
11182TIP3    H254962   1.961   4.834  15.751  0.3844 -0.0482  0.8406
11183TIP3   OH254963   0.035   4.453   5.904  0.6636  0.1082 -0.2638
11183TIP3    H154964   0.058   4.445   5.812  0.1298  1.3238 -0.5267
11183TIP3    H254965   0.117   4.473   5.948  0.6411  1.4018 -0.7635
11184TIP3   OH254966   0.143   6.123  15.497 -0.4817  0.6036  0.0607
11184TIP3    H154967   0.073   6.103  15.435 -1.3244 -0.6888  1.3711
11184TIP3    H254968   0.194   6.042  15.503 -1.0319  0.3403  1.7937
11185TIP3   OH254969   0.278   2.883  16.640  0.6865  0.3048 -0.1856
11185TIP3    H154970   0.284   2.881  16.735  2.1512  0.2005 -0.2614
11185TIP3    H254971   0.208   2.946  16.621 -0.3048 -0.4105  0.9614
11186TIP3   OH254972   2.691   1.800  16.339 -0.3095 -0.0388  0.1648
11186TIP3    H154973   2.607   1.777  16.300  0.2501 -1.3410 -0.3115
11186TIP3    H254974   2.670   1.871  16.401 -2.2112 -2.0163  1.9601
11187TIP3   OH254975   0.018   5.495   0.860  0.1822 -0.1484 -0.1399
11187TIP3    H154976   0.110   5.499   0.885  0.2856  3.3951 -0.5756
11187TIP3    H254977   0.002   5.402   0.844  2.7691 -1.3547  3.0273
11188TIP3   OH254978   5.699   5.285  16.899  0.1826 -0.6294  0.4557
11188TIP3    H154979   5.755   5.212  16.872  2.9332  1.3165  0.4420
11188TIP3    H254980   5.697   5.344  16.823 -1.8853 -0.5526  0.5036
11189TIP3   OH254981   5.623   6.553  11.218  0.4139  0.0015  0.5237
11189TIP3    H154982   5.589   6.517  11.135  0.6621  0.8093  0.0589
11189TIP3    H254983   5.706   6.594  11.194  1.5035 -1.5113  1.5647
11190TIP3   OH254984   5.777   4.779  14.308 -0.2587  0.1143  0.0354
11190TIP3    H154985   5.829   4.767  14.388 -0.3937 -0.1696  0.0803
11190TIP3    H254986   5.687   4.764  14.335 -0.2314 -0.7405 -0.3263
11191TIP3   OH254987   3.215   3.428   0.107 -0.1544 -0.7971 -0.1318
11191TIP3    H154988   3.286   3.366   0.125 -0.7347 -1.1917  0.9040
11191TIP3    H254989   3.218   3.490   0.180 -0.1739 -0.1416 -0.6722
11192TIP3   OH254990   4.584   5.658  16.868  0.2812 -0.1475 -0.4594
11192TIP3    H154991   4.632   5.576  16.860  0.4927  0.1399 -2.7383
11192TIP3    H254992   4.498   5.633  16.901  0.6827 -1.1341 -0.1263
11193TIP3   OH254993   5.679   0.726   2.358 -0.2772 -0.4525  0.0497
11193TIP3    H154994   5.653   0.694   2.444  0.6984  0.1428  0.5809
11193TIP3    H254995   5.756   0.781   2.374 -0.7992  0.6652 -1.0485
11194TIP3   OH254996   3.026   6.515  11.520  0.2897 -0.4825 -0.2242
11194TIP3    H154997   2.973   6.438  11.541  0.4938 -0.8905 -1.1730
11194TIP3    H254998   2.983   6.586  11.567 -0.7145 -0.9302 -0.4325
11195TIP3   OH254999   3.215   5.435   4.407 -0.2692  0.2630 -0.0329
11195TIP3    H155000   3.249   5.507   4.354 -0.8752  0.0639 -0.7003
11195TIP3    H255001   3.293   5.385   4.432  0.0297  0.3976 -0.6710
11196TIP3   OH255002   2.278   1.183  11.442 -0.7133  0.1047 -0.7762
11196TIP3    H155003   2.301   1.262  11.491 -0.4544  0.7624 -1.9317
11196TIP3    H255004   2.354   1.166  11.387 -0.3368 -1.5685  0.1992
11197TIP3   OH255005   1.393   4.127  13.385  0.3190  0.3886 -0.0399
11197TIP3    H155006   1.476   4.136  13.432 -0.0118  0.5451  0.5348
11197TIP3    H255007   1.350   4.212  13.395 -0.6950 -0.2215  1.2495
11198TIP3   OH255008   4.982   5.282  11.366  0.0877 -0.1684  0.4326
11198TIP3    H155009   4.914   5.218  11.384  1.0720 -0.5129  3.5348
11198TIP3    H255010   4.951   5.362  11.409  0.6905  0.2865  0.0343
11199TIP3   OH255011   6.535   1.473   2.553 -0.8606  0.0002  0.5413
11199TIP3    H155012   6.496   1.558   2.573  0.5729  1.3532 -1.9218
11199TIP3    H255013   6.625   1.479   2.586 -1.2336 -1.2955  1.9303
11200TIP3   OH255014   6.286   4.707   0.669  0.4988 -0.1474  0.3674
11200TIP3    H155015   6.267   4.800   0.684 -0.8679 -0.2171 -0.7164
11200TIP3    H255016   6.206   4.662   0.698  0.5846 -0.8506 -0.4485
11201TIP3   OH255017   5.822   1.559  14.274  0.2845  0.3334 -0.2962
11201TIP3    H155018   5.824   1.650  14.306  0.2445  0.7936 -1.5568
11201TIP3    H255019   5.729   1.542  14.260  0.2275 -0.1704  0.6508
11202TIP3   OH255020   2.814   6.470   0.050 -0.4931 -0.1909  0.5208
11202TIP3    H155021   2.836   6.487   0.141 -0.9190 -1.7569  0.9514
11202TIP3    H255022   2.842   6.380   0.035 -0.3159  0.0775 -0.9459
11203TIP3   OH255023   1.571   2.772  12.387  0.2688 -0.2392  0.7173
11203TIP3    H155024   1.605   2.802  12.471 -0.8202  0.3051  0.9732
11203TIP3    H255025   1.535   2.851  12.346  1.4795 -0.3380 -0.6164
11204TIP3   OH255026   6.599   6.565  15.876 -0.1783  0.1432 -0.0990
11204TIP3    H155027   6.548   6.493  15.912  0.1687  1.1067  2.5292
11204TIP3    H255028   6.596   6.552  15.781 -3.3214 -1.1461  0.0572
11205TIP3   OH255029   2.963   3.663  13.557 -0.1354 -0.3942 -0.2069
11205TIP3    H155030   2.952   3.728  13.626 -0.8917 -0.8705  0.1403
11205TIP3    H255031   2.874   3.650  13.522  0.2376 -0.1496 -1.2809
11206TIP3   OH255032   2.436   5.942   1.678 -0.2724 -0.6129 -0.2432
11206TIP3    H155033   2.453   5.924   1.586 -0.3865  2.8010 -1.0671
11206TIP3    H255034   2.498   6.011   1.701 -0.0812 -1.5339  2.3644
11207TIP3   OH255035   2.237   2.262  14.453  0.1882 -0.3594  0.0133
11207TIP3    H155036   2.328   2.289  14.441  0.5228 -1.8491 -1.1791
11207TIP3    H255037   2.188   2.314  14.389  0.1191  0.6890  0.8868
11208TIP3   OH255038   1.826   1.779  14.106  0.4632 -0.0614  0.4556
11208TIP3    H155039   1.809   1.853  14.165 -0.1639  0.5223 -0.4233
11208TIP3    H255040   1.799   1.702  14.156 -1.6320  0.5553  0.4068
11209TIP3   OH255041   4.805   1.336   3.701  0.0879  0.0829 -0.4212
11209TIP3    H155042   4.818   1.243   3.682  0.8575  0.0526  0.2239
11209TIP3    H255043   4.767   1.337   3.789 -0.1304  0.3764 -0.5179
11210TIP3   OH255044   0.994   2.511  13.580 -0.3742 -0.2994 -0.2005
11210TIP3    H155045   1.069   2.538  13.527  0.4290  0.8186  1.4100
11210TIP3    H255046   0.993   2.415  13.573  1.5969 -0.3907  0.2349
11211TIP3   OH255047   2.378   2.160   6.305  0.4985 -0.2673 -0.3733
11211TIP3    H155048   2.336   2.168   6.220  2.5332 -1.1825 -1.5363
11211TIP3    H255049   2.363   2.068   6.331  0.8661 -0.3059 -0.2938
11212TIP3   OH255050   3.819   0.817   5.764 -0.5764 -0.6762 -0.1722
11212TIP3    H155051   3.742   0.806   5.821 -1.3445 -1.6685 -1.3351
11212TIP3    H255052   3.801   0.896   5.714 -1.1107 -1.2010 -0.8234
11213TIP3   OH255053   3.914   3.864  17.025  0.3358  0.7265 -0.4669
11213TIP3    H155054   4.001   3.861  16.985  1.8564 -1.4252  2.5881
11213TIP3    H255055   3.876   3.778  17.004 -0.1506  0.8315 -0.0273
11214TIP3   OH255056   6.596   1.576  11.502  0.1470  0.0192  0.2293
11214TIP3    H155057   6.505   1.547  11.493  0.5853 -1.0613 -1.0740
11214TIP3    H255058   6.600   1.659  11.453  0.0686 -0.4358 -0.5685
11215TIP3   OH255059   5.677   2.333   2.961 -0.1551  0.1592  0.2184
11215TIP3    H155060   5.667   2.238   2.973 -0.8297  0.4150  2.0005
11215TIP3    H255061   5.639   2.350   2.875 -0.0578 -1.1771 -0.1192
11216TIP3   OH255062   4.534   6.079  13.836  0.1387 -0.4472  0.0900
11216TIP3    H155063   4.551   6.069  13.742 -1.9171  1.4995 -0.5654
11216TIP3    H255064   4.510   5.991  13.865  0.8572 -1.0956 -1.1860
11217TIP3   OH255065   0.745   1.763   1.259 -0.1010  0.4224  0.1815
11217TIP3    H155066   0.768   1.671   1.262  0.7016  0.5859 -0.5244
11217TIP3    H255067   0.829   1.809   1.253 -0.4379  1.2652  1.6507
11218TIP3   OH255068   5.635   5.353  12.763 -0.2286 -0.9539 -0.4284
11218TIP3    H155069   5.651   5.407  12.840 -1.8506 -1.5606  0.3764
11218TIP3    H255070   5.701   5.284  12.769  1.0281  0.1662 -0.7732
11219TIP3   OH255071   5.924   1.594  11.499 -0.0310  0.3740 -0.4059
11219TIP3    H155072   5.947   1.593  11.592 -3.2428 -1.7133  0.5481
11219TIP3    H255073   5.997   1.549  11.455  0.3240 -1.0660  1.5276
11220TIP3   OH255074   3.279   5.300  14.822 -0.2505 -0.4859 -0.3572
11220TIP3    H155075   3.255   5.255  14.904 -0.0731 -1.5608 -0.8794
11220TIP3    H255076   3.375   5.298  14.822 -0.2441 -0.1204 -0.3966
11221TIP3   OH255077   6.021   5.610  15.716 -0.6097 -0.3113 -0.2295
11221TIP3    H155078   5.938   5.563  15.719 -0.8383  0.0175 -1.2568
11221TIP3    H255079   6.078   5.556  15.662  0.4445 -1.4233  1.8456
11222TIP3   OH255080   5.120   4.551  12.908  0.0998  0.6877 -0.9331
11222TIP3    H155081   5.099   4.645  12.914  0.0718  0.6530 -0.4691
11222TIP3    H255082   5.081   4.523  12.825 -1.1000  0.7789 -0.4250
11223TIP3   OH255083   3.055   5.944  16.563 -0.1872 -0.2085  0.3677
11223TIP3    H155084   3.022   5.984  16.643  1.0775  1.2247  0.2200
11223TIP3    H255085   3.132   5.894  16.590  1.0217  1.3265 -0.0732
11224TIP3   OH255086   0.850   1.307  14.603 -0.1290  0.3259  0.3112
11224TIP3    H155087   0.870   1.398  14.586  0.5963 -0.1145 -1.3369
11224TIP3    H255088   0.755   1.300  14.591 -0.1848  0.8466  0.4476
11225TIP3   OH255089   4.455   1.101  15.836  0.1396  0.0193 -0.0462
11225TIP3    H155090   4.428   1.073  15.924  0.9100 -1.8037 -0.3605
11225TIP3    H255091   4.544   1.066  15.826  0.3756  0.8987 -1.2688
11226TIP3   OH255092   5.470   0.046  12.728 -0.4396 -0.1701 -0.2028
11226TIP3    H155093   5.543   0.012  12.780 -1.3470 -2.9491 -0.5790
11226TIP3    H255094   5.509   0.113  12.673  1.5304 -0.5805  0.6073
11227TIP3   OH255095   2.482   2.739  14.159 -0.3035 -0.0661  0.2975
11227TIP3    H155096   2.433   2.820  14.173 -1.4050 -0.7203  0.3404
11227TIP3    H255097   2.445   2.702  14.080 -1.6399 -1.8035  1.6477
11228TIP3   OH255098   6.451   2.514   1.489 -0.1608  0.1433 -0.3979
11228TIP3    H155099   6.531   2.461   1.492  0.1611  0.6247 -0.3380
11228TIP3    H255100   6.414   2.508   1.577 -0.2015 -0.0898 -0.4292
11229TIP3   OH255101   5.349   2.231  14.568 -0.5877  0.2808 -0.1216
11229TIP3    H155102   5.409   2.178  14.515  0.0478 -0.2164  1.0496
11229TIP3    H255103   5.337   2.311  14.518 -0.0246 -0.1814 -1.0209
11230TIP3   OH255104   3.899   6.801  15.638 -0.4117  0.1375  0.4667
11230TIP3    H155105   3.809   6.804  15.607 -0.3908  0.4793  0.4401
11230TIP3    H255106   3.952   6.813  15.558 -0.3213 -1.0422  0.3283
11231TIP3   OH255107   4.477   3.759  14.435 -0.2748 -0.2035  0.0041
11231TIP3    H155108   4.410   3.712  14.486 -0.9184  0.0912 -0.5555
11231TIP3    H255109   4.545   3.694  14.420 -0.4199 -0.5063  0.6012
11232TIP3   OH255110   2.887   3.991   2.597  0.8493 -0.1838 -0.3090
11232TIP3    H155111   2.924   3.911   2.559  0.8517  1.2160 -3.5794
11232TIP3    H255112   2.962   4.049   2.610  0.6235  0.0501 -0.0366
11233TIP3   OH255113   2.450   5.357   6.133 -0.1693  0.2177 -0.2661
11233TIP3    H155114   2.412   5.273   6.158 -2.0521  1.1164  0.0507
11233TIP3    H255115   2.486   5.393   6.214  1.2526 -0.5452 -0.5285
11234TIP3   OH255116   2.349   6.758  12.473  0.0306  0.2186 -0.4508
11234TIP3    H155117   2.286   6.709  12.421 -0.2340  1.3451 -1.2386
11234TIP3    H255118   2.300   6.833  12.506  0.2424 -0.3565  1.2982
11235TIP3   OH255119   0.015   0.562   6.387  0.1770 -0.2484  0.0103
11235TIP3    H155120  -0.053   0.609   6.435  0.6404  0.2887  0.1446
11235TIP3    H255121   0.008   0.594   6.297  1.6813  1.4909  0.4487
11236TIP3   OH255122   3.012   6.280  16.400  0.3346 -0.0656  0.5641
11236TIP3    H155123   2.992   6.188  16.385 -0.0207  0.2251 -0.8977
11236TIP3    H255124   2.952   6.307  16.470  1.2494 -1.2024  1.8449
11237TIP3   OH255125   2.900   6.130   3.233 -0.1374  0.1115 -0.6707
11237TIP3    H155126   2.820   6.180   3.217  0.3585  1.3534  0.5360
11237TIP3    H255127   2.898   6.060   3.168 -2.3241 -0.0479 -0.4906
11238TIP3   OH255128   4.150   0.011  16.005  0.4976  0.1489  0.3098
11238TIP3    H155129   4.141  -0.020  16.095  1.5971  0.7813  0.6516
11238TIP3    H255130   4.184  -0.064  15.956  0.1709 -0.1098  0.4811
11239TIP3   OH255131   3.389   1.267   1.929 -0.0251 -0.0473 -0.0887
11239TIP3    H155132   3.484   1.276   1.934  0.0203  0.6744 -1.6423
11239TIP3    H255133   3.356   1.352   1.960 -0.1828 -0.3288  0.5352
11240TIP3   OH255134   5.490   6.144   0.257 -0.2628 -0.5626  0.0521
11240TIP3    H155135   5.560   6.207   0.238 -0.6546 -0.4544 -1.1156
11240TIP3    H255136   5.496   6.130   0.352  0.5463  0.3801  0.1639
11241TIP3   OH255137   1.073   3.757   2.332 -0.2670  0.8251  0.0220
11241TIP3    H155138   0.986   3.734   2.365 -0.3839 -0.4315 -1.0645
11241TIP3    H255139   1.063   3.846   2.300 -1.5600  0.2520 -1.3020
11242TIP3   OH255140   6.511   4.910   4.678 -0.4312 -0.3715 -0.5475
11242TIP3    H155141   6.519   4.815   4.669 -2.0927 -0.4584 -1.5086
11242TIP3    H255142   6.439   4.922   4.739 -0.7752  0.2695 -1.0702
11243TIP3   OH255143   5.548   3.897   5.848  0.0560 -0.3126  0.4863
11243TIP3    H155144   5.609   3.827   5.826  0.2582 -0.2426  0.8140
11243TIP3    H255145   5.602   3.964   5.890 -0.1786 -0.0733  0.4139
11244TIP3   OH255146   0.405   3.604  14.733 -0.0709 -0.3925  0.3122
11244TIP3    H155147   0.453   3.544  14.790 -0.2644 -1.3652 -0.5232
11244TIP3    H255148   0.389   3.554  14.653  1.3350  1.3457 -1.1336
11245TIP3   OH255149   4.509   6.348   5.996  0.4973 -0.4443 -0.1535
11245TIP3    H155150   4.416   6.370   6.010  0.9676  1.2046  0.6437
11245TIP3    H255151   4.555   6.430   6.013  2.2804 -1.7044  1.3700
11246TIP3   OH255152   6.581   6.249   3.356  0.9528 -0.0814 -0.0104
11246TIP3    H155153   6.518   6.311   3.317 -0.7084 -1.4915  0.3187
11246TIP3    H255154   6.565   6.167   3.310  2.9497 -0.3665 -0.2612
11247TIP3   OH255155   3.731   3.697  13.730 -0.2883  0.3342  0.1427
11247TIP3    H155156   3.716   3.787  13.700 -0.4300 -0.1386 -1.2683
11247TIP3    H255157   3.645   3.665  13.754 -0.4324  0.1587 -0.5915
11248TIP3   OH255158   0.463   4.791   1.643 -0.1258 -0.8308 -0.1880
11248TIP3    H155159   0.501   4.821   1.561 -0.6385 -1.4192 -0.6492
11248TIP3    H255160   0.403   4.721   1.618  0.1567 -1.4277  0.7396
11249TIP3   OH255161   6.036   0.471   2.217  0.3916  0.3065  0.5956
11249TIP3    H155162   6.051   0.385   2.178  0.5999  0.6145 -0.0111
11249TIP3    H255163   6.117   0.519   2.202 -0.4254  1.2874 -0.8767
11250TIP3   OH255164   0.355   4.658  16.613  0.4019 -0.2278  0.3569
11250TIP3    H155165   0.388   4.748  16.602 -0.2143 -0.2475 -2.5195
11250TIP3    H255166   0.422   4.614  16.666  1.3193  1.5971  0.8028
11251TIP3   OH255167   4.617   3.700   5.832  0.1517 -0.0389  0.4635
11251TIP3    H155168   4.529   3.738   5.827 -0.3818 -1.3592 -1.6880
11251TIP3    H255169   4.613   3.640   5.907 -0.6315  0.2751  0.6859
11252TIP3   OH255170   2.870   5.226   2.763  0.0288  0.0344 -0.5982
11252TIP3    H155171   2.777   5.208   2.748 -0.3692  0.4826  1.1382
11252TIP3    H255172   2.894   5.171   2.838  0.7033  1.1834  0.0550
11253TIP3   OH255173   5.300   2.595   6.321 -0.3441  0.5806 -0.4804
11253TIP3    H155174   5.284   2.609   6.228 -0.4138 -0.6314 -0.6780
11253TIP3    H255175   5.391   2.565   6.326 -1.3031 -2.7541 -0.6263
11254TIP3   OH255176   3.022   0.340  11.672  0.3435  0.0590  0.0424
11254TIP3    H155177   3.080   0.266  11.650  1.6422  1.5748 -2.0061
11254TIP3    H255178   2.942   0.323  11.622  0.1227 -0.5838  0.5972
11255TIP3   OH255179   0.393   3.224   1.975 -0.1576  0.3515  0.4685
11255TIP3    H155180   0.463   3.189   2.030  0.4065  2.2898  1.0818
11255TIP3    H255181   0.434   3.235   1.889 -0.4179 -0.7221  0.2032
11256TIP3   OH255182   6.381   4.899  16.040 -0.4110  0.2398  0.7622
11256TIP3    H155183   6.311   4.881  15.977 -0.4968  2.6046  0.0758
11256TIP3    H255184   6.444   4.828  16.026 -1.3365 -0.3628 -0.6170
11257TIP3   OH255185   4.452   3.423  16.437  0.0953 -0.2484  0.2798
11257TIP3    H155186   4.467   3.509  16.397  0.3142 -1.2555 -1.9409
11257TIP3    H255187   4.358   3.421  16.452 -0.0710 -0.0005 -0.6405
11258TIP3   OH255188   0.797   5.714   6.261  0.0494 -0.0589  0.6734
11258TIP3    H155189   0.746   5.762   6.326 -0.0389 -1.3098  1.5649
11258TIP3    H255190   0.871   5.677   6.310 -0.4624 -1.7135  0.2674
11259TIP3   OH255191   2.691   5.449   0.928 -0.0481 -0.1910  0.1591
11259TIP3    H155192   2.607   5.448   0.881  0.6352 -1.4146 -1.1063
11259TIP3    H255193   2.748   5.501   0.872  0.2207  0.1010  0.7027
11260TIP3   OH255194   1.993   4.212   1.164  0.4768 -0.4297 -0.7862
11260TIP3    H155195   2.027   4.129   1.198  0.3657  0.2099  0.9599
11260TIP3    H255196   1.898   4.203   1.168  0.3913 -1.1824 -3.1111
11261TIP3   OH255197   2.075   3.109  15.119  0.3285  0.2723  0.0757
11261TIP3    H155198   2.091   3.193  15.074 -0.0678  1.1738  1.5694
11261TIP3    H255199   2.153   3.057  15.099  0.8466  1.1987 -0.3989
11262TIP3   OH255200   1.301   3.089   0.959 -0.0860 -0.0242  0.1056
11262TIP3    H155201   1.330   3.043   1.038  1.3469 -1.4813 -1.2202
11262TIP3    H255202   1.211   3.059   0.946  0.2234 -1.0754  0.2786
11263TIP3   OH255203   4.336   0.185  16.541 -0.0559  0.4565 -0.6375
11263TIP3    H155204   4.299   0.234  16.614 -0.8021 -0.8343 -0.1266
11263TIP3    H255205   4.412   0.140  16.578 -0.0841  0.2631 -0.8137
11264TIP3   OH255206   1.606   2.857  12.635 -0.3806 -0.5581 -0.5027
11264TIP3    H155207   1.619   2.798  12.710 -0.9663  1.5485  1.3629
11264TIP3    H255208   1.686   2.909  12.631 -1.4172  1.2238  0.5100
11265TIP3   OH255209   0.641   0.977   0.984 -0.1730  0.3851  0.4353
11265TIP3    H155210   0.691   0.945   0.910 -0.9027 -1.0651  0.5318
11265TIP3    H255211   0.582   1.043   0.947 -0.0111  0.2071 -0.1402
11266TIP3   OH255212   4.372   3.511  12.233  0.5528  0.9785  0.2780
11266TIP3    H155213   4.341   3.538  12.319 -0.7082  1.2929 -0.2507
11266TIP3    H255214   4.405   3.422  12.246 -1.7054  0.1365  0.6657
11267TIP3   OH255215   4.866   0.280  11.640  0.2805  0.1635  0.1529
11267TIP3    H155216   4.778   0.286  11.603 -0.7003  0.2071  2.3046
11267TIP3    H255217   4.869   0.193  11.680  0.6178  0.7465  1.4515
11268TIP3   OH255218   2.589   0.653  14.779 -0.8567  0.1491  0.4027
11268TIP3    H155219   2.560   0.700  14.701  1.1926 -0.4407 -0.8194
11268TIP3    H255220   2.667   0.702  14.808 -1.1159 -0.1201  1.6005
11269TIP3   OH255221   3.544   2.738   5.130  0.4670 -0.3750 -0.1220
11269TIP3    H155222   3.453   2.758   5.106  0.9600  0.6735 -1.2292
11269TIP3    H255223   3.579   2.691   5.054  1.2542  0.5367 -0.3512
11270TIP3   OH255224   6.146   4.297  12.858 -0.0984  0.4416  0.3288
11270TIP3    H155225   6.187   4.359  12.797 -0.2511 -0.2728 -0.5122
11270TIP3    H255226   6.100   4.234  12.802 -1.7739  0.8141  1.2400
11271TIP3   OH255227   0.499   4.471  11.346  0.1829 -0.4403  0.1649
11271TIP3    H155228   0.583   4.459  11.391  0.4012  0.9441  0.1671
11271TIP3    H255229   0.443   4.514  11.410 -0.2501 -0.5759 -0.1211
11272TIP3   OH255230   2.955   0.129  13.116  0.1642 -0.5611 -0.1229
11272TIP3    H155231   2.936   0.100  13.027 -0.0468  1.2944 -0.7404
11272TIP3    H255232   2.877   0.178  13.143  1.3588  1.4917 -0.1401
11273TIP3   OH255233   1.447   1.909   0.352  0.7529 -0.0733  0.1954
11273TIP3    H155234   1.353   1.897   0.345  0.6421  1.2926 -1.3778
11273TIP3    H255235   1.458   2.001   0.378  1.6651 -0.3300  0.8159
11274TIP3   OH255236   6.739   2.104   0.140  0.2113  0.2514 -0.4836
11274TIP3    H155237   6.811   2.162   0.118 -0.6407  1.1048 -1.0733
11274TIP3    H255238   6.660   2.153   0.117 -0.5394 -0.9830 -0.6379
11275TIP3   OH255239   1.150   6.284  12.904 -0.5519 -0.2150  0.6720
11275TIP3    H155240   1.080   6.230  12.869 -0.6699 -1.1673  2.3006
11275TIP3    H255241   1.143   6.367  12.855 -1.4255 -1.0477 -0.6725
11276TIP3   OH255242   5.141   1.917   4.951 -0.3345 -0.8881 -0.2838
11276TIP3    H155243   5.061   1.953   4.990  1.2659  0.4610  2.0313
11276TIP3    H255244   5.156   1.970   4.873  0.4036  1.6622  1.4831
11277TIP3   OH255245   0.238   0.507   0.038 -0.1002  0.4612 -0.6610
11277TIP3    H155246   0.288   0.434   0.004  0.1273  1.0410 -1.6264
11277TIP3    H255247   0.224   0.564  -0.038 -1.3963  0.7793 -0.2151
11278TIP3   OH255248   2.925   3.232  13.054 -0.0945 -0.1366 -0.1617
11278TIP3    H155249   3.017   3.228  13.080 -0.0877 -1.2409 -0.3167
11278TIP3    H255250   2.924   3.197  12.965 -0.2876  2.4849 -1.2786
11279TIP3   OH255251   0.310   4.583   1.558 -0.1407 -0.7633  0.1655
11279TIP3    H155252   0.309   4.505   1.613  0.6681 -0.0445  1.2336
11279TIP3    H255253   0.270   4.554   1.476 -2.2968 -1.6300  1.4277
11280TIP3   OH255254   5.542   3.727   1.184  0.2777 -0.2189 -0.2819
11280TIP3    H155255   5.493   3.668   1.126 -1.4053 -0.0961  0.9322
11280TIP3    H255256   5.542   3.811   1.139 -1.9972  0.1707  0.2822
11281TIP3   OH255257   1.995   5.261   2.383 -0.3201  0.6650 -0.2770
11281TIP3    H155258   1.906   5.227   2.369  0.0109 -1.3493  1.8869
11281TIP3    H255259   2.037   5.195   2.439  1.8574  2.6003  0.5131
11282TIP3   OH255260   6.540   2.958   3.550  0.2216 -0.0600  0.2407
11282TIP3    H155261   6.549   3.051   3.568 -0.2379  0.1207 -0.4294
11282TIP3    H255262   6.557   2.949   3.456  1.6888 -0.8630  0.5598
11283TIP3   OH255263   0.666   0.584   0.979  1.1245 -0.2766 -0.1076
11283TIP3    H155264   0.711   0.595   0.895  1.4395  0.6520  0.1787
11283TIP3    H255265   0.609   0.661   0.986  1.7584  0.1151  0.9379
11284TIP3   OH255266   3.441   4.720   2.657  0.2228  0.9503 -0.2845
11284TIP3    H155267   3.347   4.709   2.644  0.5557  1.2232 -3.9243
11284TIP3    H255268   3.457   4.812   2.635  1.3422  0.9380  0.4072
11285TIP3   OH255269   2.709   1.273  14.087  0.2269  0.0854  0.2254
11285TIP3    H155270   2.787   1.223  14.110 -0.0976 -1.0112 -0.9575
11285TIP3    H255271   2.641   1.240  14.145  0.1823 -0.3803 -0.0824
11286TIP3   OH255272   5.300   4.838  10.489 -0.3516 -0.3721  0.1898
11286TIP3    H155273   5.349   4.758  10.469  1.7528  1.1694 -1.2261
11286TIP3    H255274   5.215   4.824  10.448 -0.1193 -1.9715  0.1638
11287TIP3   OH255275   0.282   4.626   1.970 -0.2722  0.1089  0.2647
11287TIP3    H155276   0.200   4.628   2.020  0.9234  0.5076  2.2963
11287TIP3    H255277   0.279   4.707   1.918 -1.6371 -0.4228 -0.5371
11288TIP3   OH255278   0.648   6.416   1.528 -0.6881 -0.4799  0.5004
11288TIP3    H155279   0.588   6.488   1.551 -0.9443  0.1301 -1.7799
11288TIP3    H255280   0.593   6.338   1.530 -0.4661 -0.6158  2.7722
11289TIP3   OH255281   1.640   3.156  16.833 -0.1088 -0.1964 -0.1526
11289TIP3    H155282   1.690   3.223  16.880  1.6618 -0.6485 -1.2991
11289TIP3    H255283   1.598   3.106  16.902  0.8725  0.3315  0.8744
11290TIP3   OH255284   3.520   2.093   5.708 -0.4599 -0.5599  0.3043
11290TIP3    H155285   3.578   2.017   5.697 -0.1898 -0.2808 -0.2878
11290TIP3    H255286   3.542   2.149   5.633 -0.8629 -0.0358  0.5813
11291TIP3   OH255287   4.658   1.412  13.976  0.0410 -0.2291  0.1457
11291TIP3    H155288   4.590   1.358  13.936  0.9677  0.1033 -2.0583
11291TIP3    H255289   4.624   1.501  13.970  0.1134 -0.1931  0.2638
11292TIP3   OH255290   3.466   1.305   1.045  0.1979 -0.0867 -0.3784
11292TIP3    H155291   3.386   1.304   0.992 -0.7467 -0.6699  0.9871
11292TIP3    H255292   3.435   1.295   1.135  1.8940 -6.1256  0.0040
11293TIP3   OH255293   4.770   0.941  12.749  0.1582  0.6560 -0.1636
11293TIP3    H155294   4.823   0.954  12.670  2.3967  0.1249  1.1334
11293TIP3    H255295   4.827   0.969  12.820 -0.6596 -1.5408  1.4812
11294TIP3   OH255296   1.788   0.982  13.443 -0.3284  0.2223  0.1167
11294TIP3    H155297   1.751   1.069  13.460 -0.4518  0.3875 -0.9461
11294TIP3    H255298   1.826   0.956  13.527  0.7871  1.8151  0.1551
11295TIP3   OH255299   5.110   6.670   4.060  0.0843  0.6198 -0.3394
11295TIP3    H155300   5.050   6.644   4.130  1.2733  0.1064  0.5063
11295TIP3    H255301   5.159   6.743   4.097  2.1158 -0.9152  0.1492
11296TIP3   OH255302   1.585   4.652   0.870 -0.6960  0.4092 -0.4389
11296TIP3    H155303   1.556   4.727   0.818 -1.0002  0.3631 -0.3372
11296TIP3    H255304   1.509   4.628   0.922 -0.4815  0.2757 -0.1798
11297TIP3   OH255305   1.282   1.845  10.668 -0.2103  0.1906  0.6749
11297TIP3    H155306   1.371   1.853  10.633 -0.1421 -1.7425  0.2736
11297TIP3    H255307   1.263   1.930  10.707  0.8643  1.4454 -1.4091
11298TIP3   OH255308   4.121   3.408  13.674  0.0885  0.2870  0.1858
11298TIP3    H155309   4.091   3.388  13.762  0.6334 -2.1955 -0.1328
11298TIP3    H255310   4.088   3.336  13.620  0.6859  1.1836 -1.4486
11299TIP3   OH255311   2.699   0.259  15.576  0.1629 -0.2787 -0.1467
11299TIP3    H155312   2.665   0.179  15.536 -0.1553 -0.2868  0.1293
11299TIP3    H255313   2.668   0.329  15.519 -0.5837 -0.2627  0.2623
11300TIP3   OH255314   5.633   5.402  13.624  0.0909 -0.4254 -0.3814
11300TIP3    H155315   5.545   5.366  13.614 -0.1043  0.0514 -0.4277
11300TIP3    H255316   5.650   5.398  13.718 -0.0612 -0.3324 -0.3496
11301TIP3   OH255317   0.105   1.053   2.414  0.1290  0.1633  0.2003
11301TIP3    H155318   0.197   1.073   2.399 -0.4690  1.5367 -2.0956
11301TIP3    H255319   0.061   1.078   2.333 -2.7107  2.4824  2.2134
11302TIP3   OH255320   0.910   5.668  11.887 -0.0628 -0.1978 -0.3211
11302TIP3    H155321   0.878   5.591  11.841 -1.9869  1.5144 -2.0491
11302TIP3    H255322   0.991   5.691  11.842  0.8255 -1.4856  0.5709
11303TIP3   OH255323   3.400   2.150   1.501  0.0469 -0.4732 -0.5259
11303TIP3    H155324   3.431   2.223   1.448 -0.2319 -0.8663 -1.2390
11303TIP3    H255325   3.368   2.191   1.581  0.2642  0.1449 -0.7477
11304TIP3   OH255326   5.575   1.571   5.129  0.9659  0.2760  0.3818
11304TIP3    H155327   5.666   1.555   5.154  1.4295 -0.1288 -1.4200
11304TIP3    H255328   5.580   1.598   5.037 -0.6676  1.1353  0.5172
11305TIP3   OH255329   4.789   4.604  14.080 -0.1185  0.3080 -0.2334
11305TIP3    H155330   4.826   4.569  13.999  2.0901  1.2948  0.2769
11305TIP3    H255331   4.695   4.610  14.063  0.1719 -0.4427 -2.3492
11306TIP3   OH255332   0.781   1.875   2.150  0.6182 -0.0105 -0.1613
11306TIP3    H155333   0.734   1.939   2.203 -0.1034 -0.8410  0.2239
11306TIP3    H255334   0.770   1.792   2.196  0.4612 -0.6474 -1.3046
11307TIP3   OH255335   1.509   3.338  13.041  0.2131  0.0195 -0.4315
11307TIP3    H155336   1.594   3.369  13.073  0.6905 -0.8130 -0.8222
11307TIP3    H255337   1.531   3.292  12.959 -0.6704  0.1396 -0.7406
11308TIP3   OH255338   5.346   5.832  13.468  0.0646 -0.7034  0.1985
11308TIP3    H155339   5.412   5.805  13.531 -0.5101 -0.9846  0.6904
11308TIP3    H255340   5.300   5.751  13.446 -0.2629 -0.4740  0.0317
11309TIP3   OH255341   6.376   1.615  13.240 -0.1203 -0.3453  0.6625
11309TIP3    H155342   6.300   1.670  13.260 -0.4198 -0.8141  0.8304
11309TIP3    H255343   6.338   1.533  13.208  0.2790 -1.0523  1.9346
11310TIP3   OH255344   3.141   5.382  10.978  0.4034  0.4115  0.3379
11310TIP3    H155345   3.174   5.292  10.969  1.0878  0.5164  1.5673
11310TIP3    H255346   3.175   5.428  10.901  1.0714 -0.0990  0.3121
11311TIP3   OH255347   3.936   6.320   3.952 -0.1107 -0.0108  0.0635
11311TIP3    H155348   3.945   6.242   3.897 -0.3095 -0.3133  0.4487
11311TIP3    H255349   3.842   6.337   3.954  0.0039  0.7621 -0.7250
11312TIP3   OH255350   5.888   0.477   4.580  0.2069 -0.1933 -0.3132
11312TIP3    H155351   5.888   0.435   4.666  0.2787 -1.8773 -1.0979
11312TIP3    H255352   5.963   0.440   4.535  0.7239  1.3740 -0.8117
11313TIP3   OH255353   3.961   6.718  13.108 -1.0405  0.3951  0.2205
11313TIP3    H155354   4.022   6.705  13.036 -0.3009 -2.5181  1.2414
11313TIP3    H255355   3.876   6.691  13.073 -0.7135 -0.8516  0.3506
11314TIP3   OH255356   1.926   5.109  11.371 -0.3003 -0.2578 -0.3577
11314TIP3    H155357   1.984   5.047  11.326 -1.0683 -2.2012  1.1874
11314TIP3    H255358   1.859   5.130  11.306  0.9952  0.4877 -1.5240
11315TIP3   OH255359   5.141   4.975   2.979  0.1044 -0.5214  0.4472
11315TIP3    H155360   5.199   5.010   3.047  0.3598  1.6942 -0.8344
11315TIP3    H255361   5.058   5.020   2.993 -0.3428 -1.2564  0.2401
11316TIP3   OH255362   4.085   2.893  11.197 -0.1469  0.2350  0.0721
11316TIP3    H155363   4.097   2.866  11.288  1.2343 -0.4451 -0.3008
11316TIP3    H255364   4.053   2.815  11.153 -0.2715  0.4103 -0.1487
11317TIP3   OH255365   4.525   6.341  14.315  0.4382 -0.1122  0.1789
11317TIP3    H155366   4.584   6.340  14.240 -0.3667 -0.3305 -0.4698
11317TIP3    H255367   4.471   6.419  14.302  1.4426  0.8399  1.4742
11318TIP3   OH255368   6.480   1.826  12.887 -0.4134 -0.8602  0.2877
11318TIP3    H155369   6.518   1.782  12.812 -0.5262 -0.2555 -0.1359
11318TIP3    H255370   6.392   1.852  12.858 -0.4386 -0.5791  0.6047
11319TIP3   OH255371   4.099   2.844   1.788  0.1296 -0.3258  0.7716
11319TIP3    H155372   4.080   2.785   1.715  0.5047  2.1784 -1.4724
11319TIP3    H255373   4.022   2.837   1.845 -0.0672 -2.5219  0.3177
11320TIP3   OH255374   2.806   5.174  13.437 -0.2742  0.1034 -0.8927
11320TIP3    H155375   2.873   5.241  13.448 -0.3500 -0.0893  1.3291
11320TIP3    H255376   2.853   5.091  13.438 -0.5214 -0.1078  1.9430
11321TIP3   OH255377   2.675   5.754  11.614 -0.2525  0.3279 -0.1795
11321TIP3    H155378   2.665   5.766  11.520  1.5451  1.3261 -0.2788
11321TIP3    H255379   2.681   5.659  11.626  1.3058  0.2480 -1.3005
11322TIP3   OH255380   6.723   0.105  15.275  0.2988 -0.0106  0.0338
11322TIP3    H155381   6.689   0.040  15.338 -0.3888 -0.2484 -0.5682
11322TIP3    H255382   6.811   0.126  15.307 -0.2611  0.3294  1.4289
11323TIP3   OH255383   1.626   3.775   1.738  0.5498 -0.1181 -0.4027
11323TIP3    H155384   1.591   3.824   1.664  1.1330  0.4424 -0.3186
11323TIP3    H255385   1.581   3.691   1.734  0.4600 -0.0405 -1.3021
11324TIP3   OH255386   3.765   2.928  15.240 -0.8483 -0.1560  0.3450
11324TIP3    H155387   3.824   2.863  15.277 -1.1731 -1.5881 -1.4992
11324TIP3    H255388   3.782   2.926  15.146 -1.8770  1.4120  0.0824
11325TIP3   OH255389   6.109   3.266   3.630  0.4297  0.2205  0.6099
11325TIP3    H155390   6.085   3.329   3.698 -0.0203  1.4790 -0.6664
11325TIP3    H255391   6.185   3.306   3.586  0.7420 -0.5907  0.3946
11326TIP3   OH255392   2.985   5.979  15.062 -0.1716  0.0113  0.2890
11326TIP3    H155393   3.003   5.928  15.142 -2.1091 -0.7811  0.2779
11326TIP3    H255394   3.056   5.956  15.003  1.1860  0.4362  1.6915
11327TIP3   OH255395   1.738   1.300   4.963 -0.1082 -0.0378  0.4096
11327TIP3    H155396   1.735   1.272   5.055  1.7315  1.2151  0.9103
11327TIP3    H255397   1.778   1.386   4.966  0.1052 -0.0284 -1.6074
11328TIP3   OH255398   3.049   3.485  13.278 -0.2942  0.6621 -0.3251
11328TIP3    H155399   3.067   3.485  13.184  1.6878 -1.6976 -0.0509
11328TIP3    H255400   3.130   3.515  13.318 -0.1562 -0.9216  0.6729
11329TIP3   OH255401   4.022   1.546   5.688 -0.2144  0.2313 -0.9441
11329TIP3    H155402   3.927   1.555   5.697 -0.3840 -1.0622 -1.2208
11329TIP3    H255403   4.038   1.557   5.594  0.0547  1.5140 -0.7644
11330TIP3   OH255404   1.224   6.562   2.086  0.0816  0.4513  0.5300
11330TIP3    H155405   1.259   6.551   1.998  0.1698 -1.0849  0.7217
11330TIP3    H255406   1.142   6.610   2.074  0.5328  1.0368 -0.2769
11331TIP3   OH255407   2.710   5.807   2.626  0.1825 -0.4543  0.2067
11331TIP3    H155408   2.653   5.774   2.556  0.9849 -2.2075  0.3384
11331TIP3    H255409   2.654   5.867   2.676 -1.1894 -1.1927 -0.3790
11332TIP3   OH255410   6.082   1.722   2.976  0.5722  0.6315 -0.0381
11332TIP3    H155411   6.126   1.691   3.055 -1.3118  1.0309  1.2391
11332TIP3    H255412   6.001   1.762   3.008 -1.9534 -2.1719 -2.3900
11333TIP3   OH255413   1.024   4.600   1.754  0.1123 -0.0141  0.4406
11333TIP3    H155414   0.980   4.516   1.766  2.8504 -1.8524 -1.4974
11333TIP3    H255415   1.117   4.579   1.746  0.7123  2.9103 -2.4338
11334TIP3   OH255416   3.025   6.415  13.805 -0.1683 -0.1003  0.5280
11334TIP3    H155417   2.993   6.428  13.716  1.0679 -0.2470  0.0355
11334TIP3    H255418   3.054   6.324  13.807  1.3560  0.3478  0.5349
11335TIP3   OH255419   0.929   2.639   6.366 -0.5183  0.1500  0.0231
11335TIP3    H155420   0.858   2.686   6.409 -1.8581 -0.3072 -1.5431
11335TIP3    H255421   0.913   2.653   6.272  1.8660  0.5617 -0.3784
11336TIP3   OH255422   1.776   5.077   3.318 -0.4173  0.2037  0.6556
11336TIP3    H155423   1.752   4.995   3.275 -1.2644  0.2985  0.9349
11336TIP3    H255424   1.841   5.051   3.383  0.4893 -0.0100 -0.3061
11337TIP3   OH255425   5.370   6.125  13.409 -0.6433 -0.1193  0.4767
11337TIP3    H155426   5.355   6.169  13.493 -3.0909 -0.0803  0.0930
11337TIP3    H255427   5.368   6.032  13.429  0.9050 -0.1311  0.7307
11338TIP3   OH255428   3.522   6.112   0.945  0.4138 -0.2675  0.6977
11338TIP3    H155429   3.434   6.104   0.981  0.1935 -2.1180 -0.1651
11338TIP3    H255430   3.519   6.191   0.891 -0.5433 -0.0137  1.0976
11339TIP3   OH255431   0.254   5.632   5.232 -0.0776  0.3619 -0.2701
11339TIP3    H155432   0.279   5.542   5.254  0.7571  0.9371  1.2460
11339TIP3    H255433   0.211   5.666   5.310  1.2701  1.8603 -0.1273
11340TIP3   OH255434   1.790   2.015   0.828 -0.4059  0.1211 -0.4780
11340TIP3    H155435   1.804   2.034   0.735 -0.8286  0.6993 -0.4289
11340TIP3    H255436   1.837   2.084   0.874 -0.7375  0.2174 -0.2779
11341TIP3   OH255437   4.452   6.218   4.626 -0.1096  0.5108 -0.4656
11341TIP3    H155438   4.403   6.296   4.651  1.2625  0.8504  1.3730
11341TIP3    H255439   4.385   6.154   4.601 -1.3712  1.5554  0.1417
11342TIP3   OH255440   1.256   2.317  16.095  0.1723 -0.0181  0.0402
11342TIP3    H155441   1.348   2.308  16.073 -0.0320 -0.3243 -0.7142
11342TIP3    H255442   1.255   2.335  16.189  0.9387 -1.1240  0.2765
11343TIP3   OH255443   3.303   0.789  12.675 -0.0231 -0.0980  0.1593
11343TIP3    H155444   3.238   0.719  12.663 -0.1742  0.2213 -0.9953
11343TIP3    H255445   3.296   0.842  12.596  0.0268  1.2843  1.0416
11344TIP3   OH255446   6.065   0.174  15.211  0.4414  0.3962 -0.2682
11344TIP3    H155447   6.048   0.217  15.295  1.1778 -1.1996  0.7575
11344TIP3    H255448   6.157   0.195  15.192  0.4485  0.2736 -0.3705
11345TIP3   OH255449   5.980   3.391   4.140  0.1521  0.0317 -0.0598
11345TIP3    H155450   6.050   3.387   4.205 -0.1594  1.0706  0.3719
11345TIP3    H255451   5.915   3.450   4.179 -1.1582 -1.2171 -0.2716
11346TIP3   OH255452   4.014   1.124   3.657 -0.5175 -0.0728 -0.3517
11346TIP3    H155453   3.994   1.040   3.698  0.8180 -0.9195 -1.3619
11346TIP3    H255454   4.108   1.119   3.636 -0.0333  2.2491  0.8924
11347TIP3   OH255455   0.484   3.336   4.512  0.1216  0.2242  0.4116
11347TIP3    H155456   0.569   3.374   4.489  0.1380  0.8001  1.3721
11347TIP3    H255457   0.488   3.322   4.607 -0.0470 -1.8236  0.1614
11348TIP3   OH255458   0.481   3.245   0.396  0.2439 -0.1800 -0.8664
11348TIP3    H155459   0.434   3.164   0.416  0.9061  0.1085  2.3043
11348TIP3    H255460   0.441   3.311   0.451  2.1057  0.8332 -0.6399
11349TIP3   OH255461   2.354   5.565  12.291 -0.0739  0.1617 -0.4884
11349TIP3    H155462   2.346   5.495  12.227  1.3863 -0.3909 -0.1109
11349TIP3    H255463   2.263   5.585  12.316 -0.5289 -1.5494 -0.6417
11350TIP3   OH255464   3.162   3.025   0.893  0.2721  0.1470  0.1780
11350TIP3    H155465   3.205   3.110   0.899  0.6063 -0.0242  0.2577
11350TIP3    H255466   3.209   2.980   0.822  0.3350 -0.1060  0.3811
11351TIP3   OH255467   4.829   0.621  14.762 -0.1877 -0.0379 -0.3015
11351TIP3    H155468   4.859   0.698  14.714  1.7932 -0.3499  0.3203
11351TIP3    H255469   4.903   0.598  14.818 -1.6256 -0.9704  1.3013
11352TIP3   OH255470   3.066   1.564  16.984 -0.4525 -0.4732  0.3948
11352TIP3    H155471   2.972   1.581  16.988 -0.2496  1.0078 -0.4273
11352TIP3    H255472   3.097   1.616  16.909  1.1782 -0.1488  1.2474
11353TIP3   OH255473   4.055   0.957  15.813  0.0202 -0.3674 -0.1140
11353TIP3    H155474   4.088   0.940  15.725 -0.6593 -0.9530 -0.2639
11353TIP3    H255475   3.964   0.981  15.801  0.0191 -0.0977  0.4052
11354TIP3   OH255476   3.638   1.943  15.961  0.3731  0.6048  0.5081
11354TIP3    H155477   3.585   2.019  15.985  0.8046  0.4728  1.9527
11354TIP3    H255478   3.584   1.868  15.985  0.5253  0.4570  0.3904
11355TIP3   OH255479   1.756   4.836   3.173  0.2852 -0.1689  0.9717
11355TIP3    H155480   1.710   4.789   3.103  1.2506 -0.9681  0.8502
11355TIP3    H255481   1.822   4.773   3.205  0.6942  0.6283  1.7420
11356TIP3   OH255482   5.752   0.555  12.996 -0.5347  0.3548 -0.0381
11356TIP3    H155483   5.823   0.582  12.937 -1.4875 -0.0853 -1.4460
11356TIP3    H255484   5.674   0.598  12.960 -1.8015 -2.7137 -1.2895
11357TIP3   OH255485   5.908   4.689  13.388  0.6039  0.2701  0.5687
11357TIP3    H155486   5.829   4.690  13.442  0.1477 -2.6882  0.1205
11357TIP3    H255487   5.975   4.651  13.445  0.1513 -2.7627 -0.7785
11358TIP3   OH255488   5.854   3.382  16.858  0.3457  0.4364 -0.5183
11358TIP3    H155489   5.801   3.456  16.887  1.0026  0.4940  0.5879
11358TIP3    H255490   5.809   3.350  16.780 -0.2597  1.6477 -0.6972
11359TIP3   OH255491   3.066   0.070  13.517 -0.2171 -0.6321  0.1594
11359TIP3    H155492   3.113   0.011  13.577 -0.3550 -1.2719 -0.3490
11359TIP3    H255493   2.977   0.034  13.514 -0.2291 -0.5608 -0.3745
11360TIP3   OH255494   5.479   4.023   3.116  0.1037 -0.4740 -0.4128
11360TIP3    H155495   5.461   3.979   3.200  1.2466 -1.1020 -0.4818
11360TIP3    H255496   5.541   3.965   3.072  1.1284  0.8738 -0.7990
11361TIP3   OH255497   0.025   6.009  14.660  0.1622 -0.4218  0.3729
11361TIP3    H155498   0.113   5.980  14.685  0.2187  0.7877  1.7417
11361TIP3    H255499   0.039   6.059  14.579  0.9487  0.6994  1.1544
11362TIP3   OH255500   2.200   5.924  16.416  0.0967 -0.1281 -0.4056
11362TIP3    H155501   2.112   5.959  16.401 -0.7687 -2.2884 -0.6961
11362TIP3    H255502   2.191   5.866  16.492  0.6029 -2.4422 -2.0016
11363TIP3   OH255503   4.555   2.504  16.921  0.2180 -0.3967  0.0068
11363TIP3    H155504   4.612   2.511  16.845  0.1764  0.0301  0.0126
11363TIP3    H255505   4.596   2.437  16.975  2.1336  1.5865  1.2044
11364TIP3   OH255506   3.545   6.097  16.514 -0.3670  0.3870 -0.1704
11364TIP3    H155507   3.612   6.095  16.582 -1.2387  1.2585  0.7517
11364TIP3    H255508   3.577   6.162  16.451 -0.4319  0.9387  0.3628
11365TIP3   OH255509   4.107   2.834  11.460 -0.4306 -0.6515 -0.6441
11365TIP3    H155510   4.119   2.928  11.474  0.8054 -0.5450 -2.1818
11365TIP3    H255511   4.013   2.823  11.451 -0.5965  0.4387 -0.4107
11366TIP3   OH255512   2.855   6.168   2.042  0.0199 -0.0780 -0.9733
11366TIP3    H155513   2.842   6.238   1.978 -1.3121 -0.1833 -0.8312
11366TIP3    H255514   2.788   6.103   2.021 -0.3689 -0.1707  0.4647
11367TIP3   OH255515   4.200   4.635  16.672 -0.4413 -0.1311 -0.0962
11367TIP3    H155516   4.124   4.576  16.672 -0.1333 -0.5358 -0.2488
11367TIP3    H255517   4.218   4.650  16.579 -0.3732  0.0112 -0.0593
11368TIP3   OH255518   2.191   6.416   3.840  0.3166  0.2077 -0.4569
11368TIP3    H155519   2.128   6.349   3.814  1.5269 -1.2903  0.3250
11368TIP3    H255520   2.263   6.406   3.777  0.5824  0.6561 -0.2268
11369TIP3   OH255521   0.550   3.274   5.569  0.0996 -0.6650  0.1980
11369TIP3    H155522   0.634   3.256   5.527  0.7839 -0.9808  1.6212
11369TIP3    H255523   0.501   3.192   5.560 -0.1338 -0.4210 -0.7945
11370TIP3   OH255524   1.771   6.505   1.594  0.2063 -0.3887  0.0863
11370TIP3    H155525   1.835   6.441   1.563 -0.1297 -0.1656 -1.0881
11370TIP3    H255526   1.799   6.588   1.555  0.3791  0.1101  1.2324
11371TIP3   OH255527   3.838   1.931   5.175  0.8955 -0.6890 -0.6336
11371TIP3    H155528   3.901   1.980   5.122  2.1040 -0.5783  0.8302
11371TIP3    H255529   3.755   1.940   5.128  1.5982  0.6610 -1.6953
11372TIP3   OH255530   2.328   0.881   0.323  0.1514  0.3306  0.0851
11372TIP3    H155531   2.280   0.910   0.401  0.5708  2.5500 -0.3913
11372TIP3    H255532   2.268   0.823   0.278  0.5364 -2.4892  2.8771
11373TIP3   OH255533   5.640   5.559  11.284  0.0554  0.1111  0.3299
11373TIP3    H155534   5.668   5.482  11.235 -0.5728  0.2153 -0.2037
11373TIP3    H255535   5.720   5.612  11.295  0.2930 -0.1526 -0.1401
11374TIP3   OH255536   0.929   2.793   3.925 -0.2569 -0.4949 -0.1335
11374TIP3    H155537   0.971   2.854   3.985 -1.0969 -0.4824  0.4491
11374TIP3    H255538   0.956   2.823   3.838  0.2011  0.0544  0.1934
11375TIP3   OH255539   1.601   5.280   4.380 -0.4955 -0.0179  0.1596
11375TIP3    H155540   1.586   5.307   4.470 -0.3422 -1.1393  0.5330
11375TIP3    H255541   1.695   5.293   4.366 -0.7523  1.5639 -0.3419
11376TIP3   OH255542   6.456   2.297   2.981 -0.4146 -0.1245 -0.5516
11376TIP3    H155543   6.511   2.366   3.018 -1.6806  0.6355 -0.0513
11376TIP3    H255544   6.395   2.275   3.051 -0.3921 -1.3646 -0.9045
11377TIP3   OH255545   0.929   2.001   0.667 -0.0336  0.1252  0.1750
11377TIP3    H155546   0.973   2.075   0.710 -0.1145 -0.4456  1.2606
11377TIP3    H255547   0.836   2.023   0.672 -0.0039  0.3720 -0.3111
11378TIP3   OH255548   4.874   5.755  17.031  0.5421 -0.0229  0.3588
11378TIP3    H155549   4.824   5.725  17.107  1.9329 -1.0365  0.8971
11378TIP3    H255550   4.877   5.679  16.973  2.0945 -0.2290  0.6803
11379TIP3   OH255551   3.696   5.498   0.954  0.0490  0.1351 -0.1383
11379TIP3    H155552   3.745   5.492   0.872 -1.7651 -1.6637 -1.1818
11379TIP3    H255553   3.763   5.498   1.022  1.5829  1.0122 -1.5626
11380TIP3   OH255554   5.150   2.584   0.527  0.1680  0.2407 -0.0080
11380TIP3    H155555   5.195   2.545   0.453  0.2621  2.3668 -1.1679
11380TIP3    H255556   5.218   2.634   0.572 -0.5164  1.6385 -0.4609
11381TIP3   OH255557   5.988   1.928   2.134 -0.2258 -0.0509  0.1077
11381TIP3    H155558   5.928   1.941   2.207 -0.0585  0.6646  0.1291
11381TIP3    H255559   5.993   2.015   2.092 -0.7087 -0.5570 -1.0499
11382TIP3   OH255560   5.406   2.239  16.192 -0.0516  0.3256 -0.0779
11382TIP3    H155561   5.402   2.284  16.277 -2.1682 -0.3005  0.1980
11382TIP3    H255562   5.474   2.172  16.204 -1.3692 -0.8023  1.7173
11383TIP3   OH255563   5.684   3.368  16.348 -0.1441  0.1058 -0.3818
11383TIP3    H155564   5.592   3.353  16.329 -0.8199  3.2289 -0.2142
11383TIP3    H255565   5.732   3.324  16.278 -1.5554 -3.0532  0.4597
11384TIP3   OH255566   0.446   2.689  11.366 -0.0884  0.4479 -0.1786
11384TIP3    H155567   0.453   2.783  11.352  0.2316  0.4610  0.0447
11384TIP3    H255568   0.534   2.656  11.348  0.6498  0.5972  2.6721
11385TIP3   OH255569   3.735   6.571  12.664  0.0834 -0.0987  0.4984
11385TIP3    H155570   3.721   6.626  12.741 -0.0220 -1.1080  1.2175
11385TIP3    H255571   3.815   6.522  12.684 -0.2937 -0.8280  0.2424
11386TIP3   OH255572   0.054   5.692  15.526 -0.3658  0.1498  0.3934
11386TIP3    H155573   0.000   5.770  15.542  0.2536  0.3850  1.4688
11386TIP3    H255574  -0.006   5.628  15.489 -1.5487  0.2116  2.0920
11387TIP3   OH255575   1.487   2.288  15.225  0.3073 -0.1393 -0.0610
11387TIP3    H155576   1.528   2.374  15.237  0.2746 -0.1810  0.3569
11387TIP3    H255577   1.404   2.307  15.181  0.7093 -0.0419 -0.7958
11388TIP3   OH255578   0.897   5.511  12.934  0.3331 -0.1541 -0.3030
11388TIP3    H155579   0.838   5.475  13.000 -0.1608  1.3894  0.1307
11388TIP3    H255580   0.914   5.437  12.875 -0.9986 -0.9672  0.2712
11389TIP3   OH255581   1.919   0.451  10.675  0.2358 -0.1799  0.2469
11389TIP3    H155582   1.990   0.465  10.612 -0.3295 -1.9627 -0.8740
11389TIP3    H255583   1.855   0.398  10.627 -1.1924  0.1683  1.6888
11390TIP3   OH255584   1.734   1.837   2.361  0.0444 -0.0832 -0.4307
11390TIP3    H155585   1.784   1.757   2.344 -0.3867 -0.0266 -2.2084
11390TIP3    H255586   1.650   1.807   2.393 -0.3616 -0.4138 -1.7358
11391TIP3   OH255587   5.536   4.202  11.819  0.1234 -0.0365 -0.1807
11391TIP3    H155588   5.511   4.208  11.911  1.8423  0.3746  0.2955
11391TIP3    H255589   5.455   4.216  11.771 -0.4946  1.5799  1.2460
11392TIP3   OH255590   1.692   3.376  13.564  0.1522 -0.2919  0.5287
11392TIP3    H155591   1.673   3.293  13.609  1.1719 -0.4181  0.7593
11392TIP3    H255592   1.748   3.351  13.491 -1.4485 -0.0763 -0.8122
11393TIP3   OH255593   5.527   2.400  16.780 -0.2780 -0.0175 -0.6120
11393TIP3    H155594   5.622   2.400  16.792 -0.0911  0.9730 -1.8353
11393TIP3    H255595   5.493   2.349  16.854  1.0898  0.8776  0.6904
11394TIP3   OH255596   1.921   5.155  16.922  0.3968 -0.2680  0.4867
11394TIP3    H155597   1.852   5.206  16.880 -0.3679 -2.0839 -0.5743
11394TIP3    H255598   1.970   5.115  16.850  1.7848 -0.0233  1.2537
11395TIP3   OH255599   1.581   0.221   1.289 -0.3736  0.1574  0.0019
11395TIP3    H155600   1.674   0.226   1.264 -0.3384 -0.7627 -0.0947
11395TIP3    H255601   1.560   0.128   1.281 -1.2334  0.3247  0.2984
11396TIP3   OH255602   6.652   2.990  12.571 -0.1344 -0.1986  0.2160
11396TIP3    H155603   6.600   2.920  12.611  2.1737 -1.4952  1.1439
11396TIP3    H255604   6.639   3.066  12.629 -0.4559 -0.6927  0.8017
11397TIP3   OH255605   0.167   6.390  13.608  0.1878  0.5478 -0.4627
11397TIP3    H155606   0.106   6.343  13.665 -1.0484 -0.0095 -2.1668
11397TIP3    H255607   0.188   6.471  13.656 -2.9025  1.3747 -0.3073
11398TIP3   OH255608   3.186   1.550  10.477  0.9437 -0.1862 -0.2083
11398TIP3    H155609   3.138   1.605  10.538  0.8074 -0.4797 -0.0490
11398TIP3    H255610   3.140   1.560  10.394 -1.8291 -3.4134  0.7243
11399TIP3   OH255611   5.172   3.573  12.044  0.1676  0.0850  0.2347
11399TIP3    H155612   5.121   3.642  12.003 -0.9307 -0.3051  0.9071
11399TIP3    H255613   5.143   3.572  12.135  1.7471  0.1798  0.7672
11400TIP3   OH255614   6.507   6.420  13.679  0.1923  0.3164 -0.0771
11400TIP3    H155615   6.433   6.476  13.658  0.4992  0.9706  0.5254
11400TIP3    H255616   6.468   6.345  13.725 -0.2739 -0.2350 -1.3241
11401TIP3   OH255617   6.419   4.449   0.613  0.3186  0.5722 -0.2103
11401TIP3    H155618   6.410   4.541   0.637 -0.9459  0.4430 -0.1120
11401TIP3    H255619   6.453   4.407   0.693  0.3733  0.8645 -0.0780
11402TIP3   OH255620   4.201   5.870   0.040 -0.3000 -0.6233 -0.2021
11402TIP3    H155621   4.250   5.912   0.110  0.3855  0.1401 -1.1157
11402TIP3    H255622   4.111   5.899   0.052  0.2551  1.7270 -1.2023
11403TIP3   OH255623   5.113   4.946  14.998  0.3809 -0.0173  0.5164
11403TIP3    H155624   5.129   4.855  14.973  2.3514  0.6387 -0.8830
11403TIP3    H255625   5.027   4.966  14.962 -0.2806 -1.4325  1.2373
11404TIP3   OH255626   3.801   5.932   4.184 -0.0954  0.6546  0.0537
11404TIP3    H155627   3.739   5.867   4.217 -0.1463  0.1454 -1.0233
11404TIP3    H255628   3.882   5.884   4.172 -0.1300  0.7808 -0.7376
11405TIP3   OH255629   6.316   2.602  14.000  0.8412  0.2724 -0.2005
11405TIP3    H155630   6.333   2.616  14.093  1.4353 -0.9842 -0.1001
11405TIP3    H255631   6.228   2.564  13.997  0.3693  1.3205 -0.2613
11406TIP3   OH255632   5.455   2.249  16.992 -0.0971 -0.3007  0.1125
11406TIP3    H155633   5.494   2.190  17.057  0.1651 -0.0260  0.2047
11406TIP3    H255634   5.363   2.225  16.990 -0.8626  1.8768  2.9841
11407TIP3   OH255635   4.322   5.428  12.803 -0.0989 -0.3879  0.3812
11407TIP3    H155636   4.388   5.489  12.771  1.1243 -0.5557  2.4146
11407TIP3    H255637   4.315   5.361  12.735  0.9533  0.2753 -0.3973
11408TIP3   OH255638   6.190   6.278   6.417 -0.2401 -0.3332 -0.0091
11408TIP3    H155639   6.154   6.318   6.338  0.0742 -0.5840 -0.2829
11408TIP3    H255640   6.115   6.268   6.475 -0.8558 -1.8640 -0.9917
11409TIP3   OH255641   6.308   1.567  11.497 -0.0727  0.3325  0.1095
11409TIP3    H155642   6.316   1.659  11.470 -0.7712  0.4120  0.1446
11409TIP3    H255643   6.304   1.519  11.414 -1.3895  0.5003  0.0542
11410TIP3   OH255644   6.095   2.203   1.724 -0.0758  0.4757 -0.2309
11410TIP3    H155645   6.018   2.152   1.746  1.0800 -0.4617  1.9075
11410TIP3    H255646   6.078   2.235   1.635 -1.6986 -2.0057 -0.9197
11411TIP3   OH255647   5.388   0.499  17.004  0.3861 -0.1694 -0.3327
11411TIP3    H155648   5.444   0.437  16.958  0.9720  0.3294 -0.3015
11411TIP3    H255649   5.445   0.574  17.022  0.3432 -0.5756  1.7039
11412TIP3   OH255650   1.042   1.625  15.565  0.1507  0.3588  0.4505
11412TIP3    H155651   1.021   1.624  15.471  1.1653  0.0966  0.2062
11412TIP3    H255652   0.982   1.689  15.602 -1.8393 -1.1576  0.0308
11413TIP3   OH255653   4.175   3.692  15.039 -0.0443 -0.5639  0.4124
11413TIP3    H155654   4.095   3.744  15.032 -0.1022 -0.5894  0.8725
11413TIP3    H255655   4.144   3.601  15.043  0.0423 -0.6182 -0.0790
11414TIP3   OH255656   4.225   0.787  14.970 -0.1719  0.7246  0.1167
11414TIP3    H155657   4.224   0.854  14.902 -1.1238  0.9732  0.3598
11414TIP3    H255658   4.277   0.825  15.041 -0.7272  1.2313  0.2637
11415TIP3   OH255659   5.530   4.087  14.485  0.2926  0.3988 -0.3634
11415TIP3    H155660   5.612   4.129  14.459  0.3080 -0.2202 -1.3468
11415TIP3    H255661   5.461   4.140  14.446  0.3284 -0.8159 -2.1941
11416TIP3   OH255662   6.490   4.935   1.668 -0.5603  0.3217  0.5571
11416TIP3    H155663   6.429   4.887   1.613 -2.3544  1.8748  1.0722
11416TIP3    H255664   6.573   4.888   1.659 -1.9215 -2.2045  0.2534
11417TIP3   OH255665   3.921   3.998   0.057 -0.5392  0.0734  0.1667
11417TIP3    H155666   3.990   4.051   0.018 -1.0197  0.6472  0.0881
11417TIP3    H255667   3.889   3.943  -0.014 -1.2911  0.9892 -0.2167
11418TIP3   OH255668   2.638   6.582   0.869  0.2589 -0.0468  0.3370
11418TIP3    H155669   2.718   6.628   0.894  0.1074  1.3299 -1.5198
11418TIP3    H255670   2.669   6.507   0.818  0.4197 -1.0131  1.7783
11419TIP3   OH255671   3.323   6.720   0.163 -0.0307  0.0010  0.2554
11419TIP3    H155672   3.381   6.674   0.102  0.6898 -0.2602  1.1201
11419TIP3    H255673   3.248   6.745   0.110  0.2543 -0.8490 -0.5832
11420TIP3   OH255674   3.070   0.243   2.595 -0.1952 -0.1475  0.3204
11420TIP3    H155675   3.035   0.173   2.539 -1.0763  2.5859 -2.8461
11420TIP3    H255676   2.992   0.281   2.637  0.0689  0.1602  0.5314
11421TIP3   OH255677   3.991   3.808  13.053  0.0748  0.0926  0.2968
11421TIP3    H155678   3.903   3.840  13.031 -0.0784 -0.0889  0.6547
11421TIP3    H255679   3.987   3.788  13.146  0.1938 -0.9157  0.0909
11422TIP3   OH255680   4.799   6.095  14.006  0.6851 -0.4151 -0.2114
11422TIP3    H155681   4.741   6.171  14.002  0.8079 -0.2408  0.9583
11422TIP3    H255682   4.820   6.076  13.914  0.1098  0.5348 -0.5567
11423TIP3   OH255683   2.923   1.982   5.557 -0.3994 -0.0778  0.6089
11423TIP3    H155684   2.863   1.953   5.488  1.2401  1.4355 -1.5854
11423TIP3    H255685   2.915   2.078   5.557  1.3188  0.1000  0.8869
11424TIP3   OH255686   1.867   5.726  11.962 -0.4588 -0.0824  0.4771
11424TIP3    H155687   1.933   5.794  11.974 -1.2974  1.1278 -1.3067
11424TIP3    H255688   1.898   5.652  12.015  0.6540  1.5431  2.2366
11425TIP3   OH255689   4.137   3.785  14.637  0.2874  0.5383 -0.1481
11425TIP3    H155690   4.056   3.836  14.642  0.2776  0.5225 -0.1408
11425TIP3    H255691   4.185   3.807  14.717  0.6346  1.1194 -0.5132
11426TIP3   OH255692   5.296   0.457  16.666 -0.2033  0.4760 -0.3539
11426TIP3    H155693   5.237   0.425  16.734  0.6985  0.5708  0.4979
11426TIP3    H255694   5.248   0.527  16.623 -0.6474  0.6802  0.4502
11427TIP3   OH255695   1.575   1.792  12.161  0.7299  0.0158 -0.3141
11427TIP3    H155696   1.586   1.721  12.224 -0.7420 -0.1124 -0.1742
11427TIP3    H255697   1.530   1.753  12.087 -3.0507  1.3125  1.0300
11428TIP3   OH255698   5.085   0.690   1.258  0.2618 -0.1555 -0.2115
11428TIP3    H155699   5.014   0.754   1.270  0.1715 -0.4487  1.0050
11428TIP3    H255700   5.040   0.606   1.253  0.5139 -0.3342  0.4857
11429TIP3   OH255701   5.056   5.538  13.679 -0.0391 -0.1951 -0.1352
11429TIP3    H155702   5.058   5.602  13.750  0.5380 -0.0625 -0.2609
11429TIP3    H255703   5.043   5.589  13.600 -1.4344 -0.4147 -0.0600
11430TIP3   OH255704   2.262   0.692  10.738  0.5547 -0.0743 -0.2245
11430TIP3    H155705   2.244   0.623  10.803 -0.9502 -1.2952 -1.8439
11430TIP3    H255706   2.350   0.672  10.706  2.0798  1.5523  2.5175
11431TIP3   OH255707   1.286   5.842  16.583 -0.4973  0.5196 -0.0041
11431TIP3    H155708   1.371   5.885  16.587 -1.5133  2.7525 -0.8751
11431TIP3    H255709   1.234   5.882  16.653 -0.5665 -1.5968  1.2492
11432TIP3   OH255710   6.578   2.008   2.329 -0.4816 -0.0669  0.5125
11432TIP3    H155711   6.622   1.936   2.284 -2.1550  0.1805 -1.7183
11432TIP3    H255712   6.549   1.970   2.412  1.1727 -1.0900  0.6580
11433TIP3   OH255713   5.319   4.771   1.368 -0.4259 -0.6435 -0.5398
11433TIP3    H155714   5.370   4.852   1.375 -1.1759 -0.1975 -0.0877
11433TIP3    H255715   5.379   4.702   1.397 -0.4143  0.0073  1.1087
11434TIP3   OH255716   6.497   5.962  12.894 -0.3766 -0.2603 -0.2170
11434TIP3    H155717   6.549   5.886  12.870 -0.6378 -0.4876 -0.0664
11434TIP3    H255718   6.530   6.032  12.839  0.5240 -0.2466  0.3181
11435TIP3   OH255719   5.094   2.164  15.918 -0.2008 -0.1843 -0.0007
11435TIP3    H155720   5.057   2.243  15.958  0.3833  0.2324 -0.2681
11435TIP3    H255721   5.065   2.092  15.974  1.0500  0.4374  1.4990
11436TIP3   OH255722   5.130   3.781   3.533 -0.1297  0.3102 -0.6934
11436TIP3    H155723   5.193   3.824   3.591  1.2623  0.2983 -2.1635
11436TIP3    H255724   5.178   3.708   3.494 -1.2494 -0.1055 -1.3435
11437TIP3   OH255725   6.632   2.119   1.406  0.0693  0.1606  0.2716
11437TIP3    H155726   6.589   2.042   1.444  0.2687 -0.3279 -0.4873
11437TIP3    H255727   6.595   2.193   1.455  0.5762 -0.4726  1.6646
11438TIP3   OH255728   3.132   1.779  14.350 -0.1930  0.0248  0.2070
11438TIP3    H155729   3.073   1.851  14.328 -0.8783 -0.2176  1.1900
11438TIP3    H255730   3.181   1.811  14.426 -0.3097 -0.4298  0.4790
11439TIP3   OH255731   1.704   6.700   1.001  0.0131  0.0980 -0.0730
11439TIP3    H155732   1.637   6.640   1.033 -0.9217  0.6013 -0.9895
11439TIP3    H255733   1.758   6.719   1.077 -0.5648 -0.7358  0.5703
11440TIP3   OH255734   1.514   3.662  10.953 -0.9892 -0.2786 -0.1533
11440TIP3    H155735   1.490   3.626  10.868  1.7881  0.4984 -1.3825
11440TIP3    H255736   1.570   3.595  10.993  1.3178  1.0506 -0.9411
11441TIP3   OH255737   2.795   6.091   2.934  0.1057 -0.3794  0.2257
11441TIP3    H155738   2.882   6.053   2.939  0.5367  0.4341 -0.7151
11441TIP3    H255739   2.754   6.048   2.859 -1.2638 -2.5731  2.1031
11442TIP3   OH255740   6.433   4.832   5.214 -0.2324  0.0255 -0.1003
11442TIP3    H155741   6.492   4.878   5.273 -1.3399  0.6359  0.5683
11442TIP3    H255742   6.459   4.740   5.220  1.1526  0.3675 -0.4440
11443TIP3   OH255743   2.752   6.095  16.816 -0.3024 -0.0133  0.4921
11443TIP3    H155744   2.685   6.068  16.879 -2.3845  1.4793 -0.9138
11443TIP3    H255745   2.814   6.022  16.815 -0.6536 -0.4883  3.5138
11444TIP3   OH255746   0.033   0.377   5.636 -0.5312  0.4065  0.3517
11444TIP3    H155747   0.125   0.404   5.642 -0.4262 -0.0992  1.2082
11444TIP3    H255748   0.020   0.357   5.544  0.1292  0.7931  0.1645
11445TIP3   OH255749   3.131   0.134  14.164 -0.1873 -0.0823  0.0866
11445TIP3    H155750   3.160   0.182  14.086  0.6034  0.0855  0.4709
11445TIP3    H255751   3.212   0.115  14.211 -0.2925 -3.0599 -0.7318
11446TIP3   OH255752   2.303   6.077   3.494  0.3222 -0.2934 -0.0596
11446TIP3    H155753   2.300   5.984   3.514 -0.4406 -0.7022 -1.8465
11446TIP3    H255754   2.382   6.088   3.441  0.3349  0.0582  0.0282
11447TIP3   OH255755   2.514   2.815  17.031  0.8235 -0.0900 -0.2865
11447TIP3    H155756   2.516   2.819  16.935  1.5228  2.0633 -0.2414
11447TIP3    H255757   2.535   2.904  17.059 -1.0702 -0.2394  1.8889
11448TIP3   OH255758   2.038   3.951   0.701 -0.4609 -1.0093  0.1200
11448TIP3    H155759   1.988   3.909   0.772  1.1268 -1.6564  0.8908
11448TIP3    H255760   2.102   4.005   0.746  0.3360 -1.1414 -0.8362
11449TIP3   OH255761   0.667   3.667  16.503 -0.1952  0.1119  0.1524
11449TIP3    H155762   0.679   3.756  16.468  1.2669 -0.2981 -0.4955
11449TIP3    H255763   0.607   3.626  16.442 -1.8123  0.9814  1.1051
11450TIP3   OH255764   3.415   2.290  14.631  0.2840 -0.2172 -0.8504
11450TIP3    H155765   3.478   2.275  14.561  1.8263  1.5249  0.0909
11450TIP3    H255766   3.348   2.346  14.591 -1.7456 -3.4507 -2.3537
11451TIP3   OH255767   3.365   6.300   1.807  0.9535 -0.6625  0.2233
11451TIP3    H155768   3.358   6.236   1.736  1.1838 -2.0559  1.4127
11451TIP3    H255769   3.331   6.254   1.884  0.0273  1.0615  0.8900
11452TIP3   OH255770   3.561   5.975  13.859  0.3584 -0.2257  0.0593
11452TIP3    H155771   3.586   5.894  13.902  0.0041 -1.1914 -1.4571
11452TIP3    H255772   3.525   5.947  13.775  2.0129  1.6007 -1.3589
11453TIP3   OH255773   1.298   4.003  11.951 -0.9114  0.2935  0.0025
11453TIP3    H155774   1.302   3.907  11.946 -0.0226  0.3932 -1.4298
11453TIP3    H255775   1.336   4.033  11.869  0.0681  1.9116  1.0188
11454TIP3   OH255776   5.319   5.660   6.071 -0.5227 -0.9374  0.2714
11454TIP3    H155777   5.230   5.672   6.105  0.3856 -0.2132  2.5930
11454TIP3    H255778   5.362   5.603   6.136  1.0074 -0.4004 -0.2249
11455TIP3   OH255779   4.202   3.692   1.689 -0.5492  0.2027  0.2459
11455TIP3    H155780   4.280   3.731   1.729  0.6847 -0.2328 -1.5766
11455TIP3    H255781   4.232   3.606   1.659 -1.6641  0.1369 -0.7499
11456TIP3   OH255782   3.261   4.123   0.164 -0.7258 -0.4041 -0.5864
11456TIP3    H155783   3.245   4.029   0.157 -1.5899 -0.2916 -0.2356
11456TIP3    H255784   3.305   4.146   0.082  1.1879 -1.4363  0.0739
11457TIP3   OH255785   0.826   1.176  10.792  0.2872  0.5835  0.0786
11457TIP3    H155786   0.852   1.266  10.809  1.2096  0.5077 -0.8549
11457TIP3    H255787   0.902   1.136  10.750 -0.2862 -0.4914  0.0231
11458TIP3   OH255788   6.714   6.585   5.433  0.1972  0.6240 -0.0595
11458TIP3    H155789   6.732   6.533   5.511 -0.1609  2.0223  1.0052
11458TIP3    H255790   6.741   6.673   5.457 -2.3894  1.6401 -0.5046
11459TIP3   OH255791   1.426   0.954  10.808  0.1726  0.2269  0.4269
11459TIP3    H155792   1.357   0.893  10.781  0.6109 -0.0955  0.0090
11459TIP3    H255793   1.455   0.994  10.726  0.4608  0.3782  0.6027
11460TIP3   OH255794   5.478   3.519   4.038 -0.0675  0.2144 -0.5867
11460TIP3    H155795   5.516   3.587   4.092 -0.7467 -0.3044  0.5822
11460TIP3    H255796   5.445   3.565   3.961 -0.9651  1.2925  0.4069
11461TIP3   OH255797   5.894   1.453  16.807  0.5231  0.5099  0.0655
11461TIP3    H155798   5.831   1.473  16.876 -1.9156 -1.0698 -1.5236
11461TIP3    H255799   5.882   1.524  16.743 -1.5478 -0.9881 -1.3523
11462TIP3   OH255800   1.271   1.890  11.033 -0.3174 -0.3358 -0.0040
11462TIP3    H155801   1.311   1.806  11.009  1.2211  0.3383  0.0878
11462TIP3    H255802   1.344   1.952  11.034 -1.6785  1.4309 -1.9250
11463TIP3   OH255803   0.623   2.321  15.032  0.1898  0.0338 -0.3019
11463TIP3    H155804   0.555   2.298  15.095  0.8772 -0.4338  0.2911
11463TIP3    H255805   0.695   2.261  15.051 -0.1779 -1.2591 -2.6302
11464TIP3   OH255806   3.941   0.612  16.282 -0.0891 -0.5516 -0.1005
11464TIP3    H155807   3.935   0.579  16.192 -1.9051 -0.1280 -0.1851
11464TIP3    H255808   4.033   0.602  16.305  0.3977 -0.8150 -1.9512
11465TIP3   OH255809   4.060   0.331   4.661 -0.2854  0.1597 -0.4897
11465TIP3    H155810   4.081   0.421   4.636 -0.0390  0.1421 -0.3529
11465TIP3    H255811   4.102   0.320   4.746  0.5288 -0.3988 -0.9549
11466TIP3   OH255812   6.314   2.293  16.587  0.3013 -0.4862 -0.6925
11466TIP3    H155813   6.249   2.241  16.541 -0.2642  1.0842 -1.7475
11466TIP3    H255814   6.359   2.342  16.518  0.7849  0.4455  0.2511
11467TIP3   OH255815   4.923   6.189   0.640 -0.9253  0.0774  0.8237
11467TIP3    H155816   4.832   6.216   0.654 -0.7787  0.3647  1.2731
11467TIP3    H255817   4.968   6.270   0.613 -1.1949 -0.4667 -1.3807
11468TIP3   OH255818   2.014   3.142   5.258  0.2475 -0.2064  0.0340
11468TIP3    H155819   1.986   3.166   5.169  0.9591  2.3244  0.4231
11468TIP3    H255820   1.935   3.152   5.311  0.4042  0.8478  0.0924
11469TIP3   OH255821   6.532   0.513  12.006  0.0982  0.0121 -0.4323
11469TIP3    H155822   6.536   0.516  12.101  2.6675  2.3537 -0.5130
11469TIP3    H255823   6.497   0.598  11.980  0.5900 -0.1258 -1.6083
11470TIP3   OH255824   0.952   3.786   1.607 -0.3038  0.2823 -0.5710
11470TIP3    H155825   0.915   3.800   1.520  1.8445 -0.9185 -1.7759
11470TIP3    H255826   0.877   3.767   1.663 -1.7202  0.8657 -2.2005
11471TIP3   OH255827   0.439   4.341  11.934 -0.2907 -0.3833 -0.4431
11471TIP3    H155828   0.504   4.272  11.950  1.1391  0.7777 -0.9939
11471TIP3    H255829   0.358   4.294  11.916  0.5168 -1.9049 -0.3032
11472TIP3   OH255830   5.849   2.667  16.046  0.3625  0.1552  0.0310
11472TIP3    H155831   5.772   2.653  15.991  0.8495 -0.2804 -0.5598
11472TIP3    H255832   5.817   2.719  16.120 -0.6250 -0.5704  0.1330
11473TIP3   OH255833   2.296   4.772   1.023 -0.2338 -0.2270  0.1796
11473TIP3    H155834   2.229   4.830   1.060  1.1371  1.4328  0.2210
11473TIP3    H255835   2.368   4.776   1.086  0.2004 -1.4020 -0.2147
11474TIP3   OH255836   6.391   1.517   0.627  0.7864  0.3343  0.1120
11474TIP3    H155837   6.414   1.466   0.550  0.5663  1.0757 -0.4489
11474TIP3    H255838   6.380   1.606   0.595  0.0760  0.5394  0.8820
11475TIP3   OH255839   2.608   1.412   0.954  0.3609 -0.3621 -0.4519
11475TIP3    H155840   2.692   1.376   0.926  0.6812  0.5092 -0.6245
11475TIP3    H255841   2.560   1.429   0.873  0.7180  0.7908 -0.4353
11476TIP3   OH255842   6.000   3.258  17.069 -0.1867 -0.0432  0.2450
11476TIP3    H155843   5.970   3.290  16.984  0.0669  0.9163  0.5010
11476TIP3    H255844   5.965   3.169  17.075  1.2387 -0.7962 -1.6082
11477TIP3   OH255845   3.355   5.872   5.064  0.4249 -0.3679  0.4884
11477TIP3    H155846   3.304   5.866   4.984  2.6039 -1.4780 -0.9072
11477TIP3    H255847   3.326   5.797   5.116 -0.1296 -0.3444  0.2193
11478TIP3   OH255848   6.459   6.162  15.470  0.1904  0.1249  0.6688
11478TIP3    H155849   6.374   6.205  15.473  0.4339  0.5897  0.9854
11478TIP3    H255850   6.449   6.093  15.405 -0.8469 -0.7259  1.6955
11479TIP3   OH255851   6.306   5.019   3.179  0.0493 -0.7594  0.0689
11479TIP3    H155852   6.337   4.953   3.242 -1.2114 -2.0800 -0.6397
11479TIP3    H255853   6.286   4.969   3.100 -0.0187  0.6358 -0.8222
11480TIP3   OH255854   5.818   3.666   4.213  0.0937 -0.2908 -0.5449
11480TIP3    H155855   5.780   3.590   4.257  2.2723 -0.3828  1.3567
11480TIP3    H255856   5.749   3.695   4.153 -1.2525 -3.0137 -0.4874
11481TIP3   OH255857   6.635   5.800   2.714 -0.4581 -0.7573  0.8634
11481TIP3    H155858   6.550   5.810   2.671 -0.7539 -1.0316  1.3690
11481TIP3    H255859   6.696   5.780   2.643 -0.8513 -0.7355  0.5184
11482TIP3   OH255860   4.885   0.873   1.193  0.5246  0.2093 -0.0173
11482TIP3    H155861   4.833   0.806   1.150 -1.2498  0.6678  1.2933
11482TIP3    H255862   4.828   0.906   1.264  2.8028  0.3556  1.8718
11483TIP3   OH255863   0.719   1.049   2.513 -0.5800 -0.5735 -0.1143
11483TIP3    H155864   0.669   1.119   2.472  0.1708 -0.0109 -0.0907
11483TIP3    H255865   0.758   1.001   2.440  1.7866  1.1823 -0.1257
11484TIP3   OH255866   0.078   6.317  11.008 -0.4688 -0.2680  0.0422
11484TIP3    H155867   0.151   6.268  10.970 -0.0215 -0.3250  0.9633
11484TIP3    H255868   0.044   6.368  10.934  0.6921 -0.0099 -0.3507
11485TIP3   OH255869   2.515   5.506   5.036 -0.2186  0.0494 -0.2899
11485TIP3    H155870   2.575   5.431   5.030  1.1332  1.1488 -1.1835
11485TIP3    H255871   2.553   5.562   5.104 -3.0774 -1.5581  2.9464
11486TIP3   OH255872   6.307   0.370  16.981  0.4463 -0.4745  0.5754
11486TIP3    H155873   6.304   0.315  16.902  1.5099  0.5615 -0.2058
11486TIP3    H255874   6.380   0.335  17.032  0.5270 -0.3748  0.5282
11487TIP3   OH255875   1.551   0.915  16.635  0.0176 -0.6388 -0.2838
11487TIP3    H155876   1.630   0.860  16.634  1.5426  1.3564  1.5220
11487TIP3    H255877   1.580   1.000  16.602 -1.5813 -0.0519 -0.2637
11488TIP3   OH255878   5.761   2.705  10.837 -0.1984  0.4004  0.0425
11488TIP3    H155879   5.715   2.621  10.845  1.6040 -0.8102 -1.4154
11488TIP3    H255880   5.822   2.706  10.910 -0.5565  0.6957  0.3433
11489TIP3   OH255881   0.988   0.344   4.049  0.5628  0.0000  0.0116
11489TIP3    H155882   0.933   0.392   4.111 -0.7148 -0.8336 -0.4393
11489TIP3    H255883   1.019   0.268   4.098  0.5141 -0.0411 -0.0210
11490TIP3   OH255884   5.931   5.601  11.043  0.4525 -0.3330  0.2792
11490TIP3    H155885   5.915   5.634  10.955 -1.1072  0.1757  0.7233
11490TIP3    H255886   5.877   5.522  11.050 -0.8646  0.6170  1.3424
11491TIP3   OH255887   2.600   2.257   6.052 -0.6099 -0.3116  0.0390
11491TIP3    H155888   2.621   2.343   6.017  0.4317 -0.6276 -0.1530
11491TIP3    H255889   2.556   2.212   5.979  1.0205 -0.7625 -0.7201
11492TIP3   OH255890   4.742   1.056   3.642  0.1994 -0.4660  0.5062
11492TIP3    H155891   4.762   0.969   3.607  0.5030  0.4041 -1.6085
11492TIP3    H255892   4.664   1.043   3.696  0.7227 -2.1745  0.9037
11493TIP3   OH255893   1.091   6.708   5.981 -0.0753  0.2790 -0.2936
11493TIP3    H155894   1.043   6.657   6.046  0.8329 -0.8013 -0.4396
11493TIP3    H255895   1.136   6.775   6.032  0.3689 -0.3549  0.1620
11494TIP3   OH255896   0.736   0.117  13.337  0.6510 -0.1287  0.1968
11494TIP3    H155897   0.745   0.192  13.279  0.1108 -0.0062  0.2647
11494TIP3    H255898   0.745   0.041  13.279 -0.4892 -0.0104 -0.1575
11495TIP3   OH255899   3.250   3.903   5.750  0.2012 -0.3741 -0.1937
11495TIP3    H155900   3.175   3.944   5.708 -0.6049 -1.6414 -0.0179
11495TIP3    H255901   3.235   3.809   5.742 -0.4995 -0.7604  3.6324
11496TIP3   OH255902   5.596   6.686  13.230 -0.5767 -1.2744 -0.1169
11496TIP3    H155903   5.548   6.681  13.147 -1.9265 -0.8189  0.6185
11496TIP3    H255904   5.535   6.652  13.295 -0.8598  1.5275  1.2241
11497TIP3   OH255905   2.459   2.368  11.934  0.1335 -0.2256 -0.3932
11497TIP3    H155906   2.551   2.384  11.913  0.9459 -1.4790  1.7992
11497TIP3    H255907   2.428   2.312  11.863  1.1223  0.0266 -1.0521
11498TIP3   OH255908   4.208   5.924   3.766 -0.1136 -0.2798 -0.2326
11498TIP3    H155909   4.226   5.904   3.857 -0.9771 -0.8105 -0.1663
11498TIP3    H255910   4.210   5.839   3.721 -1.0716 -0.2146 -0.4418
11499TIP3   OH255911   0.261   3.850   1.323 -0.9783 -0.0477  0.1939
11499TIP3    H155912   0.176   3.868   1.282 -1.0931 -0.6551  0.1620
11499TIP3    H255913   0.321   3.836   1.250 -0.8866  0.1984  0.2199
11500TIP3   OH255914   4.001   0.828   0.784 -0.1774  0.3272 -0.2169
11500TIP3    H155915   3.975   0.918   0.764  0.6927  0.6394  0.0409
11500TIP3    H255916   3.984   0.780   0.703 -1.2398  0.5782 -0.1624
11501TIP3   OH255917   2.276   1.810  10.730  0.1696 -0.4468 -0.4284
11501TIP3    H155918   2.345   1.861  10.772 -0.7953  0.0914  0.5744
11501TIP3    H255919   2.198   1.828  10.783 -1.1912  0.4695 -2.6119
11502TIP3   OH255920   6.708   0.472  14.797  0.1529  0.2688 -0.6114
11502TIP3    H155921   6.620   0.491  14.764  0.7900  0.8607 -2.0565
11502TIP3    H255922   6.715   0.376  14.793  0.1463  0.3152 -2.0715
11503TIP3   OH255923   5.090   4.192  14.357  0.1938  0.0099 -0.1324
11503TIP3    H155924   5.084   4.112  14.409 -0.6567  1.3456  1.9679
11503TIP3    H255925   5.058   4.167  14.270 -0.1282 -1.8790  0.4880
11504TIP3   OH255926   3.545   5.937   2.616  0.0587 -0.4295 -0.3440
11504TIP3    H155927   3.620   5.894   2.576 -0.0600 -0.0983 -0.9436
11504TIP3    H255928   3.496   5.974   2.542 -0.0184  0.4488  0.1224
11505TIP3   OH255929   3.856   0.998  17.101 -0.0481  0.0512 -0.5180
11505TIP3    H155930   3.801   0.936  17.053  2.2223 -1.6775 -1.0290
11505TIP3    H255931   3.894   1.054  17.034  0.3270 -0.0291 -0.3765
11506TIP3   OH255932   1.785   3.065  11.940  0.3915  0.2329  0.2485
11506TIP3    H155933   1.808   3.149  11.900  0.2114  0.3711  0.4284
11506TIP3    H255934   1.868   3.023  11.957  0.5025  0.5854  0.5961
11507TIP3   OH255935   2.632   5.477  12.294 -0.2874 -0.6748  0.9872
11507TIP3    H155936   2.675   5.408  12.244 -0.6996 -1.1309  1.2576
11507TIP3    H255937   2.603   5.434  12.374 -2.6169 -0.7636  0.1535
11508TIP3   OH255938   6.418   3.590  14.628 -0.2592  0.2815  0.2458
11508TIP3    H155939   6.369   3.508  14.631  1.5491 -0.8317  1.1895
11508TIP3    H255940   6.379   3.643  14.698 -1.4147  0.2522 -0.3458
11509TIP3   OH255941   3.815   5.095  14.748  0.1629 -0.2207 -0.0645
11509TIP3    H155942   3.821   5.187  14.722  0.6088 -0.3837 -0.5442
11509TIP3    H255943   3.783   5.050  14.670  1.6525 -0.7329 -0.4141
11510TIP3   OH255944   6.285   6.087  13.515  0.2009  0.2653  0.5309
11510TIP3    H155945   6.310   6.051  13.600 -1.8837 -4.3269 -0.4931
11510TIP3    H255946   6.359   6.067  13.458 -0.8843 -2.7408  0.0021
11511TIP3   OH255947   5.702   4.618   0.659  0.1572  0.9417  0.1793
11511TIP3    H155948   5.647   4.558   0.709  1.8876 -0.7524  0.1641
11511TIP3    H255949   5.697   4.701   0.707  0.1544 -0.0757  2.0268
11512TIP3   OH255950   0.093   0.767   4.128  0.0316 -0.6280  0.3915
11512TIP3    H155951   0.094   0.729   4.215  2.3356 -1.3253  0.1294
11512TIP3    H255952   0.185   0.785   4.108 -0.6036  1.2372 -1.1698
11513TIP3   OH255953   1.558   1.653  13.731 -0.6794 -0.4330 -0.1074
11513TIP3    H155954   1.508   1.686  13.806  1.0846  0.6147  0.6619
11513TIP3    H255955   1.503   1.584  13.695 -2.2541  0.0410  1.2529
11514TIP3   OH255956   1.474   5.142  12.390 -0.2461  0.6589  0.2532
11514TIP3    H155957   1.479   5.162  12.297 -0.1739  0.1750  0.1490
11514TIP3    H255958   1.527   5.063  12.400  2.1887  2.2935  1.1980
11515TIP3   OH255959   4.324   4.364  13.305 -0.3610  0.1654 -0.1094
11515TIP3    H155960   4.251   4.343  13.362 -1.4864 -0.4934 -1.7128
11515TIP3    H255961   4.374   4.429  13.353 -0.4525 -1.3488  2.2029
11516TIP3   OH255962   2.094   6.271   5.728 -0.3788  0.5114 -0.5280
11516TIP3    H155963   2.154   6.343   5.706  0.7401 -0.1440  0.2782
11516TIP3    H255964   2.143   6.192   5.707 -1.6709 -0.0421 -1.5864
11517TIP3   OH255965   6.083   0.071   2.047 -0.3761 -0.2007 -0.2801
11517TIP3    H155966   6.095   0.099   2.138  0.6618 -0.5936 -0.2892
11517TIP3    H255967   6.127   0.139   1.996  0.3492 -0.7696 -0.4108
11518TIP3   OH255968   6.777   1.750  13.602 -0.7969 -0.0771 -0.5684
11518TIP3    H155969   6.693   1.719  13.569 -0.7677 -0.4445 -0.3101
11518TIP3    H255970   6.835   1.673  13.595 -0.2270  0.4190 -1.6058
11519TIP3   OH255971   6.365   2.310  17.010 -0.1774 -0.2661 -0.7689
11519TIP3    H155972   6.341   2.395  16.975 -0.1769 -0.4881 -1.3136
11519TIP3    H255973   6.281   2.267  17.028 -0.1798  0.0036 -0.1015
11520TIP3   OH255974   2.829   5.356   4.662 -0.0844  0.2317 -0.1573
11520TIP3    H155975   2.791   5.285   4.610  0.0760 -0.9059  1.2114
11520TIP3    H255976   2.819   5.434   4.607 -0.2025 -0.8457 -1.7422
11521TIP3   OH255977   5.021   5.393  16.391  0.0456  0.3450  0.1159
11521TIP3    H155978   5.047   5.478  16.356  2.0681 -0.8183 -1.4420
11521TIP3    H255979   5.012   5.337  16.314 -0.0956 -1.1349  1.1628
11522TIP3   OH255980   3.198   6.253  14.467 -0.0882  0.4320 -0.1603
11522TIP3    H155981   3.272   6.192  14.460 -0.2462  0.1511  0.4966
11522TIP3    H255982   3.124   6.203  14.434 -0.8376 -0.9015  3.1031
11523TIP3   OH255983   1.570   0.881   2.108  0.3626  0.2065 -0.2440
11523TIP3    H155984   1.524   0.959   2.141  0.0799 -0.3302  0.6554
11523TIP3    H255985   1.584   0.900   2.016  0.9892  1.6693  0.1135
11524TIP3   OH255986   3.684   1.276  13.275  0.3486  0.3557 -0.2882
11524TIP3    H155987   3.614   1.335  13.247  0.0107 -0.0558 -0.3107
11524TIP3    H255988   3.727   1.322  13.347 -1.4896 -0.4339  1.3956
11525TIP3   OH255989   6.555   2.273  11.689 -0.0861  0.0080 -0.2718
11525TIP3    H155990   6.650   2.282  11.685 -0.0040 -0.7464 -0.0422
11525TIP3    H255991   6.522   2.360  11.666  0.6573  0.2790 -0.3295
11526TIP3   OH255992   2.849   1.002   4.522 -0.0821 -0.7311  0.4676
11526TIP3    H155993   2.840   1.096   4.503 -1.0531 -0.4298  2.1884
11526TIP3    H255994   2.905   0.999   4.599  0.0486 -1.5883  0.3427
11527TIP3   OH255995   4.166   0.491   1.824 -0.6705 -0.5164  0.4994
11527TIP3    H155996   4.107   0.562   1.798 -0.0920  0.3369  1.4366
11527TIP3    H255997   4.115   0.439   1.886 -0.0179  1.0781  2.4839
11528TIP3   OH255998   2.485   5.718   6.237  0.2454 -0.1266 -0.4117
11528TIP3    H155999   2.536   5.765   6.303 -0.2745 -0.1461  0.0009
11528TIP3    H256000   2.476   5.630   6.271 -1.4797  0.2942  0.3141
11529TIP3   OH256001   5.747   3.789  13.459 -0.2646  0.5055  0.1454
11529TIP3    H156002   5.685   3.784  13.532  2.0223  1.0897  2.2757
11529TIP3    H256003   5.785   3.877  13.467  2.7328 -0.7249  0.6797
11530TIP3   OH256004   0.329   0.498   2.147 -0.2279  0.5098  0.0476
11530TIP3    H156005   0.233   0.491   2.148 -0.2714  1.1316  0.6490
11530TIP3    H256006   0.359   0.408   2.162 -0.7036  0.1970 -0.7877
11531TIP3   OH256007   0.543   5.575   5.198 -0.8458  0.5362 -0.2505
11531TIP3    H156008   0.455   5.612   5.200 -0.2489  2.0303  0.0894
11531TIP3    H256009   0.555   5.537   5.285 -1.1898  0.2357 -0.3347
11532TIP3   OH256010   6.178   6.125  16.973  0.1296 -0.1836  0.2957
11532TIP3    H156011   6.083   6.126  16.990  0.3139  2.5616  1.7073
11532TIP3    H256012   6.187   6.079  16.890 -2.4095 -0.8925  0.3379
11533TIP3   OH256013   4.117   2.073   3.683 -0.0917 -0.4181 -0.6162
11533TIP3    H156014   4.073   2.101   3.764 -1.1831  1.3878 -1.7357
11533TIP3    H256015   4.061   2.005   3.648 -1.3861  0.9717 -1.3739
11534TIP3   OH256016   2.849   0.440   2.570 -0.1074  0.2701  0.0147
11534TIP3    H156017   2.763   0.416   2.605  0.0069 -0.4432 -0.1777
11534TIP3    H256018   2.835   0.445   2.476  0.3155 -0.9917 -0.1315
11535TIP3   OH256019   6.455   5.067  14.185  0.3993 -0.1621 -0.2903
11535TIP3    H156020   6.429   5.140  14.128  1.4429  0.0744 -0.4936
11535TIP3    H256021   6.480   4.997  14.124 -1.0484 -0.8821 -0.0984
11536TIP3   OH256022   0.823   0.836   2.100 -0.1600  0.0051 -0.0029
11536TIP3    H156023   0.765   0.778   2.149 -0.2955  0.7507  0.7384
11536TIP3    H256024   0.904   0.786   2.090 -0.1440 -0.1693  0.9638
11537TIP3   OH256025   3.349   4.380   1.386 -0.3564 -0.1551  0.2806
11537TIP3    H156026   3.395   4.323   1.447  0.2543  1.4135  1.3512
11537TIP3    H256027   3.412   4.448   1.364 -1.1749  0.3240 -0.6785
11538TIP3   OH256028   2.264   6.300  13.093  0.1595  0.2171  0.1899
11538TIP3    H156029   2.348   6.265  13.062  0.8990  0.7894  1.4556
11538TIP3    H256030   2.285   6.340  13.177 -1.4779  0.0102  0.7290
11539TIP3   OH256031   4.296   0.082  14.314 -0.1756  0.3253  0.1085
11539TIP3    H156032   4.362   0.093  14.245  2.3698  2.2786  2.6093
11539TIP3    H256033   4.252   0.166  14.318 -0.8891 -0.0589  0.3430
11540TIP3   OH256034   4.111   5.754   2.939  0.0629  0.7686  0.3659
11540TIP3    H156035   4.156   5.778   3.019  1.1785  1.5014 -0.4531
11540TIP3    H256036   4.066   5.834   2.912 -0.6494  0.4097  0.4691
11541TIP3   OH256037   2.810   6.633   3.147  0.3585 -0.3227  0.0647
11541TIP3    H156038   2.725   6.611   3.109 -0.2608 -0.6091  1.5666
11541TIP3    H256039   2.839   6.551   3.188  1.7976 -0.4873 -1.1784
11542TIP3   OH256040   4.851   1.196   1.207 -0.3912  0.2267  0.1423
11542TIP3    H156041   4.789   1.267   1.223 -1.7558 -1.1325  1.0906
11542TIP3    H256042   4.898   1.187   1.290 -0.5669 -0.3002  0.1867
11543TIP3   OH256043   4.745   4.254  15.138 -1.1594  0.1818 -0.7063
11543TIP3    H156044   4.793   4.264  15.220 -2.5087  0.5353  0.0669
11543TIP3    H256045   4.800   4.298  15.073 -0.4098  0.5096  0.1257
11544TIP3   OH256046   0.440   0.519   4.057 -0.5699  0.3484 -0.3008
11544TIP3    H156047   0.382   0.534   3.982 -1.1197  1.4740  0.3332
11544TIP3    H256048   0.506   0.587   4.050  0.8846 -1.0585 -1.1526
11545TIP3   OH256049   3.019   2.608   4.253 -0.1173 -0.3967 -0.4810
11545TIP3    H156050   3.058   2.695   4.245 -0.2177 -0.3658 -0.6353
11545TIP3    H256051   3.083   2.549   4.212  0.8569 -0.6517  1.3026
11546TIP3   OH256052   3.224   5.430   1.586  0.8450 -0.2620  0.5521
11546TIP3    H156053   3.145   5.409   1.537  2.7366 -0.8523 -2.5306
11546TIP3    H256054   3.230   5.525   1.582  0.3199 -0.2151  0.7829
11547TIP3   OH256055   4.548   5.751   3.900  0.1837  0.9280 -0.2480
11547TIP3    H156056   4.568   5.841   3.874  3.6887  0.7516  1.2538
11547TIP3    H256057   4.548   5.702   3.818  0.6567  1.9397 -0.8662
11548TIP3   OH256058   1.503   6.705   4.052  0.4632  0.0657  0.1923
11548TIP3    H156059   1.453   6.720   4.133  0.1123 -1.2630  0.2479
11548TIP3    H256060   1.594   6.707   4.080  0.3533 -0.0303  0.5714
11549TIP3   OH256061   6.044   0.686   2.755  0.0999  0.4556  0.2276
11549TIP3    H156062   5.993   0.612   2.789 -2.8614  1.3693 -1.8995
11549TIP3    H256063   6.047   0.672   2.661  1.5830  1.8732  0.0235
11550TIP3   OH256064   0.426   2.321  11.823 -0.4521 -0.0831 -0.1848
11550TIP3    H156065   0.358   2.374  11.781 -0.2086 -0.0491 -0.5367
11550TIP3    H256066   0.493   2.384  11.849  0.0744 -0.2670 -1.0558
11551TIP3   OH256067   0.277   1.415   3.016 -0.2485 -0.3599  0.3657
11551TIP3    H156068   0.352   1.400   3.074 -0.0836  0.2430  0.3121
11551TIP3    H256069   0.229   1.487   3.058 -0.1984 -0.0105 -0.1750
11552TIP3   OH256070   5.855   4.444   4.141 -0.4701 -0.0926  0.2927
11552TIP3    H156071   5.898   4.501   4.077  0.7636 -0.6286  0.6000
11552TIP3    H256072   5.781   4.496   4.174  0.3798  1.1860  0.2718
11553TIP3   OH256073   1.114   6.359   0.522  0.1385 -0.1097 -0.7022
11553TIP3    H156074   1.174   6.374   0.595 -1.3673  2.3447  0.1269
11553TIP3    H256075   1.158   6.397   0.447  0.9506 -1.1382 -0.7762
11554TIP3   OH256076   2.935   5.698  14.194  0.0822 -0.7288 -0.1690
11554TIP3    H156077   2.970   5.735  14.275  1.3140 -1.2966 -0.4150
11554TIP3    H256078   2.872   5.633  14.224  1.8726 -2.2837  0.4552
11555TIP3   OH256079   0.697   5.921  14.459 -0.3908 -0.2184  0.9949
11555TIP3    H156080   0.720   5.999  14.408 -1.0717  0.1065  1.1818
11555TIP3    H256081   0.604   5.931  14.477 -0.6861 -1.4804  0.3083
11556TIP3   OH256082   2.078   2.953   4.080 -0.0376 -0.1093  0.7930
11556TIP3    H156083   2.125   3.012   4.139 -0.7947  0.1213  1.1775
11556TIP3    H256084   2.050   3.009   4.007  0.3459 -0.2603  0.5297
11557TIP3   OH256085   4.146   3.321   0.299  0.3816  0.2031 -0.1159
11557TIP3    H156086   4.190   3.395   0.339 -0.6976  1.5269 -1.2664
11557TIP3    H256087   4.093   3.359   0.228  0.2295 -1.7207 -1.1214
11558TIP3   OH256088   3.826   5.146   2.965 -0.1822  0.0971  0.3380
11558TIP3    H156089   3.860   5.214   3.024  0.8723 -1.3520  1.4836
11558TIP3    H256090   3.904   5.097   2.939 -0.5835  0.7870 -2.4812
11559TIP3   OH256091   1.171   3.192  12.371  0.1446  0.3780  0.0408
11559TIP3    H156092   1.173   3.161  12.280  2.9411  0.4803 -0.0243
11559TIP3    H256093   1.106   3.263  12.371 -0.6266 -0.2715 -1.6152
11560TIP3   OH256094   1.418   2.783   3.676  0.5160  0.4250 -0.7276
11560TIP3    H156095   1.393   2.827   3.595 -1.3077 -0.7606 -0.8621
11560TIP3    H256096   1.378   2.836   3.745  2.3661  1.6380 -0.5179
11561TIP3   OH256097   0.130   6.036   0.135  0.0740  0.5358 -0.3989
11561TIP3    H156098   0.042   6.033   0.097  0.4279  2.3354 -1.4884
11561TIP3    H256099   0.153   6.129   0.134  1.4795  0.2456  1.1167
11562TIP3   OH256100   0.263   3.018   3.624 -0.0789 -0.3519 -0.3411
11562TIP3    H156101   0.293   2.937   3.583  1.7034 -0.6344  1.3810
11562TIP3    H256102   0.173   2.999   3.651 -0.0191 -1.4183 -0.8306
11563TIP3   OH256103   1.396   5.271  13.742 -0.6186 -0.4006 -0.1708
11563TIP3    H156104   1.448   5.297  13.666 -1.7457 -1.2480 -1.2800
11563TIP3    H256105   1.320   5.329  13.739 -0.1006  0.3698  1.0360
11564TIP3   OH256106   3.240   5.424   5.062 -0.6308  0.2665  0.2923
11564TIP3    H156107   3.204   5.342   5.029  0.1954 -1.0091  2.3597
11564TIP3    H256108   3.300   5.453   4.993 -2.5412  0.3623 -1.4404
11565TIP3   OH256109   3.909   6.083  14.836 -0.0399  0.2193 -0.3322
11565TIP3    H156110   3.885   6.081  14.744 -0.3268  0.0740 -0.2548
11565TIP3    H256111   3.843   6.029  14.879  0.8785 -0.8654 -0.2331
11566TIP3   OH256112   3.306   3.714  12.961  0.1709  0.0939 -0.2125
11566TIP3    H156113   3.284   3.649  13.028  0.0563 -0.3120 -0.6426
11566TIP3    H256114   3.257   3.687  12.884 -0.6751  1.2557 -0.1136
11567TIP3   OH256115   3.605   4.566   3.227 -0.5845  0.1991 -0.6946
11567TIP3    H156116   3.510   4.559   3.212 -0.6423  1.3165 -0.9830
11567TIP3    H256117   3.644   4.499   3.172 -1.2035 -0.2028 -0.6504
11568TIP3   OH256118   4.834   4.180   1.611  0.3021  0.1493  0.0524
11568TIP3    H156119   4.800   4.091   1.615 -1.8148  0.9193  2.3157
11568TIP3    H256120   4.765   4.231   1.568  0.7442  0.9477  0.2561
11569TIP3   OH256121   5.823   4.035  14.258 -0.0374  0.3028 -0.0098
11569TIP3    H156122   5.908   4.064  14.225  0.0168  0.9472  0.6801
11569TIP3    H256123   5.841   3.950  14.299  0.0235 -0.1732 -0.9982
11570TIP3   OH256124   4.103   3.553  14.092  0.4016  0.5029  0.4389
11570TIP3    H156125   4.162   3.595  14.029 -1.0529  0.8248 -0.7696
11570TIP3    H256126   4.128   3.590  14.177  1.8386  0.7178 -0.0472
11571TIP3   OH256127   3.776   0.115  13.978 -0.0980  0.2357  0.2950
11571TIP3    H156128   3.828   0.183  13.934 -1.3356  0.5887 -0.6674
11571TIP3    H256129   3.747   0.057  13.908  0.8297 -1.2597  1.0849
11572TIP3   OH256130   1.031   5.204   4.444 -0.2220 -0.1527  0.1402
11572TIP3    H156131   1.061   5.164   4.362  0.1574  1.8676 -0.7755
11572TIP3    H256132   0.935   5.201   4.438 -0.2026 -0.9956  0.1457
11573TIP3   OH256133   1.363   0.117  13.195 -0.0095 -0.3030  0.2941
11573TIP3    H156134   1.269   0.127  13.186 -0.2222 -2.4915 -0.5642
11573TIP3    H256135   1.396   0.206  13.204 -2.0488  0.5867 -0.4556
11574TIP3   OH256136   3.753   1.576   5.723  0.1126  0.2080  0.1067
11574TIP3    H156137   3.740   1.529   5.805 -0.0270  0.0645  0.0028
11574TIP3    H256138   3.687   1.540   5.664  2.1262 -1.9379 -1.0367
11575TIP3   OH256139   4.455   2.874  15.969  0.8109 -0.5618 -0.4953
11575TIP3    H156140   4.433   2.816  15.896  1.1602 -0.8350 -0.3821
11575TIP3    H256141   4.495   2.951  15.927  0.0728 -0.2589 -0.6692
11576TIP3   OH256142   3.007   0.681   6.023  0.0131 -0.0553 -0.3197
11576TIP3    H156143   3.055   0.628   6.086  0.6117  0.6527 -0.1645
11576TIP3    H256144   2.915   0.657   6.036  0.2975 -1.3724 -0.5639
11577TIP3   OH256145   2.590   3.922   3.462 -0.2888  0.4800  0.2416
11577TIP3    H156146   2.649   3.850   3.485  0.6202  0.8465 -0.8411
11577TIP3    H256147   2.507   3.879   3.440  0.0738 -0.1962  0.1534
11578TIP3   OH256148   2.417   3.993   4.174  0.0298 -0.1682 -0.1735
11578TIP3    H156149   2.468   4.073   4.167  0.3646 -0.5264 -3.2130
11578TIP3    H256150   2.342   4.008   4.117 -0.7789 -1.4402  0.5057
11579TIP3   OH256151   4.111   2.746   6.560  0.3719  0.5685  0.2089
11579TIP3    H156152   4.128   2.822   6.616  0.6505 -0.9962  2.3759
11579TIP3    H256153   4.017   2.749   6.544 -0.2203 -0.3417  3.0428
11580TIP3   OH256154   1.100   5.855   4.316  0.1869  0.5978 -0.5904
11580TIP3    H156155   1.042   5.789   4.354 -0.2904  1.6633  0.6280
11580TIP3    H256156   1.149   5.809   4.248 -3.6982  0.1212 -3.4080
11581TIP3   OH256157   1.858   0.133  10.918 -0.0496  0.7974 -0.0380
11581TIP3    H156158   1.866   0.099  10.829  1.1110  1.1832 -0.0958
11581TIP3    H256159   1.778   0.092  10.952 -0.4933  0.6289 -1.2404
11582TIP3   OH256160   0.192   6.675  16.943  0.1701  0.3880  0.5354
11582TIP3    H156161   0.241   6.593  16.955  2.3407  1.4392 -0.5429
11582TIP3    H256162   0.184   6.710  17.032  0.9742 -0.0623  0.8041
11583TIP3   OH256163   5.480   2.710   0.235 -0.0092 -0.0026  0.0534
11583TIP3    H156164   5.389   2.741   0.227  0.0684 -0.1002 -1.6044
11583TIP3    H256165   5.475   2.616   0.220  0.2701 -0.1469  0.8382
11584TIP3   OH256166   3.043   5.220   1.247 -0.0570  0.0438  0.3810
11584TIP3    H156167   3.006   5.220   1.159  1.6944 -1.8241 -0.4319
11584TIP3    H256168   3.137   5.218   1.233  0.2573 -0.0595  2.3038
11585TIP3   OH256169   3.123   3.770   6.078 -0.3590 -0.3494  0.2311
11585TIP3    H156170   3.029   3.770   6.060 -0.1059 -0.3808 -1.2729
11585TIP3    H256171   3.140   3.853   6.122 -0.9589  0.0590 -0.2970
11586TIP3   OH256172   4.851   1.045   1.445 -0.1532  0.6846  0.2730
11586TIP3    H156173   4.798   1.125   1.436 -3.0459 -1.2537 -1.5259
11586TIP3    H256174   4.831   1.013   1.533 -1.6384  0.2955 -0.1688
11587TIP3   OH256175   0.958   1.835  13.529 -0.2764  0.0798  0.2480
11587TIP3    H156176   0.903   1.873  13.597 -1.0045  0.6388 -0.6338
11587TIP3    H256177   1.042   1.818  13.572 -0.4604  1.1957  1.0648
11588TIP3   OH256178   1.008   1.585  14.381 -0.1388  0.8069 -0.0313
11588TIP3    H156179   1.004   1.676  14.350  1.2228  0.8976  0.0190
11588TIP3    H256180   0.967   1.589  14.468  1.1132  1.6553  0.5467
11589TIP3   OH256181   0.038   1.976   2.105  0.5958  0.1903  0.1624
11589TIP3    H156182  -0.002   1.955   2.021  2.1661  0.4462 -0.6864
11589TIP3    H256183   0.008   1.907   2.164 -0.1472 -0.2694 -0.7318
11590TIP3   OH256184   1.255   1.142   1.462 -0.1753 -0.8224 -0.1136
11590TIP3    H156185   1.242   1.050   1.483 -0.5042 -0.9473 -0.8719
11590TIP3    H256186   1.222   1.189   1.539  2.6938 -1.3840  1.6388
11591TIP3   OH256187   0.673   0.292   0.377 -0.2167 -0.1592  0.2779
11591TIP3    H156188   0.748   0.264   0.323 -1.2684 -0.0851 -1.2704
11591TIP3    H256189   0.691   0.384   0.396  1.1929 -0.7111  1.8787
11592TIP3   OH256190   2.069   2.426   1.734  0.1299  1.0547 -0.0781
11592TIP3    H156191   2.083   2.439   1.640 -1.2227 -1.5184 -0.7169
11592TIP3    H256192   1.979   2.456   1.749 -0.4376 -0.5261 -0.1149
11593TIP3   OH256193   3.443   1.427  13.223  0.1796  0.7294  0.2023
11593TIP3    H156194   3.410   1.356  13.278 -0.2962  0.0295 -0.9370
11593TIP3    H256195   3.379   1.433  13.152  0.7495  1.6335 -0.2548
11594TIP3   OH256196   5.878   1.663   0.713  0.0891 -0.0578 -0.3334
11594TIP3    H156197   5.909   1.623   0.794 -1.5769 -0.4664  0.1339
11594TIP3    H256198   5.957   1.673   0.660  0.8552 -2.1821  0.2902
11595TIP3   OH256199   1.454   4.122   1.938  0.1411 -0.2020  0.2382
11595TIP3    H156200   1.547   4.142   1.928  0.2982 -1.0957 -0.1740
11595TIP3    H256201   1.423   4.105   1.849 -0.2194 -0.7314  0.4606
11596TIP3   OH256202   6.419   0.759  16.874 -0.2193  0.1022 -0.2418
11596TIP3    H156203   6.436   0.724  16.787 -1.6154 -0.6915 -0.2350
11596TIP3    H256204   6.490   0.725  16.929 -0.6068 -1.3419 -0.6002
11597TIP3   OH256205   5.901   4.046  10.970  0.3730  0.6733 -0.1959
11597TIP3    H156206   5.917   4.030  10.877 -0.4412  1.9612 -0.5836
11597TIP3    H256207   5.968   4.110  10.995  0.2736  0.7081 -0.0195
11598TIP3   OH256208   1.946   5.398  12.133 -0.3968  0.0309 -0.1444
11598TIP3    H156209   1.894   5.319  12.143  2.1683 -1.8023 -0.2221
11598TIP3    H256210   1.951   5.412  12.038 -0.1687 -0.2054 -0.1668
11599TIP3   OH256211   4.734   4.245   0.131  0.3146 -0.0595  0.2147
11599TIP3    H156212   4.790   4.231   0.054  1.1182  1.4615  0.4888
11599TIP3    H256213   4.673   4.171   0.130  0.9374 -0.5902 -1.3282
11600TIP3   OH256214   4.326   6.628  12.333  0.0576  0.1556  0.3176
11600TIP3    H156215   4.294   6.542  12.306  1.3757 -0.5130  0.7831
11600TIP3    H256216   4.322   6.626  12.429 -1.2196  1.1596  0.3120
11601TIP3   OH256217   5.147   0.105   4.208 -0.0418 -0.6363  0.0551
11601TIP3    H156218   5.068   0.108   4.263 -0.4586  1.1556 -0.5857
11601TIP3    H256219   5.220   0.105   4.271 -0.5106  1.2152  0.6643
11602TIP3   OH256220   5.974   6.685   2.411  1.0023  0.5619 -0.7824
11602TIP3    H156221   6.054   6.723   2.447 -0.2676  0.3482  2.6145
11602TIP3    H256222   5.917   6.761   2.394  0.8909  0.5721 -0.3837
11603TIP3   OH256223   4.120   3.377   0.810 -0.1864 -1.2777  0.5193
11603TIP3    H156224   4.079   3.312   0.752  0.8588 -1.5399  0.0627
11603TIP3    H256225   4.048   3.408   0.865 -0.9486 -1.9257 -0.0877
11604TIP3   OH256226   1.058   1.047  10.705  0.6328  0.8973  0.1313
11604TIP3    H156227   1.014   0.962  10.711 -2.2711  2.2790  0.0094
11604TIP3    H256228   1.112   1.040  10.626  0.1027 -0.6662 -0.1380
11605TIP3   OH256229   4.232   3.261   5.222 -0.0539  0.0478 -0.8878
11605TIP3    H156230   4.226   3.350   5.189  0.8931 -0.2078 -1.7896
11605TIP3    H256231   4.229   3.205   5.144 -2.7166 -0.8645 -0.2364
11606TIP3   OH256232   5.090   4.680   3.016  0.0527 -0.2183  0.0215
11606TIP3    H156233   5.098   4.774   3.004  0.1519 -0.3656 -1.1206
11606TIP3    H256234   5.006   4.669   3.061 -0.0927  0.3953 -0.0890
11607TIP3   OH256235   3.615   4.112  15.527  0.1361 -0.5571 -0.5017
11607TIP3    H156236   3.530   4.129  15.567  0.3466 -0.9663  0.1437
11607TIP3    H256237   3.678   4.123  15.599  0.4704 -1.8944 -0.5619
11608TIP3   OH256238   1.405   0.497  15.473 -0.3815  0.8553  0.4153
11608TIP3    H156239   1.470   0.492  15.543  0.4653 -0.9156 -0.4359
11608TIP3    H256240   1.452   0.471  15.394 -1.9116  0.3261 -0.3700
11609TIP3   OH256241   5.655   6.551  13.572  0.0905 -0.0030 -0.2711
11609TIP3    H156242   5.618   6.505  13.647  0.7536  1.0151  0.7234
11609TIP3    H256243   5.598   6.529  13.499  0.4701 -2.4888  0.1047
11610TIP3   OH256244   5.627   0.762   4.134 -0.1724  0.0310 -0.6228
11610TIP3    H156245   5.633   0.782   4.040 -0.2470  0.1354 -0.6052
11610TIP3    H256246   5.677   0.831   4.177 -1.5705  0.9745 -0.4708
11611TIP3   OH256247   1.750   2.782   2.674 -0.0312  0.7069  0.0599
11611TIP3    H156248   1.696   2.714   2.635 -0.0416 -0.0346  1.3097
11611TIP3    H256249   1.688   2.845   2.708 -0.0187  1.4889 -1.2859
11612TIP3   OH256250   3.729   4.430  11.414  0.2563  0.1210 -0.1479
11612TIP3    H156251   3.781   4.405  11.491 -1.9525  0.5924  1.5962
11612TIP3    H256252   3.761   4.372  11.345  1.4958 -1.2080  1.4214
11613TIP3   OH256253   2.073   1.372  15.489  0.8535  0.7160 -0.5272
11613TIP3    H156254   2.088   1.458  15.450 -0.5529  1.5371  0.6519
11613TIP3    H256255   2.059   1.389  15.582 -4.1112 -0.0727 -0.8286
11614TIP3   OH256256   3.366   4.393   5.950  0.3833  0.5181 -0.3663
11614TIP3    H156257   3.368   4.299   5.935  0.7578  0.4935 -0.1750
11614TIP3    H256258   3.337   4.430   5.867 -0.2325  0.2056 -0.2972
11615TIP3   OH256259   2.333   2.060  13.489 -0.0675 -0.1601 -0.2496
11615TIP3    H156260   2.370   2.101  13.567  0.5578  0.8280 -1.0483
11615TIP3    H256261   2.398   1.996  13.461 -0.0442 -0.1191 -0.2884
11616TIP3   OH256262   4.415   6.780   1.430  0.4058 -0.3889  0.4031
11616TIP3    H156263   4.373   6.710   1.479 -1.0250  0.5266  0.5274
11616TIP3    H256264   4.462   6.735   1.360  0.3512 -1.5278  1.0826
11617TIP3   OH256265   4.281   2.000   1.314  0.4780  0.1967 -0.4976
11617TIP3    H156266   4.344   2.025   1.247  0.1287  1.6615 -0.3103
11617TIP3    H256267   4.200   1.982   1.266  0.3158  0.9327 -0.5126
11618TIP3   OH256268   2.591   4.356  15.051 -0.6081  0.3085  0.0349
11618TIP3    H156269   2.555   4.353  15.140 -0.5892  0.8155  0.0652
11618TIP3    H256270   2.555   4.437  15.014  0.0184  0.5113 -0.1456
11619TIP3   OH256271   2.682   5.936  15.615  0.4980  0.3422 -0.2833
11619TIP3    H156272   2.773   5.908  15.616  0.5491  0.1968 -2.6960
11619TIP3    H256273   2.634   5.861  15.651  1.2322  0.0291  0.0738
11620TIP3   OH256274   3.559   5.285  14.722 -0.0165 -0.4924  0.0572
11620TIP3    H156275   3.578   5.199  14.759 -1.2524 -0.7910  0.0420
11620TIP3    H256276   3.642   5.314  14.684  0.1773 -2.1585 -0.8870
11621TIP3   OH256277   4.712   1.426   1.170 -0.7486  0.0487 -0.0211
11621TIP3    H156278   4.651   1.443   1.098  0.8311  0.2676 -1.3980
11621TIP3    H256279   4.798   1.446   1.133  0.0220  1.8738  2.4998
11622TIP3   OH256280   1.723   0.937  10.414  0.4694 -0.3339 -0.4161
11622TIP3    H156281   1.741   0.844  10.405  1.5970  0.0011 -2.0079
11622TIP3    H256282   1.752   0.976  10.331  1.8362  1.6918  0.8974
11623TIP3   OH256283   5.909   3.909   2.952 -0.1196  0.6632 -0.2287
11623TIP3    H156284   5.956   3.826   2.944  1.2197  1.4310 -0.6921
11623TIP3    H256285   5.926   3.939   3.041  0.7206  1.1824 -0.5517
11624TIP3   OH256286   2.860   3.429  11.443 -0.0668  0.6670  0.7072
11624TIP3    H156287   2.893   3.366  11.380  2.2732  1.1952  1.3105
11624TIP3    H256288   2.828   3.376  11.516  0.1410  0.1300  0.4094
11625TIP3   OH256289   5.070   3.776  16.726 -0.3616  0.1226  0.2945
11625TIP3    H156290   5.147   3.727  16.755 -1.1063 -0.8676  0.6454
11625TIP3    H256291   5.101   3.829  16.653  0.2770 -1.5335 -0.6900
11626TIP3   OH256292   6.179   1.799  13.215  0.0748  0.3008 -0.0080
11626TIP3    H156293   6.220   1.850  13.285 -1.4102  1.7993 -0.1485
11626TIP3    H256294   6.092   1.778  13.249 -0.7109  1.1331 -1.4066
11627TIP3   OH256295   1.802   4.162  12.309 -0.0121  0.0615 -0.0774
11627TIP3    H156296   1.739   4.118  12.366 -0.4193  0.0905 -0.4939
11627TIP3    H256297   1.847   4.090  12.264  0.3350  0.0377  0.2992
11628TIP3   OH256298   3.503   1.738   2.354  0.3357  0.0147  0.1240
11628TIP3    H156299   3.554   1.814   2.328  0.8722 -0.2916  0.2579
11628TIP3    H256300   3.411   1.765   2.343  0.5239  0.5847 -0.0734
11629TIP3   OH256301   2.576   5.133  14.260 -0.0298  0.1074  0.2433
11629TIP3    H156302   2.578   5.038  14.250  2.5847  0.2444 -1.4257
11629TIP3    H256303   2.543   5.147  14.349  0.8639 -2.3907  1.0591
11630TIP3   OH256304   3.710   3.528  16.631  0.1711 -0.0325 -0.9035
11630TIP3    H156305   3.797   3.561  16.607  0.4913 -1.0464 -1.1940
11630TIP3    H256306   3.720   3.432  16.629 -0.2414 -0.1946  1.5681
11631TIP3   OH256307   5.262   5.702   1.933  0.0602 -0.3612 -0.0305
11631TIP3    H156308   5.242   5.753   2.012 -1.3983 -1.2705  0.2144
11631TIP3    H256309   5.180   5.659   1.910  1.2921 -2.8933 -0.0404
11632TIP3   OH256310   1.417   5.103   5.444 -0.1215  0.1713 -0.3200
11632TIP3    H156311   1.417   5.153   5.363 -0.9509  1.0877  0.2185
11632TIP3    H256312   1.346   5.039   5.433  1.0738 -1.0601 -1.0909
11633TIP3   OH256313   3.868   0.145   5.265  0.0513  0.1914  0.1279
11633TIP3    H156314   3.792   0.095   5.295 -0.1392  0.8106  0.7184
11633TIP3    H256315   3.863   0.142   5.169  0.0909 -0.9705  0.1548
11634TIP3   OH256316   6.183   0.246   3.836 -0.0605  0.5028  0.1968
11634TIP3    H156317   6.089   0.228   3.831 -0.3185  1.4401  1.1545
11634TIP3    H256318   6.222   0.164   3.866 -0.4380 -0.1728 -1.0683
11635TIP3   OH256319   1.626   1.723   2.098  0.0966  0.2058 -0.0669
11635TIP3    H156320   1.648   1.814   2.118  1.0100 -0.0146 -0.0213
11635TIP3    H256321   1.617   1.681   2.184 -2.4412  0.6944 -0.0060
11636TIP3   OH256322   3.022   0.789   5.577  0.4625  0.3972 -0.2650
11636TIP3    H156323   2.959   0.732   5.621 -0.1436  1.7749  0.7206
11636TIP3    H256324   2.990   0.794   5.486  0.6774 -0.9969 -0.4438
11637TIP3   OH256325   3.353   1.558   1.778  0.5625  0.0566 -0.1943
11637TIP3    H156326   3.311   1.481   1.741 -0.3120 -0.5139  1.8189
11637TIP3    H256327   3.427   1.523   1.828  1.2746  0.7237 -0.7474
11638TIP3   OH256328   0.708   2.751  11.222 -0.3414 -0.0727 -0.7677
11638TIP3    H156329   0.632   2.796  11.185 -1.0626 -0.3517  0.2964
11638TIP3    H256330   0.765   2.732  11.148 -1.6295 -0.4270 -1.6940
11639TIP3   OH256331   6.665   2.122  14.181  0.9241 -0.4700  0.3103
11639TIP3    H156332   6.691   2.181  14.111 -1.5913 -0.2599 -0.5529
11639TIP3    H256333   6.622   2.179  14.245  1.7560 -0.8907  1.2713
11640TIP3   OH256334   3.289   2.461   2.615 -0.1882 -0.1646  0.2959
11640TIP3    H156335   3.357   2.416   2.664  1.0981  0.3530 -0.9593
11640TIP3    H256336   3.271   2.540   2.666  0.0460 -0.3806  0.7121
11641TIP3   OH256337   3.772   3.808  15.674 -0.4749 -0.0104  0.4038
11641TIP3    H156338   3.766   3.883  15.733 -0.6466 -1.1517  1.9251
11641TIP3    H256339   3.854   3.765  15.697  0.3447  0.4582 -1.4435
11642TIP3   OH256340   4.223   0.936  11.769 -0.2260  0.0642  0.7407
11642TIP3    H156341   4.133   0.952  11.741  0.4549  1.6102 -0.7581
11642TIP3    H256342   4.275   1.001  11.721  1.8802 -1.7545  0.4274
11643TIP3   OH256343   5.675   3.295   1.918 -0.2703  0.2536 -0.3911
11643TIP3    H156344   5.673   3.199   1.923  0.7147  0.2799  1.3011
11643TIP3    H256345   5.603   3.323   1.975  0.4230  0.5188  0.3623
11644TIP3   OH256346   3.948   3.172   2.544  0.2350 -0.0508  0.0797
11644TIP3    H156347   3.871   3.116   2.535  0.4784 -0.4791  0.6161
11644TIP3    H256348   3.930   3.226   2.621 -0.2358  1.0072 -0.7485
11645TIP3   OH256349   0.600   1.580   1.812  0.7707 -0.5261  0.1415
11645TIP3    H156350   0.514   1.543   1.792 -1.1431  2.4025  2.1594
11645TIP3    H256351   0.610   1.652   1.751  0.6787  0.5677  1.3818
11646TIP3   OH256352   0.528   2.350  16.775  0.7083  0.7083 -0.0079
11646TIP3    H156353   0.528   2.426  16.833  1.9041 -1.8529  3.6896
11646TIP3    H256354   0.443   2.309  16.790  0.0578  1.2171 -1.9947
11647TIP3   OH256355   0.167   3.510  14.974  0.0870 -0.3984  0.2909
11647TIP3    H156356   0.184   3.596  15.013  0.9155 -0.9928  1.3026
11647TIP3    H256357   0.084   3.520  14.928 -0.4093  0.6331  1.3700
11648TIP3   OH256358   4.673   5.054  17.030 -0.0606 -0.5068 -0.2752
11648TIP3    H156359   4.675   5.134  16.976  1.7737 -1.6304 -2.0235
11648TIP3    H256360   4.742   4.999  16.993 -1.2746 -2.9348  0.8673
11649TIP3   OH256361   0.075   4.521   4.224  0.8673  0.7022 -0.4342
11649TIP3    H156362   0.090   4.492   4.134 -0.6332 -2.1147  0.1005
11649TIP3    H256363   0.134   4.468   4.277 -0.3015  0.2217  0.4355
11650TIP3   OH256364   2.285   0.054  14.937  0.4108 -0.1473  0.1440
11650TIP3    H156365   2.240   0.009  14.865 -0.1329 -0.0066  0.3902
11650TIP3    H256366   2.358   0.099  14.895  0.0160  0.0490 -0.3431
11651TIP3   OH256367   3.248   3.635   4.234  0.0547 -0.0194  0.3675
11651TIP3    H156368   3.179   3.577   4.266  0.1921  0.2634  1.2012
11651TIP3    H256369   3.264   3.606   4.144 -2.3702  1.0340 -0.4928
11652TIP3   OH256370   2.872   5.309  11.766  1.1637  0.4629  0.2053
11652TIP3    H156371   2.881   5.317  11.671  1.4341  1.0568  0.2771
11652TIP3    H256372   2.939   5.245  11.791  0.3716 -0.5111 -0.1287
11653TIP3   OH256373   4.715   5.836  13.420 -0.7351  0.4001  0.2570
11653TIP3    H156374   4.795   5.783  13.417 -0.4134  0.8771  0.1680
11653TIP3    H256375   4.686   5.840  13.329 -1.6099 -0.8660  0.4554
11654TIP3   OH256376   1.997   0.318  13.477 -0.0151 -0.3502 -0.7762
11654TIP3    H156377   1.983   0.368  13.397  0.3204  0.2816 -0.4457
11654TIP3    H256378   1.923   0.341  13.534  0.6235  0.4927 -0.2712
11655TIP3   OH256379   3.573   6.479  10.965 -0.1914 -0.0175 -0.3374
11655TIP3    H156380   3.562   6.448  11.055 -0.2228 -0.5932 -0.5396
11655TIP3    H256381   3.494   6.530  10.948 -0.5695 -0.5859 -0.3131
11656TIP3   OH256382   1.767   0.545  12.341  0.0071 -0.3581 -0.2690
11656TIP3    H156383   1.688   0.493  12.359 -0.7243  0.3387 -1.3615
11656TIP3    H256384   1.836   0.501  12.390 -1.4845  0.4060  2.8377
11657TIP3   OH256385   0.128   1.907   2.712 -0.1971  0.2878  0.5928
11657TIP3    H156386   0.206   1.863   2.746 -0.9721 -0.5377  1.3490
11657TIP3    H256387   0.130   1.994   2.753  0.6870  0.5272  0.0586
11658TIP3   OH256388   0.600   3.556  15.898  0.1411  0.3217 -0.2569
11658TIP3    H156389   0.595   3.650  15.878 -0.0062  0.5546  0.8286
11658TIP3    H256390   0.689   3.531  15.873  0.5208  0.9893  0.3846
11659TIP3   OH256391   3.485   5.460  15.079 -0.2693 -0.3137 -0.2609
11659TIP3    H156392   3.529   5.523  15.023 -1.5445  0.1274 -0.7940
11659TIP3    H256393   3.550   5.391  15.093  0.6388  0.4000 -0.8773
11660TIP3   OH256394   1.656   4.950   1.264 -0.1807  0.2704 -0.8819
11660TIP3    H156395   1.690   5.017   1.324 -2.5177 -1.2760  2.4694
11660TIP3    H256396   1.615   5.000   1.193  2.2061  2.2156 -0.9990
11661TIP3   OH256397   3.429   4.078   0.828 -0.3092 -0.0876  0.0478
11661TIP3    H156398   3.434   4.040   0.740 -2.1673 -1.2684  0.3985
11661TIP3    H256399   3.336   4.099   0.840  0.1437  1.4279  1.1934
11662TIP3   OH256400   4.804   6.057   1.878 -0.4321 -0.3892 -0.1128
11662TIP3    H156401   4.717   6.023   1.861 -0.9101  0.1919  1.0495
11662TIP3    H256402   4.829   6.103   1.798 -1.6998  0.4893 -0.0233
11663TIP3   OH256403   6.428   3.969  15.919  0.5969  0.0004 -0.2854
11663TIP3    H156404   6.358   3.938  15.861  0.9581 -1.0894 -0.1566
11663TIP3    H256405   6.396   3.951  16.007  0.0661  1.6194 -0.1252
11664TIP3   OH256406   6.512   2.708  16.885  0.4587  0.0875 -0.0635
11664TIP3    H156407   6.421   2.731  16.864  0.3155 -0.5354 -0.1482
11664TIP3    H256408   6.529   2.630  16.833  1.4933  0.9673 -1.0967
11665TIP3   OH256409   3.726   1.620  14.242 -0.0004  0.1087 -0.5072
11665TIP3    H156410   3.638   1.583  14.241  0.0872 -0.1846  0.6396
11665TIP3    H256411   3.716   1.706  14.282  0.2947 -0.1455  0.1349
11666TIP3   OH256412   2.905   0.748  13.945  0.0656 -0.3174 -0.4336
11666TIP3    H156413   2.944   0.822  13.899 -0.6309 -0.2582 -0.9399
11666TIP3    H256414   2.975   0.716  14.002  1.5331 -1.4625 -2.7318
11667TIP3   OH256415   1.635   1.939  15.518  0.2042  0.2873 -0.4473
11667TIP3    H156416   1.580   1.892  15.581  0.1868  0.3314 -0.4297
11667TIP3    H256417   1.690   1.994  15.573 -2.5370  3.4215 -0.5385
11668TIP3   OH256418   2.852   0.929  13.566 -0.2813 -0.9588  0.1282
11668TIP3    H156419   2.835   0.840  13.534  0.4802 -0.8444 -0.6232
11668TIP3    H256420   2.765   0.970  13.567 -0.3067 -0.7021 -2.6962
11669TIP3   OH256421   3.690   3.320   0.750 -0.1804 -0.5937 -0.2924
11669TIP3    H156422   3.596   3.338   0.755 -0.9887 -4.2596  2.6945
11669TIP3    H256423   3.731   3.395   0.794 -1.7258  0.7416 -1.0260
11670TIP3   OH256424   5.661   4.990   4.532 -0.3770  0.5547  0.3520
11670TIP3    H156425   5.659   5.015   4.624 -0.6675 -0.5923  0.6681
11670TIP3    H256426   5.745   4.947   4.520 -0.1592  1.0688 -0.0323
11671TIP3   OH256427   2.491   0.935   0.670 -0.0214  0.1452  0.2859
11671TIP3    H156428   2.519   0.888   0.591 -0.1855  2.7981 -1.4771
11671TIP3    H256429   2.397   0.948   0.658  0.2047  1.8037  0.1885
11672TIP3   OH256430   3.483   3.016   0.354 -0.0073  0.0543 -0.3596
11672TIP3    H156431   3.477   3.070   0.432  0.0750 -0.3858 -0.0476
11672TIP3    H256432   3.540   2.943   0.379  1.1511  0.6128 -1.2304
11673TIP3   OH256433   6.548   0.532   4.097 -0.1043 -0.5315  0.2943
11673TIP3    H156434   6.580   0.477   4.026  1.0051  1.5326 -0.8951
11673TIP3    H256435   6.472   0.578   4.060  0.4486  0.5190  0.4315
11674TIP3   OH256436   4.154   0.064   3.173 -1.1595 -0.3363 -0.0161
11674TIP3    H156437   4.102   0.042   3.096  0.2130 -0.8308 -0.8323
11674TIP3    H256438   4.220  -0.005   3.178  0.1142  0.8572  0.3255
11675TIP3   OH256439   0.080   5.092  15.495 -0.3650 -0.0692  0.8323
11675TIP3    H156440   0.016   5.036  15.450 -2.1414  1.5519  1.2271
11675TIP3    H256441   0.142   5.116  15.426  0.2196 -2.1312  0.5655
11676TIP3   OH256442   2.478   6.258   2.691 -0.8040 -0.1355  0.2988
11676TIP3    H156443   2.497   6.332   2.750 -1.5956 -0.4043  0.9157
11676TIP3    H256444   2.469   6.297   2.605  2.0582  0.0746 -0.0035
11677TIP3   OH256445   4.459   4.388   5.015  0.6772 -0.2295  0.9668
11677TIP3    H156446   4.365   4.372   5.009  0.8990 -1.0528 -1.7534
11677TIP3    H256447   4.469   4.447   5.090 -2.2463  1.6559  0.0393
11678TIP3   OH256448   6.321   2.566   3.098  0.3308 -0.1044  0.0094
11678TIP3    H156449   6.254   2.584   3.031  1.5006 -1.8258 -1.7663
11678TIP3    H256450   6.326   2.470   3.100  1.4435 -0.0377  1.4520
11679TIP3   OH256451   5.783   4.033  12.633  0.3743  0.3096  0.7335
11679TIP3    H156452   5.705   4.084  12.655  0.5355  0.4143  1.0804
11679TIP3    H256453   5.761   3.943  12.656 -0.5290 -0.0920 -1.4596
11680TIP3   OH256454   4.457   6.751  12.930 -0.4265 -0.1266 -0.3099
11680TIP3    H156455   4.416   6.830  12.965 -3.3318 -2.2656  1.6007
11680TIP3    H256456   4.531   6.734  12.989  1.0827  1.7624 -1.5420
11681TIP3   OH256457   5.782   5.339   4.905  0.6751 -0.3637 -0.2891
11681TIP3    H156458   5.874   5.363   4.896  0.4835  0.7124  0.4051
11681TIP3    H256459   5.739   5.419   4.934 -0.7923 -0.3877 -2.2439
11682TIP3   OH256460   5.640   5.206   6.241 -0.3651  0.2356 -0.3382
11682TIP3    H156461   5.704   5.276   6.228  0.8494 -0.8635 -0.5123
11682TIP3    H256462   5.668   5.137   6.181 -0.6540 -0.9658  0.8522
11683TIP3   OH256463   6.701   6.754  13.454  0.1080 -0.6853 -0.0153
11683TIP3    H156464   6.608   6.773  13.439  0.3045 -0.5376 -1.1313
11683TIP3    H256465   6.704   6.660  13.469 -0.5684 -0.3186  3.0511
11684TIP3   OH256466   5.588   5.445   0.496 -0.8293  0.3724  0.3910
11684TIP3    H156467   5.530   5.492   0.556  0.6025  1.0075  1.3283
11684TIP3    H256468   5.571   5.484   0.410 -1.2358  1.0633  0.7807
11685TIP3   OH256469   1.569   2.274  13.935 -0.5524 -0.2157 -0.3638
11685TIP3    H156470   1.565   2.349  13.875  1.5505 -0.2500 -0.6428
11685TIP3    H256471   1.558   2.198  13.878  0.5911 -0.2166 -0.6003
11686TIP3   OH256472   0.347   6.053   6.288  0.1653 -0.3360  0.1736
11686TIP3    H156473   0.292   6.109   6.344  0.8925  0.3844  0.1905
11686TIP3    H256474   0.436   6.085   6.304  0.6134 -1.5991  0.2753
11687TIP3   OH256475   0.023   1.064   3.051 -0.6539 -0.2151  0.1186
11687TIP3    H156476   0.109   1.071   3.093 -0.1130 -1.0443 -0.8083
11687TIP3    H256477   0.020   0.975   3.016 -1.5250  0.0962 -0.6538
11688TIP3   OH256478   1.562   3.717   5.540  0.4756 -0.1765 -0.4702
11688TIP3    H156479   1.515   3.799   5.556 -0.6272 -1.1917  2.2031
11688TIP3    H256480   1.514   3.676   5.468 -1.3529 -0.1015  0.6393
11689TIP3   OH256481   4.101   3.755  14.364  0.2482  0.5523  0.1621
11689TIP3    H156482   4.132   3.780  14.451 -0.5251  0.4407  0.4787
11689TIP3    H256483   4.038   3.685  14.380  1.1575 -0.4837 -0.5906
11690TIP3   OH256484   3.077   3.174   3.255  0.3753 -0.3415 -0.3955
11690TIP3    H156485   2.982   3.163   3.263 -0.1581  2.0508 -2.4782
11690TIP3    H256486   3.105   3.201   3.343 -1.1907  0.8654 -0.2287
11691TIP3   OH256487   0.634   3.722   0.499  0.0413 -0.3239  0.0229
11691TIP3    H156488   0.712   3.704   0.446  0.8460  1.3785  0.5566
11691TIP3    H256489   0.590   3.794   0.454  0.3342  0.6350  1.2122
11692TIP3   OH256490   0.369   2.948  15.673 -0.5531  0.1182 -0.2700
11692TIP3    H156491   0.440   2.891  15.704 -0.3751 -0.2496 -1.3315
11692TIP3    H256492   0.316   2.893  15.616 -0.8522  0.7967 -0.6608
11693TIP3   OH256493   6.615   4.193  12.957  0.0339  0.5511  0.1139
11693TIP3    H156494   6.674   4.261  12.989  0.9009 -0.5265  0.8812
11693TIP3    H256495   6.659   4.157  12.880  0.0452  0.2210  0.2717
11694TIP3   OH256496   5.547   0.337   3.527 -0.4455 -0.2416  0.0230
11694TIP3    H156497   5.582   0.351   3.439 -1.0811  0.5336 -0.1214
11694TIP3    H256498   5.527   0.244   3.530  0.9478 -0.5683 -0.1314
11695TIP3   OH256499   0.242   4.527   6.594  0.4987 -0.7183 -0.2148
11695TIP3    H156500   0.245   4.613   6.636 -0.7469 -0.0547 -1.4276
11695TIP3    H256501   0.217   4.467   6.665 -2.5221  0.5022 -0.0860
11696TIP3   OH256502   6.157   5.608   5.233  0.3770 -0.1742  1.0617
11696TIP3    H156503   6.204   5.630   5.153  1.5041  1.0628  2.0292
11696TIP3    H256504   6.165   5.513   5.241  0.8481 -0.2198  0.0881
11697TIP3   OH256505   1.602   0.861   1.826  0.3041  0.1693  0.3727
11697TIP3    H156506   1.617   0.782   1.774 -2.1729 -1.5266  2.0619
11697TIP3    H256507   1.520   0.897   1.793 -1.1610 -0.7772  2.8085
11698TIP3   OH256508   6.671   0.204  15.953  0.7667  0.8570  0.4403
11698TIP3    H156509   6.754   0.168  15.920  1.7080  2.9647  0.3833
11698TIP3    H256510   6.641   0.263  15.884 -0.5949  0.4478  0.6488
11699TIP3   OH256511   0.343   4.674   4.634 -0.0618  0.4714 -0.3099
11699TIP3    H156512   0.265   4.720   4.666  0.9243  1.2997  1.0277
11699TIP3    H256513   0.375   4.626   4.710  2.0334  2.0435 -0.1154
11700TIP3   OH256514   4.533   2.069  17.119  0.1258 -0.1011  0.2076
11700TIP3    H156515   4.572   2.002  17.063 -0.2032 -0.0115 -0.1413
11700TIP3    H256516   4.476   2.119  17.059 -0.0658  0.1291  0.5804
11701TIP3   OH256517   4.130   0.838   4.122  0.0474  0.5667 -0.6984
11701TIP3    H156518   4.181   0.765   4.087 -2.2150 -2.0606  1.0700
11701TIP3    H256519   4.163   0.850   4.211  0.9887  2.4151 -1.2352
11702TIP3   OH256520   2.961   0.391   5.061  0.0083 -0.1747 -0.0044
11702TIP3    H156521   3.042   0.409   5.108  0.1131  1.4208 -0.7095
11702TIP3    H256522   2.922   0.478   5.048 -1.1449 -0.7955 -0.8179
11703TIP3   OH256523   4.850   0.419  16.957 -0.1568  0.4210  0.4832
11703TIP3    H156524   4.853   0.341  17.012  0.7083 -1.0930 -1.5463
11703TIP3    H256525   4.792   0.394  16.885  1.9700  0.6689 -1.4577
11704TIP3   OH256526   5.810   2.355   4.300  0.6979  0.2218  0.1970
11704TIP3    H156527   5.873   2.296   4.341  1.1919 -0.5421 -1.5518
11704TIP3    H256528   5.735   2.299   4.280  1.0392  0.2106 -1.1705
11705TIP3   OH256529   6.574   6.295  16.736  0.1160  0.3589 -0.3933
11705TIP3    H156530   6.628   6.371  16.759  1.4001 -0.7779  0.4973
11705TIP3    H256531   6.519   6.281  16.813 -0.8929  1.0122 -0.9795
11706TIP3   OH256532   2.952   0.141   0.387  0.3114 -0.1169  0.3180
11706TIP3    H156533   2.875   0.085   0.373  1.3629 -1.4618 -0.3055
11706TIP3    H256534   3.005   0.129   0.308  0.2928  2.2974 -0.1441
11707TIP3   OH256535   1.160   1.052  12.551 -0.2663  0.6068  0.0877
11707TIP3    H156536   1.228   1.013  12.607  0.2659  1.8502  0.3570
11707TIP3    H256537   1.089   0.988  12.550  1.3726 -1.3293 -1.2097
11708TIP3   OH256538   5.312   0.242   5.698  0.3462 -0.5401  0.0180
11708TIP3    H156539   5.358   0.159   5.704 -0.3072 -0.8163  3.6442
11708TIP3    H256540   5.346   0.294   5.771 -1.7968  0.9529  0.0744
11709TIP3   OH256541   6.094   0.517   0.525 -0.3227  0.0147  0.7129
11709TIP3    H156542   6.188   0.498   0.523 -0.5438 -1.6835  2.7061
11709TIP3    H256543   6.056   0.458   0.461 -0.1675 -0.2919  0.9020
11710TIP3   OH256544   1.908   5.815   5.079 -0.3973 -0.4007 -0.4758
11710TIP3    H156545   1.911   5.844   4.988 -1.4453  1.0364 -0.0824
11710TIP3    H256546   1.816   5.821   5.103  0.0647  0.7263  1.1319
11711TIP3   OH256547   6.769   2.336   3.411  0.4922 -0.2559  0.0812
11711TIP3    H156548   6.801   2.391   3.482 -1.1045  0.9183 -0.0283
11711TIP3    H256549   6.753   2.398   3.339 -0.2909 -1.0418 -0.4430
11712TIP3   OH256550   3.112   6.541   2.100 -0.1217  0.2503 -0.5007
11712TIP3    H156551   3.044   6.482   2.134  0.0477 -0.5236 -1.4565
11712TIP3    H256552   3.182   6.536   2.166 -0.3692 -0.1162 -0.2590
11713TIP3   OH256553   4.257   4.379  11.857  0.2073 -0.1211 -0.3542
11713TIP3    H156554   4.327   4.378  11.792 -0.1741 -2.0585 -0.7968
11713TIP3    H256555   4.210   4.297  11.843  0.5107 -0.9619  2.7971
11714TIP3   OH256556   3.127   5.077   5.424  0.1346 -0.3654  0.4021
11714TIP3    H156557   3.122   5.029   5.341  1.9820 -1.9454  1.1191
11714TIP3    H256558   3.183   5.152   5.404  1.2941 -1.2102  0.3749
11715TIP3   OH256559   3.599   4.632  11.534 -0.0377 -0.0367 -0.0169
11715TIP3    H156560   3.642   4.660  11.615 -1.0589  0.3913  0.3903
11715TIP3    H256561   3.656   4.563  11.500  2.0886  1.8595 -0.5688
11716TIP3   OH256562   4.743   4.641   4.436  0.1195 -0.0883  0.2119
11716TIP3    H156563   4.735   4.545   4.436 -2.1269  0.0240  0.8801
11716TIP3    H256564   4.685   4.670   4.366 -0.0146  0.8015  0.6724
11717TIP3   OH256565   4.862   2.505  12.234  0.5354  0.3773 -0.6733
11717TIP3    H156566   4.833   2.587  12.194 -1.4193  0.4772  0.7597
11717TIP3    H256567   4.854   2.441  12.163 -0.2695  0.9984 -1.1741
11718TIP3   OH256568   5.770   2.372  14.630 -0.0830  0.3545  0.8175
11718TIP3    H156569   5.703   2.304  14.640  0.6859 -0.6135 -0.2326
11718TIP3    H256570   5.779   2.411  14.717 -3.7550  2.2949  0.5031
11719TIP3   OH256571   3.656   6.457   4.996  0.4972  0.1861  0.4764
11719TIP3    H156572   3.605   6.404   4.934  3.0236  1.1802 -2.7133
11719TIP3    H256573   3.597   6.528   5.021  0.2772  1.8225 -3.7948
11720TIP3   OH256574   3.646   2.819  10.612 -0.1745 -0.7189 -0.5749
11720TIP3    H156575   3.636   2.727  10.589  0.4255 -0.9296 -0.0084
11720TIP3    H256576   3.727   2.823  10.663 -1.0174 -0.1340  0.7640
11721TIP3   OH256577   0.514   5.829  10.915 -0.2104  0.3806  0.1931
11721TIP3    H156578   0.466   5.794  10.990  2.9932 -0.5385  2.0072
11721TIP3    H256579   0.513   5.924  10.928  0.0810  0.2476  1.2913
11722TIP3   OH256580   4.937   3.163  14.734  0.3769 -0.1814 -0.5890
11722TIP3    H156581   4.928   3.163  14.829 -0.5112 -0.2367 -0.6571
11722TIP3    H256582   5.022   3.204  14.717  0.0653  0.8466  0.1943
11723TIP3   OH256583   2.176   2.557  16.403 -0.5021 -0.6332 -0.3674
11723TIP3    H156584   2.164   2.462  16.393  0.4725 -0.5587 -3.0911
11723TIP3    H256585   2.113   2.596  16.342 -1.2622  0.5485  1.1051
11724TIP3   OH256586   0.744   3.776   1.820  0.1944 -0.6035  0.9049
11724TIP3    H156587   0.686   3.814   1.886 -0.5023 -0.9839  0.5270
11724TIP3    H256588   0.693   3.705   1.781 -0.2016  0.8308 -1.3947
11725TIP3   OH256589   1.599   4.903  15.161  0.6838  1.0176  0.4472
11725TIP3    H156590   1.664   4.843  15.198  0.7214  1.3216  0.8867
11725TIP3    H256591   1.588   4.874  15.071  1.4819  0.9972  0.3463
11726TIP3   OH256592   2.949   2.876   0.305 -0.1236 -0.0891 -0.2634
11726TIP3    H156593   2.948   2.783   0.283  0.0119 -0.0561 -0.4156
11726TIP3    H256594   2.873   2.912   0.259 -0.3504 -0.1776  0.0403
11727TIP3   OH256595   6.102   1.201  16.244 -0.4557  0.3539  0.0401
11727TIP3    H156596   6.029   1.259  16.223 -0.9408 -0.8033 -1.6995
11727TIP3    H256597   6.154   1.250  16.308 -3.2689  0.7761  2.1912
11728TIP3   OH256598   6.079   3.293  15.712 -0.8214  0.1536  0.6104
11728TIP3    H156599   6.172   3.283  15.733 -0.6940  0.5680  0.2508
11728TIP3    H256600   6.069   3.386  15.692 -1.1347 -0.0550 -0.2258
11729TIP3   OH256601   3.055   6.750  15.307 -0.1930 -0.4224  0.3857
11729TIP3    H156602   3.136   6.794  15.333 -0.9460  0.6115  1.0881
11729TIP3    H256603   3.079   6.658  15.300  1.4620  0.0861 -1.2501
11730TIP3   OH256604   5.375   5.513  16.874  0.9060 -0.5922 -0.3479
11730TIP3    H156605   5.302   5.451  16.867  0.5706 -0.2418 -0.0458
11730TIP3    H256606   5.453   5.461  16.855  0.5795 -0.9795 -0.6468
11731TIP3   OH256607   2.263   1.218  16.004 -0.4343  0.0406 -0.3519
11731TIP3    H156608   2.226   1.286  16.060 -0.1235  0.9538 -1.2175
11731TIP3    H256609   2.334   1.262  15.957 -0.0156 -0.9714 -0.6985
11732TIP3   OH256610   5.236   3.770   2.889  0.2666  0.4658  0.3905
11732TIP3    H156611   5.324   3.795   2.861  0.7628 -0.6427  0.8740
11732TIP3    H256612   5.235   3.674   2.882 -1.0465  0.4834 -0.0096
11733TIP3   OH256613   1.788   1.919   3.558 -0.2853 -0.7164  0.1191
11733TIP3    H156614   1.807   1.828   3.534 -0.1184 -0.8544  0.7410
11733TIP3    H256615   1.773   1.963   3.475  3.0708 -0.5074 -0.5264
11734TIP3   OH256616   0.297   0.594   3.818  0.6588  0.5792  0.5985
11734TIP3    H156617   0.365   0.528   3.802  0.8749  0.4912  1.7562
11734TIP3    H256618   0.337   0.677   3.794  0.2642  0.2835 -1.2150
11735TIP3   OH256619   1.418   5.033   6.736 -0.0710  0.2106  0.3836
11735TIP3    H156620   1.347   5.050   6.798 -0.9022  0.0746 -0.5085
11735TIP3    H256621   1.432   5.118   6.692 -0.6232 -0.0959 -0.3969
11736TIP3   OH256622   4.975   5.029   6.361 -0.4078  0.9922 -0.1302
11736TIP3    H156623   5.033   5.009   6.288  0.2882  0.1159  0.6242
11736TIP3    H256624   5.027   5.008   6.439 -1.5010  0.8503  0.5888
11737TIP3   OH256625   0.907   6.700  15.579 -0.3833 -0.4590  0.1174
11737TIP3    H156626   0.921   6.795  15.585 -0.1033 -0.5455  1.0608
11737TIP3    H256627   0.876   6.686  15.490 -1.0989  0.6132  0.1651
11738TIP3   OH256628   3.160   2.874  12.972 -0.0698 -0.0444  0.3016
11738TIP3    H156629   3.097   2.880  13.045 -0.5507 -1.1311 -0.0056
11738TIP3    H256630   3.229   2.935  12.996 -0.4506 -0.0293  1.4485
11739TIP3   OH256631   0.699   1.591  11.286 -0.6024 -0.4238  0.8374
11739TIP3    H156632   0.702   1.559  11.196  1.4562  1.2159  0.2390
11739TIP3    H256633   0.619   1.644  11.290 -0.8184 -0.6748  0.0387
11740TIP3   OH256634   4.201   0.357   3.192 -0.0149 -0.5942  0.3085
11740TIP3    H156635   4.277   0.359   3.132 -1.2086 -0.6055 -1.2776
11740TIP3    H256636   4.165   0.269   3.180 -0.6262 -0.3849  0.5992
11741TIP3   OH256637   2.106   6.376  14.973  0.1440 -0.0928  0.3007
11741TIP3    H156638   2.093   6.285  14.947 -0.9800  0.5668 -1.5735
11741TIP3    H256639   2.201   6.383  14.989  0.0313 -1.9561  2.1372
11742TIP3   OH256640   5.094   6.193   4.661  0.3419 -0.4942  0.1044
11742TIP3    H156641   5.146   6.269   4.686  1.3092 -0.8532 -0.7438
11742TIP3    H256642   5.056   6.162   4.743  2.0862 -0.6731  0.8912
11743TIP3   OH256643   3.767   3.126   0.096  0.2527 -0.7113 -0.7016
11743TIP3    H156644   3.813   3.051   0.058  1.9021  0.1258 -0.4269
11743TIP3    H256645   3.809   3.141   0.180 -1.5906 -0.8667  0.2966
11744TIP3   OH256646   6.389   2.171   5.133 -0.3532 -0.2280  0.0277
11744TIP3    H156647   6.458   2.236   5.147 -0.1071 -0.7509  1.3237
11744TIP3    H256648   6.402   2.106   5.202  0.5646 -2.7269 -2.3064
11745TIP3   OH256649   5.609   4.134   4.282  0.3434 -0.2915  0.2399
11745TIP3    H156650   5.549   4.197   4.322 -0.6878  0.1769 -1.8892
11745TIP3    H256651   5.697   4.165   4.305 -0.1846  0.7117  0.9407
11746TIP3   OH256652   4.763   2.890  15.209 -0.1068 -0.1082 -0.1388
11746TIP3    H156653   4.811   2.880  15.127 -0.1778 -2.3940  0.0202
11746TIP3    H256654   4.800   2.823  15.267 -0.6457  0.8801  1.4157
11747TIP3   OH256655   4.347   1.230  11.346 -0.8392  0.3138  0.8510
11747TIP3    H156656   4.371   1.322  11.333 -0.2920  0.1676  0.8218
11747TIP3    H256657   4.269   1.234  11.402  0.1868  0.7528  2.3399
11748TIP3   OH256658   5.337   5.121  10.510 -0.0243 -0.4698  0.3364
11748TIP3    H156659   5.426   5.151  10.488 -0.2969 -0.1325 -0.3205
11748TIP3    H256660   5.329   5.036  10.467 -0.2937 -0.1491 -0.2464
11749TIP3   OH256661   6.352   1.198   3.731 -0.3988 -0.3402 -0.3391
11749TIP3    H156662   6.283   1.248   3.688  0.5544  1.4170  0.0677
11749TIP3    H256663   6.355   1.233   3.820  1.6875  0.4047 -0.6466
11750TIP3   OH256664   6.673   2.968  14.139 -0.0204  0.0858  0.2262
11750TIP3    H156665   6.718   2.888  14.166 -2.3269 -0.7545  1.9595
11750TIP3    H256666   6.619   2.941  14.064  1.6784  0.9111 -1.3790
11751TIP3   OH256667   3.958   5.147  15.596 -0.5348 -0.0805 -0.3681
11751TIP3    H156668   3.934   5.231  15.636 -1.1779 -0.5881  0.3332
11751TIP3    H256669   4.006   5.101  15.665 -0.8400 -0.5911 -0.4957
11752TIP3   OH256670   2.014   2.323  14.641 -0.2003 -0.2974 -0.0169
11752TIP3    H156671   2.055   2.260  14.700 -0.3463 -0.1976  0.1918
11752TIP3    H256672   2.078   2.337  14.572  0.3679  0.3236  0.6267
11753TIP3   OH256673   3.766   1.485   2.846 -0.0676 -0.0514 -0.5087
11753TIP3    H156674   3.770   1.431   2.925 -1.4394 -1.9598 -1.6603
11753TIP3    H256675   3.711   1.435   2.785  2.2564  0.4990 -3.2986
11754TIP3   OH256676   4.322   6.679  14.711 -0.1729 -0.0194  0.3303
11754TIP3    H156677   4.405   6.670  14.759  1.2102  1.9093 -1.4770
11754TIP3    H256678   4.279   6.754  14.752 -1.4250 -1.4238  1.7005
11755TIP3   OH256679   0.770   2.615  13.287  0.4590 -0.0210 -0.2943
11755TIP3    H156680   0.771   2.635  13.380 -1.5662  0.6924 -0.3722
11755TIP3    H256681   0.770   2.519  13.282  0.9731 -0.0628  0.4020
11756TIP3   OH256682   1.834   6.336  15.977 -0.6962  0.0298 -0.0455
11756TIP3    H156683   1.791   6.270  15.923 -0.4177  1.0898 -1.6346
11756TIP3    H256684   1.794   6.327  16.064 -3.7438  0.5830 -1.2717
11757TIP3   OH256685   6.652   5.977   5.829 -0.3586  0.6019 -0.1174
11757TIP3    H156686   6.610   5.931   5.756  1.3501 -0.1263 -0.7083
11757TIP3    H256687   6.673   5.907   5.891 -1.1297  1.1223  0.7428
11758TIP3   OH256688   2.112   1.830  14.137 -0.0922 -0.3445  0.0423
11758TIP3    H156689   2.022   1.808  14.113 -0.7559  0.5555  1.4932
11758TIP3    H256690   2.123   1.793  14.225  1.0667 -0.7126 -0.2473
11759TIP3   OH256691   3.787   0.659  16.730  0.5924 -0.0866  0.8682
11759TIP3    H156692   3.853   0.590  16.726  0.8839  0.2287  0.2605
11759TIP3    H256693   3.748   0.661  16.643  1.2928  1.2037  0.5613
11760TIP3   OH256694   1.859   2.806  15.495  0.2468 -0.0426  0.5055
11760TIP3    H156695   1.793   2.845  15.552 -0.3344 -0.7280  0.3147
11760TIP3    H256696   1.889   2.728  15.542 -2.5423 -2.5066 -1.3734
11761TIP3   OH256697   3.858   1.961  12.968  0.1714  0.5190 -0.0919
11761TIP3    H156698   3.818   1.937  13.052  0.1946 -2.9909 -0.9576
11761TIP3    H256699   3.951   1.943  12.980  0.4131  1.4882 -0.4256
11762TIP3   OH256700   1.023   0.635   4.350 -0.2728 -0.0823  0.1835
11762TIP3    H156701   1.097   0.673   4.397  0.8661 -2.1888  0.2122
11762TIP3    H256702   1.008   0.550   4.393 -2.4103  0.0775 -0.1345
11763TIP3   OH256703   1.838   2.334  13.792  0.0050 -0.0638  0.3462
11763TIP3    H156704   1.804   2.397  13.855 -1.7556 -0.7137  0.0932
11763TIP3    H256705   1.769   2.324  13.727  1.2251 -0.4570 -0.9572
11764TIP3   OH256706   0.790   1.071  16.434  0.0725  0.1223  0.0867
11764TIP3    H156707   0.794   1.164  16.456  0.3437  0.6373 -1.9975
11764TIP3    H256708   0.875   1.051  16.394  1.0619 -1.7043  2.7712
11765TIP3   OH256709   4.402   2.660   2.611 -0.1426 -0.2530 -0.0376
11765TIP3    H156710   4.349   2.596   2.564 -1.9164  2.0838 -1.4582
11765TIP3    H256711   4.481   2.612   2.637 -1.9016 -3.2863  0.1292
11766TIP3   OH256712   1.502   2.332  15.682 -0.0587  0.6100 -0.3757
11766TIP3    H156713   1.412   2.364  15.675  0.6438  2.4231 -1.6321
11766TIP3    H256714   1.505   2.255  15.624 -0.3933  1.5503 -1.6768
11767TIP3   OH256715   0.002   3.602   2.931 -0.2505 -0.1830 -0.4856
11767TIP3    H156716  -0.014   3.657   3.007  1.0779 -0.1310 -0.2110
11767TIP3    H256717  -0.058   3.634   2.864 -0.8692  0.2928  0.2946
11768TIP3   OH256718   5.928   6.442   2.567  0.8170  0.2697  0.2163
11768TIP3    H156719   5.924   6.514   2.504 -0.0574  0.1162  0.0801
11768TIP3    H256720   5.982   6.376   2.524  2.2072  1.0898  0.6235
11769TIP3   OH256721   3.894   6.740   2.885 -0.2583 -0.1467 -0.1329
11769TIP3    H156722   3.809   6.783   2.882 -1.0941 -1.7612 -2.0136
11769TIP3    H256723   3.894   6.690   2.966 -0.3612  1.1821  0.7231
11770TIP3   OH256724   5.220   5.338  14.044  0.2491  0.0748 -0.4162
11770TIP3    H156725   5.135   5.302  14.022  0.5069 -0.5340 -0.4306
11770TIP3    H256726   5.202   5.402  14.114 -0.5470  1.8412 -2.1304
11771TIP3   OH256727   5.204   6.073  14.625 -0.2214 -0.1678 -0.2669
11771TIP3    H156728   5.279   6.026  14.589 -0.8517 -1.5251  0.1399
11771TIP3    H256729   5.129   6.043  14.574 -0.6977  0.0896  0.2677
11772TIP3   OH256730   5.943   4.272  13.133  0.2104  0.6531  0.2182
11772TIP3    H156731   5.878   4.277  13.203 -0.3200  0.3690 -0.2454
11772TIP3    H256732   5.894   4.239  13.057  0.5443  1.8893 -0.5606
11773TIP3   OH256733   6.441   1.933   1.559  0.1862  0.0140  0.0163
11773TIP3    H156734   6.408   1.972   1.640  2.3599  0.7238  0.6126
11773TIP3    H256735   6.473   1.846   1.585 -0.1936 -0.2359 -0.3356
11774TIP3   OH256736   4.666   6.314  12.867  0.2552  0.4211 -0.0795
11774TIP3    H156737   4.667   6.219  12.877 -0.9807  0.3010 -0.8742
11774TIP3    H256738   4.710   6.347  12.946  1.8425 -0.8285 -0.3905
11775TIP3   OH256739   3.198   5.963  14.018 -0.4841  0.0707  0.4245
11775TIP3    H156740   3.182   6.029  14.085  0.5487 -0.0409  0.7944
11775TIP3    H256741   3.280   5.921  14.044  0.0395  0.1442 -1.0108
11776TIP3   OH256742   4.251   0.617  16.352 -0.0704 -0.2316  0.4216
11776TIP3    H156743   4.311   0.681  16.391 -0.8044  1.3740 -0.9621
11776TIP3    H256744   4.292   0.532  16.369  0.4544  0.4820  3.1868
11777TIP3   OH256745   6.029   3.171   1.414  0.6596  0.0838 -0.2847
11777TIP3    H156746   6.062   3.176   1.324  1.5755 -1.4530 -0.0651
11777TIP3    H256747   6.106   3.185   1.468  0.6925 -1.8659  0.2428
11778TIP3   OH256748   4.198   6.183   2.562  0.1418  0.5065 -0.0981
11778TIP3    H156749   4.208   6.218   2.651  0.8647  2.0004 -0.7321
11778TIP3    H256750   4.265   6.228   2.511 -0.0730 -0.5511 -1.3539
11779TIP3   OH256751   4.183   3.289   1.150 -0.2831  0.0294  0.1126
11779TIP3    H156752   4.192   3.201   1.188 -3.4439 -0.7630 -0.7009
11779TIP3    H256753   4.096   3.289   1.110  0.1445  3.1378 -1.0630
11780TIP3   OH256754   5.794   5.456  17.089  0.5430 -0.0419 -0.8226
11780TIP3    H156755   5.764   5.405  17.013 -2.1594 -4.4198  2.6829
11780TIP3    H256756   5.716   5.501  17.121  0.8144 -0.8142  1.0340
11781TIP3   OH256757   1.563   2.766  14.723 -0.1426 -0.3695 -0.8409
11781TIP3    H156758   1.563   2.748  14.629 -1.2296  0.7184 -1.0752
11781TIP3    H256759   1.472   2.791  14.743 -0.0061 -0.8771  0.5608
11782TIP3   OH256760   1.413   5.779  14.991  0.3338  0.6278  0.0719
11782TIP3    H156761   1.362   5.822  15.060  1.1659 -2.4312  2.8175
11782TIP3    H256762   1.403   5.686  15.007  3.1600 -0.1957 -2.0606
11783TIP3   OH256763   1.844   0.232   3.809 -0.1972 -0.0481 -0.3218
11783TIP3    H156764   1.836   0.142   3.776 -0.8454  0.4956 -1.6833
11783TIP3    H256765   1.815   0.287   3.737 -1.6889  1.1881  1.1673
11784TIP3   OH256766   0.610   3.908   3.017 -0.9244  0.4373 -0.1834
11784TIP3    H156767   0.693   3.954   3.021 -0.0824 -1.1055  1.3608
11784TIP3    H256768   0.604   3.878   2.926  0.7701 -0.3464 -0.0711
11785TIP3   OH256769   3.900   1.433   5.344  0.3139 -0.3483  0.3426
11785TIP3    H156770   3.928   1.358   5.292  0.1744  0.3567 -0.7902
11785TIP3    H256771   3.811   1.411   5.372  0.4069 -0.7532  0.3280
11786TIP3   OH256772   2.914   2.648  13.920  0.0492 -0.1135 -0.7083
11786TIP3    H156773   2.901   2.567  13.871  2.3377  0.1275 -1.8655
11786TIP3    H256774   2.933   2.619  14.009 -0.0581 -0.7937 -0.9057
11787TIP3   OH256775   3.492   5.108  14.969 -0.5772 -0.3577  0.1089
11787TIP3    H156776   3.447   5.071  14.893 -2.7989  0.7602  0.8023
11787TIP3    H256777   3.434   5.090  15.043  0.3155  0.7913  1.1255
11788TIP3   OH256778   2.363   6.245  16.217  0.0224 -0.1808  0.3905
11788TIP3    H156779   2.455   6.269  16.227 -0.5635  2.7128 -0.0801
11788TIP3    H256780   2.326   6.256  16.305 -0.0250 -0.4857  0.4066
11789TIP3   OH256781   4.001   1.093   2.255  0.4030  0.7361  0.4565
11789TIP3    H156782   3.979   1.030   2.187  2.5883 -0.4076  0.7068
11789TIP3    H256783   3.978   1.178   2.218 -2.2682 -0.1016 -0.0370
11790TIP3   OH256784   6.737   2.696  10.767 -0.1737  0.5932 -0.2347
11790TIP3    H156785   6.677   2.771  10.768 -0.0490  0.6884  0.2519
11790TIP3    H256786   6.680   2.620  10.761 -0.3289  0.7008 -0.1358
11791TIP3   OH256787   3.131   2.854   3.061 -0.4575 -0.4717  0.2321
11791TIP3    H156788   3.198   2.862   3.129  1.6585 -0.4178 -1.7039
11791TIP3    H256789   3.066   2.794   3.097  1.4880 -1.8608  1.6275
11792TIP3   OH256790   0.611   1.057  11.843  0.4824 -0.4216  0.3237
11792TIP3    H156791   0.601   1.040  11.937 -0.5458 -0.0356  0.3016
11792TIP3    H256792   0.560   1.137  11.828  1.8748  0.3830 -0.2980
11793TIP3   OH256793   0.373   6.737  11.245  0.2836  0.3720  0.3800
11793TIP3    H156794   0.441   6.741  11.177 -0.2424 -2.1530 -0.3906
11793TIP3    H256795   0.357   6.644  11.258 -0.1593  0.7793  3.5264
11794TIP3   OH256796   3.568   6.132   3.986 -0.3244  0.1167  0.2918
11794TIP3    H156797   3.622   6.210   3.973 -1.3813  0.9593  0.7793
11794TIP3    H256798   3.480   6.158   3.957 -0.9550 -0.4985  1.5471
11795TIP3   OH256799   1.817   5.072  16.475  0.3267 -0.6832  0.0970
11795TIP3    H156800   1.794   4.996  16.421  0.7888 -0.7411 -0.0207
11795TIP3    H256801   1.809   5.147  16.417  0.0147 -0.6540  0.1738
11796TIP3   OH256802   4.619   5.054  15.965  0.0820  0.3440 -0.0346
11796TIP3    H156803   4.646   5.033  15.875  0.6181  0.1515  0.1656
11796TIP3    H256804   4.536   5.100  15.955 -0.4719 -0.7487 -0.5606
11797TIP3   OH256805   5.375   6.143   4.752 -0.0988  0.1506 -0.5167
11797TIP3    H156806   5.281   6.132   4.736 -0.0613 -1.5555  0.2787
11797TIP3    H256807   5.380   6.180   4.840 -0.0133  0.4773 -0.6551
11798TIP3   OH256808   4.656   6.683   0.474  0.6615  0.2497  0.3698
11798TIP3    H156809   4.626   6.616   0.411 -1.5906 -0.5189  2.1241
11798TIP3    H256810   4.588   6.750   0.472 -1.0808 -1.1763  3.9623
11799TIP3   OH256811   5.353   3.508   4.556  0.4957  0.1582  0.4164
11799TIP3    H156812   5.351   3.560   4.475 -0.7446  0.5072  0.6564
11799TIP3    H256813   5.364   3.573   4.626  1.6437 -0.1504  0.5412
11800TIP3   OH256814   1.000   2.874   4.343 -0.1162 -0.3680 -0.1436
11800TIP3    H156815   1.048   2.874   4.426  0.5931 -1.0833 -0.5339
11800TIP3    H256816   0.952   2.956   4.343  2.1685  1.0757 -0.2998
11801TIP3   OH256817   3.887   0.074  12.694 -0.0508  0.2133  0.1565
11801TIP3    H156818   3.821   0.119  12.642 -0.3028 -0.7882 -0.4111
11801TIP3    H256819   3.852  -0.014  12.708  1.6241 -0.7257 -1.1374
11802TIP3   OH256820   2.684   4.533  15.697 -0.3170  0.2266  0.4448
11802TIP3    H156821   2.715   4.549  15.786  1.4720 -0.0653 -0.0864
11802TIP3    H256822   2.645   4.616  15.669  1.5125  1.1809  0.5904
11803TIP3   OH256823   1.000   4.158   0.253 -0.1730  0.5464 -0.1783
11803TIP3    H156824   1.018   4.243   0.215  0.1494  0.8179  0.5660
11803TIP3    H256825   0.932   4.120   0.197  2.4881 -0.4555 -3.0266
11804TIP3   OH256826   2.367   4.709  11.091  0.6210  0.3320  0.0306
11804TIP3    H156827   2.369   4.614  11.085  0.7886  0.3610 -0.4062
11804TIP3    H256828   2.430   4.730  11.160 -1.5680 -0.0214  2.3033
11805TIP3   OH256829   1.827   3.867  14.453  0.1076  0.3340 -0.3410
11805TIP3    H156830   1.907   3.915  14.431  0.6820 -1.2007 -1.9151
11805TIP3    H256831   1.858   3.785  14.490 -0.6913 -0.4207 -1.2729
11806TIP3   OH256832   5.187   2.935  14.263  0.0589 -0.1647 -0.2519
11806TIP3    H156833   5.148   2.977  14.186 -0.6063 -1.3671 -0.5971
11806TIP3    H256834   5.180   3.001  14.332 -3.4415 -0.5390 -0.0560
11807TIP3   OH256835   0.063   1.426  13.810  0.1083 -0.2650 -0.1115
11807TIP3    H156836   0.103   1.460  13.730  2.0623  1.6862  1.5461
11807TIP3    H256837  -0.025   1.464  13.812  0.5482  0.8174 -0.6579
11808TIP3   OH256838   3.567   3.618   5.223  0.6117 -0.0875  0.0830
11808TIP3    H156839   3.476   3.633   5.250  0.0865 -4.1494  1.1914
11808TIP3    H256840   3.617   3.685   5.270 -1.6766  2.1946 -0.4599
11809TIP3   OH256841   3.028   4.713   3.457  0.1112 -0.1532 -0.4984
11809TIP3    H156842   2.947   4.740   3.414 -0.1447  0.0825  0.1178
11809TIP3    H256843   3.080   4.794   3.462 -1.1730  0.6173  2.4974
11810TIP3   OH256844   2.166   3.472  13.155  0.2951 -0.1953 -0.4401
11810TIP3    H156845   2.216   3.394  13.129 -1.1365 -0.7968 -1.5011
11810TIP3    H256846   2.213   3.545  13.116  1.7091 -0.4901  0.6412
11811TIP3   OH256847   6.399   0.875   0.517 -0.6637 -0.4485 -0.4005
11811TIP3    H156848   6.440   0.826   0.588  0.2960 -0.5223 -0.9974
11811TIP3    H256849   6.434   0.964   0.526 -1.9384  0.0167  0.3117
11812TIP3   OH256850   0.083   1.334   4.293 -0.1882 -0.0412  0.4168
11812TIP3    H156851   0.171   1.296   4.295 -0.1610  0.0414  1.0878
11812TIP3    H256852   0.034   1.286   4.360 -0.5500  0.1558  0.2976
11813TIP3   OH256853   3.134   0.756  14.184 -0.0095 -0.3578  0.1696
11813TIP3    H156854   3.175   0.791  14.263  0.6777  1.9180 -1.1082
11813TIP3    H256855   3.041   0.752  14.206  0.3454 -1.3196  1.6135
11814TIP3   OH256856   1.786   1.035  10.680 -0.4135  0.6643  0.6017
11814TIP3    H156857   1.728   0.997  10.746  0.1016  0.0939  0.7320
11814TIP3    H256858   1.750   1.004  10.596 -1.1731  1.5352  0.5921
11815TIP3   OH256859   1.200   5.332  16.721 -0.2258  0.1696  0.4821
11815TIP3    H156860   1.123   5.303  16.769 -0.4772  1.6418  1.0344
11815TIP3    H256861   1.177   5.420  16.690  1.2229  0.6545  0.6951
11816TIP3   OH256862   1.341   6.426  15.486  0.4008 -0.1346 -0.5736
11816TIP3    H156863   1.358   6.340  15.448  2.1872 -0.5290  0.9513
11816TIP3    H256864   1.311   6.407  15.575 -0.6644  0.8195 -0.7037
11817TIP3   OH256865   3.072   0.497   1.545  0.0407 -0.5050 -0.0134
11817TIP3    H156866   3.019   0.546   1.482 -0.8793 -1.2063  0.1905
11817TIP3    H256867   3.162   0.521   1.524 -0.3544  0.8894 -0.2229
11818TIP3   OH256868   6.157   1.655  11.191  0.4688  0.0083  0.1452
11818TIP3    H156869   6.188   1.745  11.176  0.4425 -0.3642 -2.8790
11818TIP3    H256870   6.237   1.603  11.194  0.4421 -0.2961 -2.3063
11819TIP3   OH256871   5.336   1.169  13.848  0.4316 -0.2025  0.3037
11819TIP3    H156872   5.247   1.198  13.827  0.5991  1.5602  1.7769
11819TIP3    H256873   5.338   1.077  13.824 -1.1468  0.2180 -1.6851
11820TIP3   OH256874   5.841   1.032   4.933  0.5629 -0.9022  0.5280
11820TIP3    H156875   5.802   0.947   4.956  0.9075 -1.3004 -0.3062
11820TIP3    H256876   5.848   1.030   4.837  0.3789  0.1665  0.4777
11821TIP3   OH256877   1.242   2.322  16.684  0.2131 -0.6202  0.2127
11821TIP3    H156878   1.266   2.353  16.771  0.7077  1.2324 -0.5414
11821TIP3    H256879   1.245   2.400  16.628 -0.6579 -1.6462 -1.3603
11822TIP3   OH256880   0.270   4.107   2.153  0.0636 -0.5104 -0.0462
11822TIP3    H156881   0.353   4.154   2.164 -1.0802  1.5533  0.3391
11822TIP3    H256882   0.280   4.027   2.204  1.9878 -0.5659 -0.4464
11823TIP3   OH256883   2.969   4.727  14.894 -0.3558  0.1067  0.0357
11823TIP3    H156884   2.917   4.807  14.893 -0.8940 -0.1099  2.5147
11823TIP3    H256885   2.908   4.658  14.921  0.5640 -0.7297  0.0516
11824TIP3   OH256886   6.158   3.177   0.780  0.1095  0.6653 -0.1354
11824TIP3    H156887   6.190   3.120   0.850  0.7974 -0.3451 -1.2376
11824TIP3    H256888   6.149   3.263   0.822  0.3297  0.0557  1.2309
11825TIP3   OH256889   5.037   3.942   5.325  0.3376  0.6282  0.1835
11825TIP3    H156890   4.993   3.934   5.240 -2.1902 -0.5143  1.5202
11825TIP3    H256891   5.081   3.858   5.337  1.8892  1.2805 -0.5262
11826TIP3   OH256892   0.214   3.505  11.673 -0.5400  0.5845 -0.8144
11826TIP3    H156893   0.126   3.468  11.665 -1.4184  2.3003  0.3364
11826TIP3    H256894   0.218   3.573  11.606  0.0862  0.2125 -1.1644
11827TIP3   OH256895   4.026   0.599  14.815 -0.3270 -0.3366  0.2172
11827TIP3    H156896   4.086   0.552  14.757  0.6353  0.0287  0.8891
11827TIP3    H256897   3.946   0.546  14.815 -1.3635  0.9301 -3.4269
11828TIP3   OH256898   3.936   6.510  12.215 -0.0372 -0.0363 -0.1317
11828TIP3    H156899   3.923   6.415  12.210 -0.9659  0.1597 -2.6418
11828TIP3    H256900   4.030   6.522  12.198 -0.2630 -0.4240 -1.7787
11829TIP3   OH256901   0.720   6.309   0.579  0.6605  0.2474  0.3790
11829TIP3    H156902   0.722   6.404   0.562 -0.8641 -0.0102 -1.6838
11829TIP3    H256903   0.640   6.279   0.537  2.8645 -2.5256 -2.3519
11830TIP3   OH256904   2.678   2.395   1.383  1.0011  0.0469  0.6423
11830TIP3    H156905   2.583   2.387   1.388  0.9915  0.4093  1.0528
11830TIP3    H256906   2.706   2.314   1.340  0.3308  0.8352 -1.4272
11831TIP3   OH256907   3.655   1.417  13.576 -0.0651  0.1184 -1.0773
11831TIP3    H156908   3.658   1.421  13.671  0.5833 -1.1637 -1.0237
11831TIP3    H256909   3.652   1.509  13.548 -0.8619  0.4929  0.1780
11832TIP3   OH256910   5.824   5.684   3.805  0.1247  0.0488 -0.0600
11832TIP3    H156911   5.738   5.725   3.815  0.5387  1.0989 -0.6009
11832TIP3    H256912   5.885   5.758   3.801  0.9483 -0.6482 -0.6540
11833TIP3   OH256913   2.963   2.158   1.200 -0.0668 -0.6805 -0.2648
11833TIP3    H156914   2.951   2.185   1.109  1.5242 -0.9429 -0.5699
11833TIP3    H256915   2.968   2.062   1.197 -1.3133 -0.7875  0.2823
11834TIP3   OH256916   2.075   0.129  15.605 -0.1842  0.3594  0.2650
11834TIP3    H156917   2.077   0.085  15.521  1.4812  0.4114  0.2419
11834TIP3    H256918   2.090   0.060  15.670  0.4379  0.5740  0.3640
11835TIP3   OH256919   4.650   3.598  14.096 -0.4556  0.4561  0.2591
11835TIP3    H156920   4.555   3.602  14.093 -0.5205 -1.0491 -1.4839
11835TIP3    H256921   4.677   3.588  14.004  1.2907 -0.3580  0.8039
11836TIP3   OH256922   6.028   4.337   3.146  0.1635 -0.0742  0.7391
11836TIP3    H156923   5.997   4.264   3.199 -0.1546 -0.0455  0.5937
11836TIP3    H256924   6.034   4.302   3.057 -2.1869  0.6571  0.2149
11837TIP3   OH256925   6.427   2.075  14.047 -0.4465 -0.6600  0.2819
11837TIP3    H156926   6.519   2.094  14.027 -1.2578  1.4171 -2.1138
11837TIP3    H256927   6.408   1.994  14.000 -0.2537 -0.1772 -0.6394
11838TIP3   OH256928   0.589   1.436   5.364  0.3958 -0.3874  0.0384
11838TIP3    H156929   0.662   1.449   5.424  1.1629  1.1384 -1.1401
11838TIP3    H256930   0.583   1.342   5.352  1.7279 -0.5740  0.7043
11839TIP3   OH256931   3.625   3.727  17.030  0.4199  0.1019  0.1522
11839TIP3    H156932   3.606   3.640  16.995 -0.7738  0.3691  0.1029
11839TIP3    H256933   3.547   3.751  17.080  0.7171  1.1638  0.1320
11840TIP3   OH256934   5.887   3.597  14.948  0.3832  0.0415  0.3233
11840TIP3    H156935   5.799   3.631  14.935  1.1359  1.1203 -2.7192
11840TIP3    H256936   5.923   3.650  15.019 -1.1115  0.1101  1.0781
11841TIP3   OH256937   1.049   1.062  16.770  0.7664  0.0296  0.2201
11841TIP3    H156938   1.072   1.096  16.683  0.3740  0.3069  0.2235
11841TIP3    H256939   1.104   1.111  16.830  0.9246 -0.0508  0.1434
11842TIP3   OH256940   3.837   4.305  13.846 -0.0981 -0.3119  1.0062
11842TIP3    H156941   3.830   4.219  13.885 -0.6272 -1.7059 -1.9154
11842TIP3    H256942   3.812   4.293  13.754  1.9088  2.4986 -0.0690
11843TIP3   OH256943   3.783   6.656   0.815 -0.1161  0.5201 -0.3953
11843TIP3    H156944   3.714   6.623   0.758 -0.6773 -0.5964  0.8686
11843TIP3    H256945   3.744   6.655   0.903  1.0833  1.0828  0.1690
11844TIP3   OH256946   6.775   3.040   0.882  0.2694 -0.1577  0.6362
11844TIP3    H156947   6.697   3.062   0.832  0.8421 -1.3082 -0.8262
11844TIP3    H256948   6.768   3.092   0.962 -1.5557  0.3868  0.1541
11845TIP3   OH256949   4.673   3.428  15.562 -0.0132  0.3558  0.4286
11845TIP3    H156950   4.662   3.414  15.468 -0.4241 -0.0218  0.5269
11845TIP3    H256951   4.596   3.478  15.588  0.1631  0.5712  0.5442
11846TIP3   OH256952   5.857   5.581   0.363 -0.0250  0.3712 -0.1044
11846TIP3    H156953   5.914   5.550   0.432 -1.7960  2.1809  2.3466
11846TIP3    H256954   5.903   5.656   0.325 -0.3742  1.3254  1.3080
11847TIP3   OH256955   6.262   5.334   1.940 -0.3812  0.2239  0.6405
11847TIP3    H156956   6.189   5.279   1.913  1.2205 -1.3483 -0.7534
11847TIP3    H256957   6.292   5.376   1.860  0.2828  0.8078  1.1793
11848TIP3   OH256958   3.626   2.958   1.436  0.4270  0.3409  0.1966
11848TIP3    H156959   3.710   2.987   1.400  1.0481 -1.1791  0.3343
11848TIP3    H256960   3.640   2.866   1.457 -1.5420 -0.1926 -0.5864
11849TIP3   OH256961   1.871   0.886  16.851 -0.5316  0.6776  0.3063
11849TIP3    H156962   1.867   0.957  16.915  1.0749  0.1100  1.1011
11849TIP3    H256963   1.813   0.818  16.887  0.8448  0.1037  1.5541
11850TIP3   OH256964   6.241   6.336   5.454 -0.1033 -0.8044 -0.4853
11850TIP3    H156965   6.262   6.429   5.445  1.2948 -1.0026  0.3630
11850TIP3    H256966   6.167   6.334   5.515 -2.0566 -0.1404 -2.6939
11851TIP3   OH256967   0.806   4.574  13.502  0.0391  0.0518  0.0184
11851TIP3    H156968   0.746   4.558  13.429 -0.5672  0.3188  0.4531
11851TIP3    H256969   0.756   4.551  13.580  0.4385  0.4519  0.3999
11852TIP3   OH256970   0.267   3.250  15.602 -0.6565 -0.4949 -0.8475
11852TIP3    H156971   0.344   3.195  15.589  0.9631  1.4008  0.2769
11852TIP3    H256972   0.215   3.203  15.669  1.2026 -0.2247  0.8767
11853TIP3   OH256973   4.160   2.614   1.644 -0.1827 -0.1761 -0.0818
11853TIP3    H156974   4.135   2.531   1.683 -0.0287  0.6657  1.9161
11853TIP3    H256975   4.256   2.615   1.649 -0.0299 -0.7374 -2.0398
11854TIP3   OH256976   1.034   0.503  15.708 -0.1145 -0.3290 -0.6902
11854TIP3    H156977   0.945   0.508  15.742  0.4533 -1.2399  1.0895
11854TIP3    H256978   1.078   0.579  15.746  0.3639 -1.0104  0.1719
11855TIP3   OH256979   5.613   5.679   3.202 -0.1145  0.3918  0.1257
11855TIP3    H156980   5.648   5.716   3.121 -1.9716  1.6433 -0.1712
11855TIP3    H256981   5.591   5.589   3.179  1.7052 -0.0596  0.0003
11856TIP3   OH256982   0.768   4.526   4.320 -0.1083 -0.3078 -0.0880
11856TIP3    H156983   0.773   4.470   4.242  0.6092  1.3745 -1.3213
11856TIP3    H256984   0.853   4.515   4.362  0.2116  0.1744 -0.5880
11857TIP3   OH256985   4.682   2.446  12.448 -0.6504  0.5006 -0.1268
11857TIP3    H156986   4.761   2.464  12.398 -1.3144 -0.2454 -1.5025
11857TIP3    H256987   4.701   2.366  12.496 -0.3924  0.6213 -0.0255
11858TIP3   OH256988   1.893   1.744  11.110 -0.3103  0.0921 -0.3880
11858TIP3    H156989   1.896   1.814  11.176  0.5943  0.2468 -0.5890
11858TIP3    H256990   1.807   1.754  11.069 -1.2247 -0.4677  1.2499
11859TIP3   OH256991   0.770   5.878  15.414 -0.5989 -0.7366 -0.3817
11859TIP3    H156992   0.852   5.830  15.426 -0.2230 -0.0520 -0.1472
11859TIP3    H256993   0.703   5.810  15.415 -0.2073 -1.1523  1.3257
11860TIP3   OH256994   4.815   0.524   6.071  0.4219 -0.2339 -0.2381
11860TIP3    H156995   4.851   0.438   6.094 -1.6097 -0.6368  1.7456
11860TIP3    H256996   4.858   0.584   6.132  0.9777  0.0002 -0.8492
11861TIP3   OH256997   4.583   4.640  11.415  0.3995  0.4734  0.1103
11861TIP3    H156998   4.523   4.566  11.405 -0.8924  1.5970 -0.8574
11861TIP3    H256999   4.532   4.717  11.387  2.4373  1.4216 -1.3136
11862TIP3   OH257000   4.198   5.296   4.412  0.5777 -0.5769 -0.3326
11862TIP3    H157001   4.153   5.286   4.328  1.6132 -1.1971 -0.8390
11862TIP3    H257002   4.291   5.295   4.389  0.9899 -3.2056  1.0407
11863TIP3   OH257003   3.157   4.952   1.800  0.0315 -0.5581 -0.4245
11863TIP3    H157004   3.103   4.884   1.760 -2.1830  1.4592 -1.1768
11863TIP3    H257005   3.156   5.024   1.736 -0.9916  1.6234  1.8554
11864TIP3   OH257006   5.338   3.293   3.461 -0.4336 -0.1592  0.2932
11864TIP3    H157007   5.408   3.257   3.515 -2.2885 -1.7584  1.7937
11864TIP3    H257008   5.362   3.271   3.371  0.9774 -0.6246  0.7689
11865TIP3   OH257009   0.839   2.118   2.025  0.2227 -0.3227 -0.3114
11865TIP3    H157010   0.800   2.110   1.937 -3.0685 -0.3250  0.9916
11865TIP3    H257011   0.827   2.031   2.064  2.5988 -0.6261 -0.1368
11866TIP3   OH257012   6.428   2.110  11.502  1.0996  0.5834 -0.1633
11866TIP3    H157013   6.463   2.159  11.577 -1.8592  1.2613  0.8876
11866TIP3    H257014   6.372   2.173  11.457 -0.7880 -1.0641 -0.2540
11867TIP3   OH257015   4.891   1.325  12.582  0.4868  0.3353 -0.1750
11867TIP3    H157016   4.910   1.343  12.490 -2.6378 -0.3061 -1.0520
11867TIP3    H257017   4.896   1.230  12.590  1.7907  0.4421  0.6487
11868TIP3   OH257018   0.411   6.713  13.035 -0.8062  0.0376 -0.3354
11868TIP3    H157019   0.374   6.753  13.113  1.0407 -1.5858  1.4771
11868TIP3    H257020   0.463   6.782  12.994  1.0727  0.0326  1.8783
11869TIP3   OH257021   6.382   6.115   4.203  0.7437 -0.3031 -0.2568
11869TIP3    H157022   6.397   6.110   4.298  1.1375 -1.6852 -0.3767
11869TIP3    H257023   6.452   6.062   4.165  2.5730  2.7475 -1.5588
11870TIP3   OH257024   2.515   1.381   1.736  1.0031  0.0011  0.8444
11870TIP3    H157025   2.476   1.329   1.806 -1.5596  1.0676  0.3435
11870TIP3    H257026   2.495   1.332   1.656  0.7633  0.5093  0.5856
11871TIP3   OH257027   0.996   1.343   4.889 -0.3650 -0.2605 -0.5276
11871TIP3    H157028   0.963   1.284   4.957 -0.5445  1.6042  1.0876
11871TIP3    H257029   1.091   1.334   4.894 -0.3855 -0.2903 -0.1534
11872TIP3   OH257030   4.071   3.950   2.962 -0.3430 -0.2437 -0.1297
11872TIP3    H157031   4.051   3.889   3.032  0.9438 -0.6051 -0.0496
11872TIP3    H257032   4.162   3.931   2.938 -0.1756  1.0731 -0.6759
11873TIP3   OH257033   4.406   1.342  13.838 -0.2105  0.0223 -0.1349
11873TIP3    H157034   4.349   1.397  13.891 -1.1865 -2.2323  1.3010
11873TIP3    H257035   4.373   1.253  13.851  2.0543 -1.0924 -1.3375
11874TIP3   OH257036   3.081   1.748  11.251 -0.1881  0.2100 -0.7556
11874TIP3    H157037   3.017   1.737  11.180  0.1115 -0.9957 -0.8553
11874TIP3    H257038   3.113   1.837  11.240  1.1482 -0.4912 -3.2642
11875TIP3   OH257039   0.404   3.229  16.182 -0.0160 -0.2431 -0.1572
11875TIP3    H157040   0.408   3.150  16.129 -1.5574 -0.6715  0.3337
11875TIP3    H257041   0.320   3.269  16.161  1.4357  2.2900 -1.7675
11876TIP3   OH257042   3.065   4.864  15.431 -0.0538  0.3016 -0.3568
11876TIP3    H157043   3.158   4.863  15.407  0.4243  1.0129  1.3560
11876TIP3    H257044   3.020   4.875  15.348  1.3042 -1.3952 -1.4063
11877TIP3   OH257045   5.076   4.889   3.848 -0.2234  0.3769 -0.7203
11877TIP3    H157046   5.150   4.829   3.845 -0.4857  0.0334 -0.4369
11877TIP3    H257047   5.115   4.975   3.864  0.0754  0.1059  0.0914
11878TIP3   OH257048   0.379   3.700   2.439 -0.1790  0.3489 -0.1465
11878TIP3    H157049   0.324   3.673   2.513 -0.6283  0.2665 -0.5088
11878TIP3    H257050   0.401   3.618   2.394  1.0052  0.2748  0.5106
11879TIP3   OH257051   1.903   2.959  16.457  0.5384  0.2349 -0.4423
11879TIP3    H157052   1.839   3.026  16.432  0.2898 -0.1951 -0.9614
11879TIP3    H257053   1.984   2.988  16.416  0.3504  0.0334 -0.9567
11880TIP3   OH257054   2.417   3.816   3.829 -0.0793  0.3434 -0.0707
11880TIP3    H157055   2.437   3.770   3.911 -1.3386 -0.3761 -0.1352
11880TIP3    H257056   2.374   3.750   3.775  0.3583  0.9292 -1.1602
11881TIP3   OH257057   1.962   5.525  16.841  0.2306  0.0682  0.0396
11881TIP3    H157058   1.906   5.602  16.832 -1.6000 -0.8164  2.5330
11881TIP3    H257059   1.907   5.453  16.810  0.5749 -0.6110  0.9482
11882TIP3   OH257060   2.082   0.451  16.651  0.3853  0.1765  0.3905
11882TIP3    H157061   2.176   0.465  16.662  1.1199 -2.5343 -1.4413
11882TIP3    H257062   2.072   0.422  16.560 -2.2697  0.5683  0.4648
11883TIP3   OH257063   4.070   5.152  14.843 -0.0845 -0.4335  0.1846
11883TIP3    H157064   4.072   5.150  14.939 -1.0440  0.1968  0.2232
11883TIP3    H257065   3.985   5.116  14.819  0.3899 -1.1669 -0.4651
11884TIP3   OH257066   1.027   1.044  14.995  0.1628  0.2874  0.0561
11884TIP3    H157067   1.100   1.096  15.026 -0.2573  1.5331 -0.9275
11884TIP3    H257068   0.949   1.089  15.028 -0.2312  0.7125 -1.3804
11885TIP3   OH257069   3.495   3.619   3.177  0.3762 -0.0668 -0.3148
11885TIP3    H157070   3.591   3.622   3.171  0.3848 -1.2015 -0.8668
11885TIP3    H257071   3.467   3.704   3.143  1.2017  0.6039  0.5855
11886TIP3   OH257072   0.979   6.177   1.331  0.7456 -0.2033 -0.3588
11886TIP3    H157073   0.906   6.237   1.316  1.6597  0.9890 -0.2109
11886TIP3    H257074   1.045   6.203   1.267  0.7165 -1.8594 -1.0950
11887TIP3   OH257075   5.715   1.423   1.676 -0.5096 -0.2237 -0.1468
11887TIP3    H157076   5.711   1.339   1.630  0.7125 -0.6706  0.5250
11887TIP3    H257077   5.655   1.480   1.628  0.5426 -0.7234 -2.1494
11888TIP3   OH257078   2.260   6.770  10.842 -0.0944 -0.6568 -0.2048
11888TIP3    H157079   2.180   6.728  10.811  0.0666 -0.2771 -1.1794
11888TIP3    H257080   2.268   6.849  10.789  1.1953 -0.9510 -0.4902
11889TIP3   OH257081   3.659   1.593   2.199  0.4652  0.1162 -0.0157
11889TIP3    H157082   3.609   1.661   2.242 -1.3665 -1.0163 -0.2443
11889TIP3    H257083   3.738   1.584   2.252 -1.3234 -0.6656  2.7209
11890TIP3   OH257084   3.947   5.051  13.420  0.0380 -0.0360  0.4953
11890TIP3    H157085   3.915   5.002  13.344  0.0572  0.6290  0.0416
11890TIP3    H257086   3.962   5.140  13.386  0.5051  0.1504  1.1669
11891TIP3   OH257087   0.154   4.312  14.939 -0.4462 -0.3864 -0.0981
11891TIP3    H157088   0.076   4.257  14.940  1.2295 -2.9227  0.7161
11891TIP3    H257089   0.208   4.277  14.869  0.4915  0.5212  0.1366
11892TIP3   OH257090   0.301   0.074   5.432 -0.1846  0.1472  0.2478
11892TIP3    H157091   0.378   0.116   5.472  0.9654 -1.5145 -0.1461
11892TIP3    H257092   0.267   0.140   5.371  0.5844  1.1016  0.8128
11893TIP3   OH257093   1.877   4.516   0.329 -0.5053  0.3737 -0.2480
11893TIP3    H157094   1.943   4.575   0.292 -0.4827 -0.0978 -0.9904
11893TIP3    H257095   1.874   4.443   0.268 -0.8810 -0.1661  0.4075
11894TIP3   OH257096   2.315   1.160   3.624  0.3126 -0.1233  0.0305
11894TIP3    H157097   2.259   1.237   3.636 -1.5204 -0.4389 -4.4128
11894TIP3    H257098   2.389   1.193   3.573 -0.2103 -1.0892 -1.4213
11895TIP3   OH257099   0.706   4.157  16.469 -0.4187 -0.1810  0.5601
11895TIP3    H157100   0.732   4.076  16.425  2.0359  0.0947  1.3533
11895TIP3    H257101   0.612   4.164  16.453 -0.1436 -1.5200 -2.2397
11896TIP3   OH257102   1.154   2.067  12.531 -0.9394 -0.2141 -0.1644
11896TIP3    H157103   1.153   2.160  12.507 -0.4326 -0.3739 -0.8583
11896TIP3    H257104   1.161   2.022  12.447 -3.2514 -0.9678 -0.0126
11897TIP3   OH257105   2.563   3.435  14.760  0.4820  0.5301 -0.4784
11897TIP3    H157106   2.507   3.357  14.754  0.2848  0.5279  1.0797
11897TIP3    H257107   2.504   3.508  14.742  0.2423  0.4440 -0.0492
11898TIP3   OH257108   4.422   3.528   2.577 -0.4777 -0.5662 -0.0289
11898TIP3    H157109   4.423   3.491   2.489  0.4338  0.6581 -0.5791
11898TIP3    H257110   4.363   3.473   2.627  0.0525 -2.1139 -1.0558
11899TIP3   OH257111   4.516   2.035   2.008  0.5564 -0.1646  0.1787
11899TIP3    H157112   4.429   2.061   1.980  0.5121 -0.1520  0.3261
11899TIP3    H257113   4.505   2.011   2.100  0.4784 -1.2493 -0.1044
11900TIP3   OH257114   4.352   4.825   4.516  0.0044 -0.4530 -0.0734
11900TIP3    H157115   4.411   4.901   4.519  1.3537 -1.3989 -1.1312
11900TIP3    H257116   4.403   4.754   4.556 -0.4092 -1.2941 -0.9984
11901TIP3   OH257117   3.099   2.858  12.448  0.2562 -0.2691  0.5489
11901TIP3    H157118   3.144   2.851  12.532  0.2666 -2.4156  0.4346
11901TIP3    H257119   3.024   2.799  12.456 -1.5633  1.8576  0.0968
11902TIP3   OH257120   6.087   0.635  15.345  0.2424 -0.1806  0.5635
11902TIP3    H157121   6.000   0.596  15.348 -0.2586  0.8510  0.0133
11902TIP3    H257122   6.071   0.729  15.355  0.8662  0.5452 -3.6622
11903TIP3   OH257123   1.660   1.539   5.224  0.3558  0.6964  0.1294
11903TIP3    H157124   1.677   1.446   5.213  0.8166  0.8739 -0.7883
11903TIP3    H257125   1.739   1.574   5.265  0.6297  0.8538 -0.5141
11904TIP3   OH257126   1.734   6.016  15.630  0.2851  0.5551  0.1537
11904TIP3    H157127   1.702   5.989  15.544 -1.3881 -1.3080  1.2754
11904TIP3    H257128   1.659   6.060  15.671 -0.2360 -1.8074  1.9533
11905TIP3   OH257129   5.195   2.287  15.663 -0.2188 -0.4625  0.1782
11905TIP3    H157130   5.167   2.240  15.741  1.1869  1.8040  2.2055
11905TIP3    H257131   5.270   2.237  15.630  1.6225  0.4819  2.6206
11906TIP3   OH257132   1.694   1.694   4.960 -0.1070 -0.2261  0.0815
11906TIP3    H157133   1.773   1.646   4.983 -0.0938  0.1127  0.7841
11906TIP3    H257134   1.670   1.740   5.041  0.0580  1.1927 -0.6468
11907TIP3   OH257135   5.969   5.413   4.256 -0.0049 -0.3719  0.2730
11907TIP3    H157136   5.920   5.478   4.206  1.2070 -0.3275 -0.9303
11907TIP3    H257137   5.903   5.364   4.305 -1.0206  1.1398  0.4695
11908TIP3   OH257138   0.162   5.947  11.119 -0.3747 -0.6926  0.5712
11908TIP3    H157139   0.176   5.987  11.033  1.8969 -1.0059  0.7327
11908TIP3    H257140   0.068   5.955  11.134 -0.8016 -0.4672 -1.8435
11909TIP3   OH257141   2.744   5.909   3.383  0.3794  0.5145  0.0755
11909TIP3    H157142   2.697   5.839   3.429  0.1898  0.1573 -0.6445
11909TIP3    H257143   2.766   5.871   3.298  0.2742  1.3425 -0.3291
11910TIP3   OH257144   2.821   3.506  11.751 -0.0841 -0.4354 -0.0144
11910TIP3    H157145   2.733   3.541  11.762 -0.4199 -1.5209  1.0242
11910TIP3    H257146   2.807   3.418  11.715  0.6452 -0.1870 -0.9542
11911TIP3   OH257147   3.065   0.194   3.263  0.1113 -0.2489 -0.7966
11911TIP3    H157148   3.048   0.110   3.221  1.1617 -0.6429 -0.4513
11911TIP3    H257149   3.099   0.172   3.350  0.3752  0.5257 -0.6929
11912TIP3   OH257150   0.846   2.727  10.991 -0.5464  0.0026  0.2945
11912TIP3    H157151   0.833   2.695  10.902 -0.5673 -1.1438  0.6947
11912TIP3    H257152   0.886   2.814  10.980  1.0642 -0.8291 -0.8286
11913TIP3   OH257153   2.866   1.414   4.004  0.0716  0.0237 -0.3540
11913TIP3    H157154   2.796   1.443   4.063  0.6599 -0.2897  0.5218
11913TIP3    H257155   2.931   1.485   4.007  1.0490 -0.8696  1.0078
11914TIP3   OH257156   6.034   1.469   4.136 -0.1529 -0.2152 -0.1074
11914TIP3    H157157   6.128   1.470   4.122 -0.3952  0.4180 -1.9581
11914TIP3    H257158   6.024   1.486   4.230  1.5392  2.3895 -0.2669
11915TIP3   OH257159   1.597   4.431   0.618 -0.4502  0.1555 -0.4912
11915TIP3    H157160   1.658   4.443   0.691  0.0350 -0.2980 -0.8217
11915TIP3    H257161   1.512   4.458   0.654 -0.0206  1.0632 -0.1107
11916TIP3   OH257162   0.376   3.483   1.673 -0.0858 -0.3340 -0.1277
11916TIP3    H157163   0.310   3.508   1.608  0.4705  0.2868 -0.4633
11916TIP3    H257164   0.375   3.388   1.673 -1.7016 -0.3521  0.6105
11917TIP3   OH257165   2.167   5.227   4.891  0.1808 -0.5952 -0.1009
11917TIP3    H157166   2.142   5.179   4.812  0.2787  0.1493 -0.5875
11917TIP3    H257167   2.240   5.282   4.864  1.1896 -1.3867  0.8555
11918TIP3   OH257168   1.482   5.217   1.961 -0.3900  0.2099  0.4536
11918TIP3    H157169   1.410   5.271   1.928  0.5984  1.4403  0.2456
11918TIP3    H257170   1.504   5.255   2.046 -0.7631 -0.9106  1.0696
11919TIP3   OH257171   0.021   2.014  15.273 -0.3294  0.3729 -0.8444
11919TIP3    H157172  -0.039   2.063  15.215 -0.8148  1.8870  0.8258
11919TIP3    H257173   0.069   2.083  15.320 -1.5727 -0.6449  2.1729
11920TIP3   OH257174   4.215   3.237  14.365  0.0333 -0.1457 -0.4168
11920TIP3    H157175   4.186   3.290  14.440  0.0390  0.3794 -0.7751
11920TIP3    H257176   4.259   3.162  14.404 -0.1129  0.0370  0.1104
11921TIP3   OH257177   4.389   6.582   4.183  0.2329 -0.2878 -0.3964
11921TIP3    H157178   4.401   6.504   4.129 -0.1975  0.3262 -1.3972
11921TIP3    H257179   4.301   6.612   4.163  0.8500  1.1896 -1.0169
11922TIP3   OH257180   2.729   1.488  12.622 -0.4336  0.3535  0.0103
11922TIP3    H157181   2.818   1.495  12.587  0.5017  0.1436  2.2052
11922TIP3    H257182   2.738   1.435  12.701 -2.7451 -0.7994 -0.4202
11923TIP3   OH257183   5.225   6.680  12.764 -0.0374 -0.1534  0.4283
11923TIP3    H157184   5.133   6.687  12.788  0.0178 -3.2588  2.1061
11923TIP3    H257185   5.258   6.771  12.766 -2.5089  0.8100  2.1181
11924TIP3   OH257186   2.774   1.496   1.636 -0.0605  0.3069  0.0779
11924TIP3    H157187   2.811   1.455   1.714  0.9933  0.6722 -0.2198
11924TIP3    H257188   2.683   1.467   1.635 -0.1055  0.3238  1.4602
11925TIP3   OH257189   0.349   0.800  13.898 -0.0545 -0.1013  0.2987
11925TIP3    H157190   0.289   0.821  13.970 -0.7867 -0.3089 -0.2303
11925TIP3    H257191   0.378   0.711  13.916 -0.4023 -0.2315  0.2400
11926TIP3   OH257192   2.099   2.386  14.037  0.0480  0.7351 -0.2990
11926TIP3    H157193   2.116   2.297  14.068  2.2915  1.2909  0.2717
11926TIP3    H257194   2.052   2.428  14.109 -1.5516 -0.0974 -0.8041
11927TIP3   OH257195   1.056   2.650  10.669 -0.2100  0.1451  0.2285
11927TIP3    H157196   0.976   2.603  10.694 -0.5488  0.4307 -0.3203
11927TIP3    H257197   1.097   2.594  10.603  0.1298 -0.0761  0.6191
11928TIP3   OH257198   2.110   2.661   3.998  0.2515 -0.4316 -0.2559
11928TIP3    H157199   2.089   2.751   4.026  0.8347  0.0556 -1.3173
11928TIP3    H257200   2.150   2.672   3.912  0.0953 -1.7471 -0.5103
11929TIP3   OH257201   4.154   6.273  13.581 -0.2196 -0.5218  0.2524
11929TIP3    H157202   4.171   6.179  13.580  2.0903 -0.1813 -1.5705
11929TIP3    H257203   4.188   6.304  13.665 -1.4576 -1.3317  1.0812
11930TIP3   OH257204   4.382   5.330  14.994  0.1466  0.0428  0.1799
11930TIP3    H157205   4.313   5.381  14.952  1.2049  0.2667 -1.3804
11930TIP3    H257206   4.401   5.259  14.933  0.9787 -0.2866  0.7947
11931TIP3   OH257207   1.682   0.672  16.866  0.1174 -0.2734  0.6709
11931TIP3    H157208   1.606   0.655  16.811 -1.0733 -0.0776  2.1829
11931TIP3    H257209   1.682   0.601  16.930  0.6450  0.2495  1.2713
11932TIP3   OH257210   2.984   1.130   0.236  0.5994  0.3842 -0.4459
11932TIP3    H157211   2.998   1.206   0.180 -0.5917  1.9629  1.2699
11932TIP3    H257212   2.931   1.163   0.309 -1.4982 -2.4429 -0.4816
11933TIP3   OH257213   5.090   2.436   5.624  0.4167  0.4693  0.3089
11933TIP3    H157214   5.073   2.504   5.559  0.0071 -0.3455 -0.4565
11933TIP3    H257215   5.039   2.462   5.701 -0.5106  0.5269 -0.3111
11934TIP3   OH257216   4.664   0.640  15.282 -0.2019 -0.0499  0.1001
11934TIP3    H157217   4.678   0.682  15.367 -0.1649 -1.1960  0.6768
11934TIP3    H257218   4.583   0.590  15.293  1.0471 -2.1379  0.2663
11935TIP3   OH257219   5.907   4.406  15.212  0.3128  0.5602  0.0972
11935TIP3    H157220   5.927   4.379  15.302  1.0772  0.4875 -0.0879
11935TIP3    H257221   5.894   4.323  15.165 -1.6104  0.6207  0.4614
11936TIP3   OH257222   1.168   2.415  12.809 -0.2480  0.2826 -0.1715
11936TIP3    H157223   1.116   2.459  12.742  0.8491  1.1332 -0.4869
11936TIP3    H257224   1.107   2.402  12.882 -0.8055  1.6331 -0.3665
11937TIP3   OH257225   4.644   1.187   2.099 -0.4173  0.3481 -0.5551
11937TIP3    H157226   4.643   1.283   2.097 -1.2833  0.3965  0.6683
11937TIP3    H257227   4.595   1.165   2.178 -0.6752 -1.1229 -1.0991
11938TIP3   OH257228   4.199   0.621  16.651 -0.8748  0.7908 -0.0720
11938TIP3    H157229   4.217   0.701  16.602 -0.7904  0.0064 -1.3906
11938TIP3    H257230   4.146   0.568  16.591 -1.4174  0.0947  0.9895
11939TIP3   OH257231   3.077   3.941   5.518 -0.5978 -0.0019  0.5201
11939TIP3    H157232   2.988   3.958   5.549 -1.0840  1.0560 -1.3109
11939TIP3    H257233   3.119   4.027   5.517 -0.4012 -0.0908 -1.0589
11940TIP3   OH257234   6.233   6.720   2.499 -0.6381  0.0191  0.7771
11940TIP3    H157235   6.256   6.634   2.465  0.7211  0.8413 -0.5431
11940TIP3    H257236   6.314   6.753   2.539 -0.3441  1.6718 -1.0130
11941TIP3   OH257237   3.012   5.084   5.004 -0.5994  0.1795 -0.5809
11941TIP3    H157238   3.055   5.113   4.924 -1.5795 -1.0674 -1.6018
11941TIP3    H257239   2.932   5.136   5.008 -0.7457 -0.0379 -0.6379
11942TIP3   OH257240   5.550   0.656   2.599  0.4945  0.4585  0.2292
11942TIP3    H157241   5.498   0.576   2.590  0.3760  0.5688 -0.0812
11942TIP3    H257242   5.569   0.662   2.692  0.8229 -0.1337  0.2050
11943TIP3   OH257243   2.869   3.178  16.623 -0.2179 -0.5624  0.4791
11943TIP3    H157244   2.933   3.115  16.591 -0.2208  0.1253 -0.9576
11943TIP3    H257245   2.876   3.252  16.563 -1.5672 -0.0041  0.9639
11944TIP3   OH257246   1.454   0.493   4.117 -0.0672 -0.1158 -0.2685
11944TIP3    H157247   1.420   0.425   4.176  1.3106 -0.9884 -0.4406
11944TIP3    H257248   1.546   0.471   4.105 -0.1788  0.3534 -2.3470
11945TIP3   OH257249   0.340   1.063  17.181 -0.5381  0.0170 -0.3074
11945TIP3    H157250   0.365   1.119  17.254 -0.1176 -0.0815 -0.3728
11945TIP3    H257251   0.386   0.981  17.197 -1.2593 -0.3692 -0.1349
11946TIP3   OH257252   2.190   4.381   1.292 -0.1683  0.1264 -0.0865
11946TIP3    H157253   2.180   4.300   1.242  0.7016 -0.8748  1.2855
11946TIP3    H257254   2.229   4.354   1.375 -1.3112  1.7545  1.0613
11947TIP3   OH257255   0.010   2.025   4.192  0.5401 -0.2112 -0.0750
11947TIP3    H157256  -0.056   1.960   4.213 -0.8383  0.6813 -1.4457
11947TIP3    H257257   0.076   1.976   4.143  0.0901 -0.7940 -0.1168
11948TIP3   OH257258   6.103   5.562  16.540 -0.1408  0.0848 -0.0258
11948TIP3    H157259   6.031   5.575  16.480  1.0292 -4.5902 -3.0192
11948TIP3    H257260   6.069   5.502  16.606 -0.1959  1.7125  1.4944
11949TIP3   OH257261   1.370   1.432   5.602 -0.2386 -0.5337 -0.0016
11949TIP3    H157262   1.406   1.494   5.538  0.8476 -1.2356 -0.1109
11949TIP3    H257263   1.438   1.364   5.610  0.1146  0.0275  2.6408
11950TIP3   OH257264   1.001   1.465  15.935 -0.4068 -0.0516  0.2496
11950TIP3    H157265   1.013   1.427  15.847 -0.3991  2.2507 -0.8132
11950TIP3    H257266   0.908   1.451  15.953 -0.7004  0.5390 -0.6983
11951TIP3   OH257267   4.157   2.832   0.135  0.3032 -0.2506 -0.1497
11951TIP3    H157268   4.175   2.925   0.142  1.7205 -0.5439  0.3320
11951TIP3    H257269   4.150   2.802   0.226 -0.9920 -0.4835 -0.2995
11952TIP3   OH257270   5.503   3.747  15.714 -0.6796 -0.4564 -0.2945
11952TIP3    H157271   5.570   3.806  15.748  0.1356 -0.1301 -2.2941
11952TIP3    H257272   5.465   3.706  15.791  1.0078  0.2381  0.9660
11953TIP3   OH257273   6.788   2.390   5.419  0.4289 -0.1032  0.1453
11953TIP3    H157274   6.860   2.369   5.478  0.4109 -0.2347  0.1226
11953TIP3    H257275   6.831   2.424   5.340  0.4506  0.1153  0.2498
11954TIP3   OH257276   5.033   0.022   4.489  0.6341 -0.0993 -0.6742
11954TIP3    H157277   5.073   0.104   4.516 -0.3207  0.1250  0.1118
11954TIP3    H257278   4.939   0.038   4.494  0.4340 -1.0386 -1.1534
11955TIP3   OH257279   5.089   0.278  17.093  0.4028  0.0497 -0.4743
11955TIP3    H157280   5.107   0.185  17.088 -1.4299 -0.2757 -2.2588
11955TIP3    H257281   5.007   0.284  17.142  0.6088  0.7305 -0.2039
11956TIP3   OH257282   1.365   6.756  12.325 -0.1700 -0.1516  0.0936
11956TIP3    H157283   1.344   6.848  12.309  0.1482 -0.3412 -1.6509
11956TIP3    H257284   1.378   6.719  12.237  1.6341 -1.3961  0.8270
11957TIP3   OH257285   6.201   3.146  12.111  0.6648 -0.0156  0.1645
11957TIP3    H157286   6.206   3.063  12.063 -1.7886 -0.2025  0.1308
11957TIP3    H257287   6.174   3.209  12.045  0.3092  0.3623  0.6748
11958TIP3   OH257288   4.038   5.268   3.863 -0.2619  0.2627  0.0069
11958TIP3    H157289   3.985   5.298   3.789 -0.3364 -0.2874 -0.1681
11958TIP3    H257290   4.106   5.214   3.823 -0.9756 -0.9897  0.4218
11959TIP3   OH257291   4.892   0.014   4.810  0.0445 -0.7366  0.3499
11959TIP3    H157292   4.840   0.075   4.864  2.6378  0.1305  2.0829
11959TIP3    H257293   4.940   0.071   4.750  0.3734 -1.3179  0.0594
11960TIP3   OH257294   5.267   5.741   2.889 -0.1627 -0.1958  0.6534
11960TIP3    H157295   5.327   5.668   2.872 -0.9967 -0.9231  0.7789
11960TIP3    H257296   5.324   5.817   2.898  0.6264 -0.5682 -0.8909
11961TIP3   OH257297   1.441   2.779   1.749 -0.0392  0.6454  0.0809
11961TIP3    H157298   1.524   2.742   1.721  1.3094  1.6718  2.4024
11961TIP3    H257299   1.463   2.868   1.777 -1.2718  0.0423  3.4117
11962TIP3   OH257300   1.883   4.304  13.833  0.2839  0.0883  0.1829
11962TIP3    H157301   1.879   4.399  13.846 -2.6001  0.0554  0.3078
11962TIP3    H257302   1.792   4.275  13.844  0.7973 -2.4792 -1.4678
11963TIP3   OH257303   3.728   0.536   1.650  0.2066  0.2541  0.6006
11963TIP3    H157304   3.800   0.546   1.586 -1.3674  1.8801 -1.0402
11963TIP3    H257305   3.769   0.552   1.735  2.0403 -0.2255 -0.1381
11964TIP3   OH257306   6.533   0.534   0.857 -0.2195 -0.3130  0.3025
11964TIP3    H157307   6.479   0.613   0.857  1.9859  1.3046  1.5929
11964TIP3    H257308   6.617   0.562   0.821  0.1751 -2.4685 -0.6187
11965TIP3   OH257309   5.760   1.296  14.026  0.0144  0.0500 -0.2540
11965TIP3    H157310   5.708   1.351  14.085 -3.3227 -0.4765 -2.4277
11965TIP3    H257311   5.744   1.207  14.057 -0.0314 -0.0948 -0.6888
11966TIP3   OH257312   5.561   2.949   4.073 -0.2227 -0.4918 -0.0883
11966TIP3    H157313   5.482   2.937   4.125 -0.7248 -3.0162 -1.3148
11966TIP3    H257314   5.530   2.990   3.992  0.4042  2.3707  0.9817
11967TIP3   OH257315   4.442   6.337  13.857  0.2618 -0.1550 -0.4494
11967TIP3    H157316   4.447   6.379  13.771  0.1689  0.8531  0.0167
11967TIP3    H257317   4.466   6.246  13.841 -0.3947 -0.1354 -1.6453
11968TIP3   OH257318   5.616   1.658  14.594  0.3202  0.7190 -0.0916
11968TIP3    H157319   5.573   1.573  14.606  2.0562 -0.1173  0.6334
11968TIP3    H257320   5.565   1.701  14.525 -1.6220 -0.1897  0.7077
11969TIP3   OH257321   2.915   1.385  11.064  0.2594 -0.0612  0.0981
11969TIP3    H157322   2.979   1.332  11.016 -0.7718 -1.1200 -0.1500
11969TIP3    H257323   2.882   1.327  11.133 -0.2213  0.5627  0.4072
11970TIP3   OH257324   5.116   1.265   6.795  0.5328  0.1141  0.0577
11970TIP3    H157325   5.150   1.322   6.864 -0.3749  0.8772 -0.1084
11970TIP3    H257326   5.168   1.185   6.803  1.3981  0.7210  0.7057
11971TIP3   OH257327   5.718   1.928   4.699  0.0621 -0.2260 -0.1440
11971TIP3    H157328   5.720   1.918   4.794 -1.0157  1.4702  0.0941
11971TIP3    H257329   5.806   1.903   4.670  0.7350  0.2679  1.4116
11972TIP3   OH257330   0.755   6.652   5.095  0.2624  0.3809  0.3784
11972TIP3    H157331   0.780   6.560   5.109 -1.0773 -0.4695 -2.1259
11972TIP3    H257332   0.661   6.649   5.077  0.2706  2.1906 -0.1793
11973TIP3   OH257333   6.560   6.322   6.788 -0.1938  0.1030  0.0194
11973TIP3    H157334   6.536   6.278   6.707 -1.1476  0.5239  0.0705
11973TIP3    H257335   6.654   6.338   6.779 -0.2049 -0.2429 -0.8090
11974TIP3   OH257336   6.648   3.829   5.338 -0.7159 -0.3340 -0.5878
11974TIP3    H157337   6.629   3.869   5.423 -0.5601 -0.6541 -0.4023
11974TIP3    H257338   6.650   3.903   5.277  0.9810  0.1386 -0.0143
11975TIP3   OH257339   4.598   6.089  10.603 -0.3474  0.1894 -0.8188
11975TIP3    H157340   4.682   6.134  10.616 -0.3928 -0.1243  0.7463
11975TIP3    H257341   4.617   5.997  10.621 -1.4236  0.3936  1.6954
11976TIP3   OH257342   6.478   4.968  16.324  0.1976 -0.0006  0.8839
11976TIP3    H157343   6.452   4.950  16.234  1.2643  0.3393  0.4944
11976TIP3    H257344   6.448   5.058  16.340  3.7591  1.6566 -0.6631
11977TIP3   OH257345   6.748   3.636  15.132  0.1934 -0.2726  0.2409
11977TIP3    H157346   6.660   3.669  15.152  0.3461  0.6996 -0.6011
11977TIP3    H257347   6.801   3.660  15.207  0.4224  1.9523 -0.5689
11978TIP3   OH257348   4.365   3.966  11.430  0.6129 -0.4894 -0.4155
11978TIP3    H157349   4.432   3.986  11.365  0.7914  1.0345  0.1922
11978TIP3    H257350   4.394   4.011  11.510  0.3344 -2.2010  0.7130
11979TIP3   OH257351   4.741   4.777  11.991 -0.3598 -0.0707  0.1059
11979TIP3    H157352   4.780   4.691  11.974  0.3722  0.4307 -0.8279
11979TIP3    H257353   4.801   4.819  12.052 -1.9963 -1.1271  2.6354
11980TIP3   OH257354   1.390   3.469   3.630 -0.2361 -0.4706 -0.0737
11980TIP3    H157355   1.479   3.442   3.652  0.0934  0.2850 -0.4399
11980TIP3    H257356   1.396   3.564   3.617 -1.2252 -0.3075  0.5362
11981TIP3   OH257357   5.895   1.957   0.337 -0.2916  0.1197 -0.1692
11981TIP3    H157358   5.890   1.900   0.414 -0.2819 -2.3020 -1.8492
11981TIP3    H257359   5.948   1.908   0.274 -0.9491  1.6437 -2.0193
11982TIP3   OH257360   0.952   3.966  11.635  0.7108 -0.0990  0.3854
11982TIP3    H157361   0.911   3.893  11.681  0.3000  0.0456  0.2517
11982TIP3    H257362   0.923   4.044  11.683  1.4971 -0.0486  0.7922
11983TIP3   OH257363   2.027   4.961  11.928  0.0083 -0.5822  0.1115
11983TIP3    H157364   1.963   4.890  11.932  0.4693 -0.9941  0.4460
11983TIP3    H257365   2.028   4.997  12.017 -1.4414  0.9738 -0.4537
11984TIP3   OH257366   1.776   2.032  13.220 -0.0081 -0.2170  0.4191
11984TIP3    H157367   1.794   2.125  13.236 -0.5388 -0.3603  1.9992
11984TIP3    H257368   1.737   2.030  13.133 -0.3292  1.0956  0.5042
11985TIP3   OH257369   4.882   6.788  16.563 -0.1868 -0.0372 -0.9079
11985TIP3    H157370   4.843   6.703  16.583  1.9299 -1.3366 -1.9760
11985TIP3    H257371   4.926   6.814  16.644 -0.5143 -0.1289 -0.6969
11986TIP3   OH257372   4.979   5.647  14.604  0.1705 -0.4802 -0.3905
11986TIP3    H157373   5.052   5.688  14.558  0.1890 -2.1630 -2.0018
11986TIP3    H257374   4.978   5.688  14.690  1.5338  1.2457 -1.1311
11987TIP3   OH257375   3.613   0.685   2.001 -0.4452  0.0270  0.1257
11987TIP3    H157376   3.645   0.714   2.087  0.9468 -1.2616  0.0878
11987TIP3    H257377   3.621   0.763   1.945  0.0204  0.4880  0.8128
11988TIP3   OH257378   6.371   5.884  14.768  0.2119 -0.3286 -0.1931
11988TIP3    H157379   6.434   5.926  14.709 -1.2974  1.3663 -0.6629
11988TIP3    H257380   6.367   5.942  14.844 -0.8982 -0.3352 -0.2446
11989TIP3   OH257381   4.677   0.434   3.334  0.1958 -0.1466 -0.4881
11989TIP3    H157382   4.687   0.364   3.271 -1.6809 -1.0875  0.1708
11989TIP3    H257383   4.583   0.451   3.336  0.5576  2.1693 -0.3768
11990TIP3   OH257384   2.262   4.672  16.207 -0.0519  0.2027 -0.0779
11990TIP3    H157385   2.267   4.764  16.234 -1.6282  1.0364 -2.3379
11990TIP3    H257386   2.329   4.663  16.140  0.3549 -0.4387  0.3984
11991TIP3   OH257387   6.361   2.723   2.592 -0.3454 -0.5202 -0.0978
11991TIP3    H157388   6.372   2.689   2.504 -1.3075 -2.3450  0.4441
11991TIP3    H257389   6.399   2.657   2.649  2.3006  1.6100  0.8460
11992TIP3   OH257390   2.040   0.539  15.344 -0.0265 -0.1657 -0.0045
11992TIP3    H157391   1.960   0.543  15.291  0.8689 -0.1522 -1.4115
11992TIP3    H257392   2.028   0.606  15.412 -0.9685  0.2231 -0.5433
11993TIP3   OH257393   0.030   2.195  16.870 -0.6085 -0.1975  0.5063
11993TIP3    H157394  -0.033   2.170  16.937  0.6389  0.1177  1.8473
11993TIP3    H257395  -0.022   2.208  16.791 -2.5758  2.3629  2.0855
11994TIP3   OH257396   0.467   1.570  13.748  0.5579 -0.3953 -0.0107
11994TIP3    H157397   0.403   1.540  13.813 -0.7902  0.3541 -0.9518
11994TIP3    H257398   0.435   1.534  13.665  1.5958 -0.3527 -0.4341
11995TIP3   OH257399   0.180   5.214  13.735 -0.1679 -0.9755  0.4932
11995TIP3    H157400   0.155   5.301  13.767  0.0694 -0.1616 -1.3929
11995TIP3    H257401   0.099   5.163  13.735 -0.7628 -0.0675 -0.3728
11996TIP3   OH257402   1.032   5.227  14.208 -0.2778  0.3343 -0.0597
11996TIP3    H157403   0.979   5.292  14.162  0.7735  0.9327 -0.4694
11996TIP3    H257404   1.121   5.244  14.179  0.2517 -0.1364  1.2032
11997TIP3   OH257405   4.046   2.339   3.843 -0.1187 -0.2353  0.1710
11997TIP3    H157406   3.952   2.351   3.835 -0.2657 -1.7416 -0.9818
11997TIP3    H257407   4.084   2.407   3.787 -0.7477 -2.3244 -3.0461
11998TIP3   OH257408   2.017   4.978  15.003  0.1407  0.2646 -0.4899
11998TIP3    H157409   1.971   4.982  15.087 -1.3025  0.6793 -1.2615
11998TIP3    H257410   1.976   4.905  14.957 -1.6227  2.1611 -2.1785
11999TIP3   OH257411   5.256   1.701  13.302  0.4457 -0.2609 -0.2724
11999TIP3    H157412   5.226   1.754  13.229  0.0876  1.1215  0.8314
11999TIP3    H257413   5.185   1.708  13.367  1.8976  0.7539  1.2738
12000TIP3   OH257414   3.947   3.008   0.953 -0.1193 -0.1061  0.3014
12000TIP3    H157415   3.876   3.029   0.893 -0.1241 -0.5913  0.1320
12000TIP3    H257416   4.021   2.986   0.897  0.0566  0.0377  0.4762
12001TIP3   OH257417   4.204   6.706   0.674  0.2694  0.1798 -0.1688
12001TIP3    H157418   4.197   6.737   0.583  0.6026  0.3385 -0.1417
12001TIP3    H257419   4.145   6.631   0.678 -1.4150  1.4613  0.0566
12002TIP3   OH257420   1.392   2.342  14.143  0.2186 -0.5214  0.4440
12002TIP3    H157421   1.410   2.269  14.201  0.8638 -0.4843  0.2893
12002TIP3    H257422   1.457   2.336  14.074  0.7056  0.5718  0.7741
12003TIP3   OH257423   6.592   2.291   4.691 -0.2283  0.0536 -0.1459
12003TIP3    H157424   6.574   2.336   4.774  0.0305  2.1977 -1.1869
12003TIP3    H257425   6.682   2.259   4.700 -0.0954  0.5456  0.2908
12004TIP3   OH257426   0.213   1.490   4.974  0.0030 -0.9082  0.1010
12004TIP3    H157427   0.255   1.544   4.907 -2.1671  0.8009 -0.0167
12004TIP3    H257428   0.243   1.401   4.956  1.3646 -0.1466 -1.6177
12005TIP3   OH257429   6.655   4.182  12.014  0.2861  0.5029  0.0263
12005TIP3    H157430   6.694   4.262  11.980 -0.1381  1.2190  1.1661
12005TIP3    H257431   6.574   4.171  11.964 -1.6564  2.9330  2.3023
12006TIP3   OH257432   1.015   2.926  10.589 -0.1807 -0.3831 -0.1425
12006TIP3    H157433   1.014   2.835  10.618 -2.0350 -0.5156 -0.5074
12006TIP3    H257434   1.053   2.923  10.501  1.4899 -0.5225  0.5382
12007TIP3   OH257435   3.045   5.838  15.290 -0.6125 -0.4263 -0.4787
12007TIP3    H157436   3.058   5.744  15.273 -1.9273 -0.7617  0.1476
12007TIP3    H257437   2.995   5.840  15.372  1.3491  0.9266  0.7768
12008TIP3   OH257438   3.678   6.078   3.648 -0.1620 -0.1090 -0.2123
12008TIP3    H157439   3.690   6.031   3.730  2.8807 -0.6027 -0.8232
12008TIP3    H257440   3.737   6.153   3.654 -1.0291  0.7196 -1.3768
12009TIP3   OH257441   3.377   5.775  10.574  0.7039 -0.0464  0.6869
12009TIP3    H157442   3.290   5.810  10.555  1.9215  1.7435 -2.3319
12009TIP3    H257443   3.430   5.853  10.594  2.2340 -0.7029 -0.5900
12010TIP3   OH257444   6.521   3.632   2.214 -0.1962 -0.2202  0.4110
12010TIP3    H157445   6.498   3.610   2.124  1.2993 -0.3830  0.0568
12010TIP3    H257446   6.437   3.631   2.260 -0.9703 -0.2635 -0.9392
12011TIP3   OH257447   0.243   0.717   2.556 -0.5955 -0.4450 -0.1773
12011TIP3    H157448   0.277   0.804   2.575 -0.8018  0.0620 -1.9800
12011TIP3    H257449   0.295   0.687   2.481 -0.1781 -2.1028  0.7098
12012TIP3   OH257450   0.387   2.033  13.178 -0.4635 -0.0232  0.0024
12012TIP3    H157451   0.459   1.971  13.185  0.9963  1.6692  0.9593
12012TIP3    H257452   0.359   2.027  13.086 -0.4610 -2.1098  0.0907
12013TIP3   OH257453   4.558   4.296   5.269 -0.6448 -0.1641 -0.2696
12013TIP3    H157454   4.478   4.256   5.237  0.2384  0.2963 -3.3347
12013TIP3    H257455   4.553   4.388   5.241  0.7551 -0.0358 -0.2051
12014TIP3   OH257456   3.624   1.392  16.222 -0.0457 -0.1516  0.5639
12014TIP3    H157457   3.704   1.374  16.271  0.0630 -1.8935 -0.1714
12014TIP3    H257458   3.588   1.470  16.263  0.5974 -0.9047  2.7135
12015TIP3   OH257459   4.638   1.621   3.088 -0.6695  0.4263  0.0518
12015TIP3    H157460   4.593   1.697   3.126  0.5773  1.7429 -0.9737
12015TIP3    H257461   4.609   1.620   2.997  1.3557  1.3729 -0.6621
12016TIP3   OH257462   3.389   1.468   3.360  0.3389 -0.2537  0.3020
12016TIP3    H157463   3.395   1.401   3.291 -1.0508 -0.6154  0.4922
12016TIP3    H257464   3.409   1.550   3.316 -2.1361 -0.2398 -1.0187
12017TIP3   OH257465   6.270   1.156   4.405  0.6256 -0.1812 -0.5170
12017TIP3    H157466   6.190   1.114   4.438 -0.0174  2.0337  1.0424
12017TIP3    H257467   6.311   1.194   4.483  2.8200 -0.5883 -1.4030
12018TIP3   OH257468   1.493   2.670   2.946  0.2487 -0.0139 -0.1676
12018TIP3    H157469   1.540   2.640   2.868 -0.1197  0.9444 -0.7877
12018TIP3    H257470   1.403   2.682   2.915 -0.4323 -1.7621  0.9745
12019TIP3   OH257471   0.051   5.168   2.089  0.1567  0.5988  0.8231
12019TIP3    H157472   0.112   5.101   2.118  0.3070 -0.0811 -0.9431
12019TIP3    H257473  -0.023   5.162   2.150  1.4009  0.8110  2.4177
12020TIP3   OH257474   5.782   5.315   0.901  0.6638  0.8248 -0.4657
12020TIP3    H157475   5.810   5.348   0.816  2.3978  1.8739  0.4379
12020TIP3    H257476   5.861   5.276   0.938 -0.3848 -0.8354  0.1442
12021TIP3   OH257477   3.115   4.748   0.387  0.7078  0.2956  0.4482
12021TIP3    H157478   3.184   4.715   0.329  0.6454  0.5999  0.2034
12021TIP3    H257479   3.040   4.690   0.371  0.2482  1.1939 -0.7636
12022TIP3   OH257480   2.699   1.519   4.362 -0.3861  0.3581 -0.1964
12022TIP3    H157481   2.652   1.530   4.279  1.2391 -0.1663 -1.2472
12022TIP3    H257482   2.691   1.425   4.381 -1.6163  0.6421  0.8207
12023TIP3   OH257483   3.437   2.251  15.439 -0.1799  0.1504 -0.1240
12023TIP3    H157484   3.451   2.325  15.379 -0.7149  0.8309  0.5664
12023TIP3    H257485   3.354   2.212  15.411 -1.3405  1.5413  1.2094
12024TIP3   OH257486   4.717   1.683   1.283  0.0962  0.0104 -0.5096
12024TIP3    H157487   4.728   1.693   1.377 -2.4401  0.1025 -0.1470
12024TIP3    H257488   4.709   1.588   1.270  0.4709 -0.0038 -0.6269
12025TIP3   OH257489   0.832   1.792   4.926  0.2484 -0.0305 -0.0639
12025TIP3    H157490   0.871   1.706   4.943  1.2614  0.2567 -0.8667
12025TIP3    H257491   0.742   1.773   4.899  0.1136 -0.7597  0.8353
12026TIP3   OH257492   0.512   4.458   0.814  0.7024 -0.0499 -0.2026
12026TIP3    H157493   0.514   4.409   0.732  3.4757 -1.0663  0.3695
12026TIP3    H257494   0.599   4.497   0.821  1.0216 -1.0181  2.7963
12027TIP3   OH257495   3.185   1.553  13.367  0.1330  0.5658 -0.4000
12027TIP3    H157496   3.164   1.467  13.331  1.9370  0.5728 -1.6071
12027TIP3    H257497   3.252   1.537  13.433 -0.0829  0.9707 -0.0762
12028TIP3   OH257498   3.775   2.848  16.911 -0.1888  0.4675  0.0924
12028TIP3    H157499   3.760   2.862  17.004 -0.1905  1.2610 -0.0156
12028TIP3    H257500   3.859   2.892  16.894  0.3935 -0.6799 -0.0506
12029TIP3   OH257501   2.745   1.954  14.993 -0.3817 -0.5097 -0.0324
12029TIP3    H157502   2.818   1.905  14.954 -0.3866 -1.4269  1.0385
12029TIP3    H257503   2.672   1.892  14.992 -0.8495  0.0366 -0.1186
12030TIP3   OH257504   2.391   3.819   2.676 -0.2684 -0.4215 -0.0840
12030TIP3    H157505   2.448   3.745   2.655 -1.1922 -1.1439 -0.1105
12030TIP3    H257506   2.409   3.884   2.607 -1.1188 -1.5746 -1.4499
12031TIP3   OH257507   4.648   3.321  11.153  0.1763  0.0847 -0.4080
12031TIP3    H157508   4.565   3.341  11.110  1.2495  3.0427 -1.3494
12031TIP3    H257509   4.704   3.288  11.083  0.2533 -0.4657 -0.0902
12032TIP3   OH257510   2.034   3.481  11.900  0.4579  0.3431 -0.0502
12032TIP3    H157511   2.102   3.415  11.890  0.6475  0.8505 -2.9361
12032TIP3    H257512   1.953   3.437  11.872  0.3802  0.9444 -0.8174
12033TIP3   OH257513   0.657   1.007  12.663  0.2469  0.1669  0.2548
12033TIP3    H157514   0.599   0.939  12.697  0.4443 -0.0632  0.1347
12033TIP3    H257515   0.604   1.087  12.664  0.2157  0.1454  0.9944
12034TIP3   OH257516   2.575   0.956   2.722  0.4525 -0.5854  0.0592
12034TIP3    H157517   2.611   0.873   2.754 -0.4467 -1.2306 -0.5495
12034TIP3    H257518   2.647   0.995   2.672  1.6833  0.1536  2.2580
12035TIP3   OH257519   5.051   1.871  13.450  0.2378  0.1408 -0.2420
12035TIP3    H157520   4.997   1.947  13.470 -0.3496 -0.2092 -0.4560
12035TIP3    H257521   4.989   1.798  13.446  0.9848 -0.6488  1.5289
12036TIP3   OH257522   5.862   4.204  15.747 -0.1540  0.0517 -0.2112
12036TIP3    H157523   5.811   4.286  15.748  0.5539  0.5467 -1.6208
12036TIP3    H257524   5.799   4.137  15.721 -0.8010  0.0872  1.2057
12037TIP3   OH257525   1.123   4.640   0.869 -0.5402 -0.4590  0.5507
12037TIP3    H157526   1.062   4.702   0.831  0.6561  1.1427  1.1127
12037TIP3    H257527   1.089   4.624   0.958 -1.8477 -2.1000 -0.1891
12038TIP3   OH257528   3.776   5.368  13.552  0.1500 -0.6183 -0.4893
12038TIP3    H157529   3.840   5.352  13.483  0.6222  0.5182 -0.3370
12038TIP3    H257530   3.727   5.286  13.559  0.7822 -1.0943 -1.4465
12039TIP3   OH257531   5.763   4.762  10.903  0.5676  1.0394  0.0159
12039TIP3    H157532   5.684   4.816  10.903 -0.1258  0.0899 -1.3875
12039TIP3    H257533   5.813   4.793  10.827 -0.3954 -0.9815 -1.5277
12040TIP3   OH257534   0.852   0.175  12.143 -0.5725  0.0618  0.1476
12040TIP3    H157535   0.818   0.264  12.155  1.6475  0.8385  1.3289
12040TIP3    H257536   0.900   0.179  12.061  0.2756  0.2434  0.6387
12041TIP3   OH257537   1.303   3.759   3.021 -0.4272  0.1430 -0.2244
12041TIP3    H157538   1.239   3.829   3.005 -0.5784 -0.1403 -0.9055
12041TIP3    H257539   1.365   3.767   2.949  1.8554  2.0862  1.7934
12042TIP3   OH257540   4.843   5.369  15.315  0.3306  0.8800 -0.7232
12042TIP3    H157541   4.883   5.374  15.228  1.4308  1.1206 -0.2256
12042TIP3    H257542   4.859   5.456  15.353  1.9743  0.0545  0.5914
12043TIP3   OH257543   5.620   1.394   2.297 -0.1509 -0.2353 -0.1888
12043TIP3    H157544   5.697   1.438   2.333  0.9365 -1.8654 -0.4588
12043TIP3    H257545   5.653   1.344   2.223 -1.2531 -1.8556  0.3801
12044TIP3   OH257546   6.054   1.776   0.198  0.5375 -0.1079  0.3777
12044TIP3    H157547   6.145   1.747   0.193 -0.0727 -1.9787 -1.7181
12044TIP3    H257548   6.013   1.738   0.120 -2.1982  0.1370  1.5950
12045TIP3   OH257549   0.463   1.286   2.852  0.3241  0.5353  0.1703
12045TIP3    H157550   0.400   1.343   2.896  0.4253  0.5384  0.3103
12045TIP3    H257551   0.417   1.258   2.772 -0.1002  0.0321  0.5815
12046TIP3   OH257552   6.350   3.428  15.683  0.3517  0.0838  0.1152
12046TIP3    H157553   6.382   3.410  15.594 -1.6132  1.4532 -0.9643
12046TIP3    H257554   6.394   3.364  15.738  2.6565  0.0463 -1.6312
12047TIP3   OH257555   2.131   0.824   4.538 -0.0238 -0.2650 -0.1801
12047TIP3    H157556   2.197   0.755   4.543 -1.9330 -2.1531  0.4294
12047TIP3    H257557   2.162   0.891   4.598  0.9851 -1.4146  0.6306
12048TIP3   OH257558   0.191   3.058   5.943 -0.6695  0.0226  0.6506
12048TIP3    H157559   0.230   2.972   5.954  0.3926  0.4661  0.5021
12048TIP3    H257560   0.215   3.105   6.023 -0.0608  0.6031  0.1426
12049TIP3   OH257561   3.607   5.335  16.861 -1.0125  0.6024 -0.5159
12049TIP3    H157562   3.606   5.245  16.828 -1.8840  0.2660  0.3735
12049TIP3    H257563   3.691   5.344  16.905 -2.2418 -0.9351  2.3639
12050TIP3   OH257564   2.754   1.708  13.594  0.4786  0.0487 -0.1470
12050TIP3    H157565   2.765   1.677  13.684 -1.1055 -0.0589  0.0399
12050TIP3    H257566   2.813   1.782  13.586  2.0307 -1.0811  0.3755
12051TIP3   OH257567   3.149   6.463   3.812  0.4969  0.0843  0.2988
12051TIP3    H157568   3.109   6.434   3.894 -0.4221 -1.2994 -0.6078
12051TIP3    H257569   3.120   6.554   3.803  0.2397  0.1126  1.2672
12052TIP3   OH257570   4.757   0.029  14.251  0.2495 -0.4327 -0.2610
12052TIP3    H157571   4.778  -0.050  14.201  0.8360  0.0919 -0.8683
12052TIP3    H257572   4.800   0.100  14.203 -0.2133  0.2516  0.3078
12053TIP3   OH257573   2.226   5.932   2.782  0.0848 -0.6002 -0.2608
12053TIP3    H157574   2.140   5.950   2.820  1.1593  2.2576  1.1228
12053TIP3    H257575   2.209   5.869   2.712 -2.8317 -1.5922  1.1828
12054TIP3   OH257576   4.735   5.923  14.845  0.7813 -0.0705  0.5340
12054TIP3    H157577   4.659   5.877  14.809  3.0450 -2.5179 -1.6094
12054TIP3    H257578   4.738   5.896  14.937 -0.4747 -0.5818  0.4396
12055TIP3   OH257579   6.435   5.861  11.682 -0.2894 -0.6048 -0.5086
12055TIP3    H157580   6.398   5.950  11.677  3.0594  0.9740  0.0253
12055TIP3    H257581   6.443   5.833  11.591 -0.7547 -0.0863 -0.7143
12056TIP3   OH257582   4.124   2.384   4.375 -0.4022 -0.0897  0.2667
12056TIP3    H157583   4.060   2.348   4.313  0.6749  0.6163 -1.3314
12056TIP3    H257584   4.111   2.478   4.370 -1.3399 -0.0638  2.3397
12057TIP3   OH257585   6.606   6.658  13.098  0.0141 -0.8444  0.3096
12057TIP3    H157586   6.662   6.734  13.113  0.8293 -1.3853  0.1272
12057TIP3    H257587   6.668   6.585  13.087 -0.7339 -1.4570  0.0719
12058TIP3   OH257588   3.994   4.325  13.426 -0.2035 -0.1216 -0.9001
12058TIP3    H157589   4.067   4.298  13.481 -0.2698 -0.0943 -0.7966
12058TIP3    H257590   3.990   4.260  13.356  0.7160  0.5731 -1.6379
12059TIP3   OH257591   4.243   3.541   1.267 -0.3182 -0.4443  0.4023
12059TIP3    H157592   4.224   3.486   1.191  0.2261  1.4344 -1.1841
12059TIP3    H257593   4.159   3.547   1.314 -1.1834 -0.0812 -1.1298
12060TIP3   OH257594   4.190   1.475  15.771 -0.8342  0.2408  0.6087
12060TIP3    H157595   4.149   1.489  15.686  0.2655 -1.0746 -0.1765
12060TIP3    H257596   4.121   1.434  15.824 -1.3959  0.6868  0.2439
12061TIP3   OH257597   0.494   2.923   3.239  0.2325  0.0884 -0.4759
12061TIP3    H157598   0.569   2.925   3.297 -1.3881  0.1132  1.7521
12061TIP3    H257599   0.428   2.873   3.287 -0.9717 -0.5106 -2.6271
12062TIP3   OH257600   2.451   6.226   4.207 -0.5163  0.3892  0.2200
12062TIP3    H157601   2.455   6.134   4.234 -0.0831  0.6652  1.1351
12062TIP3    H257602   2.358   6.243   4.193 -0.4418 -0.7727 -2.1123
12063TIP3   OH257603   1.823   2.379  15.252  0.1061  0.1461  0.2684
12063TIP3    H157604   1.760   2.450  15.238  0.3032 -0.0473 -1.9359
12063TIP3    H257605   1.851   2.354  15.164  1.0041 -1.8121  1.0507
12064TIP3   OH257606   3.371   1.551  11.482  0.1019  0.2535  0.1622
12064TIP3    H157607   3.291   1.512  11.447 -0.2308  1.3229 -0.3095
12064TIP3    H257608   3.437   1.481  11.476 -0.6658 -0.4687  0.0734
12065TIP3   OH257609   2.510   1.644  10.953 -0.5724  0.1074  0.1719
12065TIP3    H157610   2.501   1.632  10.858 -0.7246  0.1171  0.1858
12065TIP3    H257611   2.571   1.575  10.980 -0.4084  0.1997  0.0436
12066TIP3   OH257612   2.624   2.389   3.955 -0.0418  0.1848  0.3580
12066TIP3    H157613   2.641   2.367   4.047  0.9708  0.9597  0.3728
12066TIP3    H257614   2.673   2.470   3.941 -1.3588  0.8754 -0.4685
12067TIP3   OH257615   3.302   6.013  12.185  0.1338 -0.1914  0.4675
12067TIP3    H157616   3.276   6.057  12.104 -0.8752 -0.5329  0.5856
12067TIP3    H257617   3.287   6.078  12.253 -0.8586 -0.5109  0.5811
12068TIP3   OH257618   3.007   3.044   5.238 -0.0301  0.0535 -0.7862
12068TIP3    H157619   2.959   3.120   5.203 -0.6049  0.8500  1.5280
12068TIP3    H257620   3.098   3.073   5.243  0.0761 -0.1097 -1.6917
12069TIP3   OH257621   6.582   3.258  14.135 -0.5713  0.3277 -0.3888
12069TIP3    H157622   6.625   3.172  14.128 -0.8349  0.3009 -2.3468
12069TIP3    H257623   6.518   3.248  14.205  0.4108 -0.6194  0.4038
12070TIP3   OH257624   3.971   0.316   0.077 -0.3422 -0.2753  0.0042
12070TIP3    H157625   3.922   0.307   0.159  2.2373 -0.4890  1.6616
12070TIP3    H257626   4.003   0.406   0.078  0.6933 -0.6259 -0.1317
12071TIP3   OH257627   5.636   1.306  15.996 -0.3622 -0.2764 -0.2627
12071TIP3    H157628   5.668   1.249  15.926 -0.1501 -0.9764  0.3772
12071TIP3    H257629   5.626   1.247  16.071  1.3229  0.7954  0.8803
12072TIP3   OH257630   2.883   1.160   2.029 -0.0474  0.1138  0.0850
12072TIP3    H157631   2.978   1.158   2.021  0.0242  0.9332  0.5677
12072TIP3    H257632   2.865   1.128   2.117 -0.1567  0.8026  0.3175
12073TIP3   OH257633   4.028   1.240  10.739 -0.0045  0.5099  0.8655
12073TIP3    H157634   4.102   1.290  10.705 -0.1122 -0.0801 -0.2923
12073TIP3    H257635   3.970   1.306  10.776  0.5206  1.1064  0.6519
12074TIP3   OH257636   4.732   6.604   0.149  0.0331  0.3928  0.1508
12074TIP3    H157637   4.641   6.605   0.179 -0.2400  0.7325 -0.6472
12074TIP3    H257638   4.775   6.537   0.202 -0.6406  0.3532  0.6539
12075TIP3   OH257639   0.967   6.119   3.143  0.9015  0.4898 -0.2250
12075TIP3    H157640   0.997   6.029   3.146  2.2364  0.8745 -0.9657
12075TIP3    H257641   1.006   6.155   3.062 -0.5953  1.3878 -0.5907
12076TIP3   OH257642   5.269   3.872   7.052  0.1135 -0.5072 -0.0123
12076TIP3    H157643   5.356   3.912   7.054 -0.2602  0.3363  0.2089
12076TIP3    H257644   5.235   3.894   6.965 -1.5238  2.9729  1.2965
12077TIP3   OH257645   4.225   5.063  11.448  0.0754 -0.9365 -0.0375
12077TIP3    H157646   4.204   5.112  11.527  0.6430 -0.4055 -0.2081
12077TIP3    H257647   4.223   5.127  11.378 -1.3638 -1.5870 -0.6173
12078TIP3   OH257648   2.702   3.195  13.267 -0.2009  0.4296  0.0749
12078TIP3    H157649   2.670   3.276  13.307  2.3137  1.0914  0.9167
12078TIP3    H257650   2.791   3.185  13.301  0.9187 -0.7165 -2.8994
12079TIP3   OH257651   0.186   0.253   0.225 -0.3348  0.4914  0.6904
12079TIP3    H157652   0.278   0.255   0.252 -0.4259  0.4142  1.0117
12079TIP3    H257653   0.142   0.312   0.286 -0.6030  0.0241  0.9530
12080TIP3   OH257654   0.165   4.794   0.305 -0.1668  0.1848  0.0130
12080TIP3    H157655   0.149   4.838   0.221  0.6694 -0.0586 -0.2829
12080TIP3    H257656   0.116   4.712   0.297  1.6683 -0.8785 -1.1749
12081TIP3   OH257657   3.949   4.015   0.610  1.2842  0.0415 -0.5126
12081TIP3    H157658   3.948   3.949   0.541 -0.3785 -0.6632  0.1422
12081TIP3    H257659   3.884   4.080   0.583  0.0796 -0.6165  0.7044
12082TIP3   OH257660   4.840   4.607   1.476 -0.2313  0.6662 -0.3759
12082TIP3    H157661   4.847   4.564   1.390 -1.0931  1.5372 -0.9090
12082TIP3    H257662   4.899   4.682   1.470  2.5817 -1.2087  1.1405
12083TIP3   OH257663   4.405   4.896   3.683  0.0041  0.2787 -1.0672
12083TIP3    H157664   4.390   4.818   3.737 -1.7679  0.6114 -1.0238
12083TIP3    H257665   4.388   4.867   3.594 -0.9941  0.6855 -1.0147
12084TIP3   OH257666   0.966   1.786   3.634  0.0745 -0.3666  0.3441
12084TIP3    H157667   1.024   1.860   3.616 -1.6756  1.2022  0.8019
12084TIP3    H257668   0.987   1.722   3.567  2.1555  0.2094  0.3612
12085TIP3   OH257669   2.469   0.610  11.198 -0.9298 -0.0172  0.0455
12085TIP3    H157670   2.463   0.642  11.288 -1.7151 -0.4720  0.1664
12085TIP3    H257671   2.401   0.659  11.151  0.6654  1.5532 -0.7356
12086TIP3   OH257672   3.242   6.773   2.840  0.3978 -0.1447  0.5068
12086TIP3    H157673   3.154   6.737   2.847  0.2090  0.3587  0.7275
12086TIP3    H257674   3.297   6.714   2.891 -0.2183  0.9379  2.4976
12087TIP3   OH257675   6.411   0.207   3.276  0.0152 -0.2695  0.0920
12087TIP3    H157676   6.317   0.209   3.257 -0.0064 -1.4108  0.0226
12087TIP3    H257677   6.425   0.282   3.334 -1.0786 -0.5050  0.6949
12088TIP3   OH257678   0.191   3.372  14.563  0.2621  0.2109  0.0934
12088TIP3    H157679   0.103   3.407  14.550  0.8625  1.6919 -0.1314
12088TIP3    H257680   0.232   3.379  14.477  0.7923  0.0814  0.3350
12089TIP3   OH257681   6.750   6.295  12.487  0.2797  0.4095  0.1321
12089TIP3    H157682   6.716   6.233  12.423 -2.7328  1.5466  0.4273
12089TIP3    H257683   6.784   6.367  12.435 -0.9999  0.7642 -0.2678
12090TIP3   OH257684   3.503   6.225   4.521 -0.1696 -0.0119 -0.0575
12090TIP3    H157685   3.501   6.136   4.558  0.0365 -0.0861 -0.2259
12090TIP3    H257686   3.593   6.236   4.489 -0.1782  0.2787  0.0151
12091TIP3   OH257687   1.113   3.417   0.935  0.7204  0.0457 -0.8628
12091TIP3    H157688   1.167   3.353   0.889 -1.7867 -3.1982  0.3590
12091TIP3    H257689   1.123   3.396   1.027 -0.5074  1.1663 -0.4405
12092TIP3   OH257690   0.610   2.579   5.130 -0.0602 -0.0824 -0.6993
12092TIP3    H157691   0.621   2.670   5.156  0.5760 -0.4740  0.4894
12092TIP3    H257692   0.685   2.560   5.073 -0.5337  0.3034 -1.4602
12093TIP3   OH257693   5.406   1.259  10.843  0.1939  0.0241 -0.4868
12093TIP3    H157694   5.400   1.220  10.756 -1.4460 -0.5347 -0.1443
12093TIP3    H257695   5.339   1.327  10.844  1.8742  1.7857 -0.4793
12094TIP3   OH257696   4.079   6.272   0.010  0.7035 -0.2337  0.2784
12094TIP3    H157697   4.001   6.243   0.057  1.2093 -1.4265  0.4256
12094TIP3    H257698   4.147   6.277   0.078  2.1485 -4.5405 -0.5032
12095TIP3   OH257699   6.802   2.211  13.211  0.1368 -0.0645 -0.3792
12095TIP3    H157700   6.739   2.215  13.283  0.5199 -2.3066  0.1431
12095TIP3    H257701   6.784   2.128  13.168  1.4244  0.1862 -1.4616
12096TIP3   OH257702   3.292   1.089  17.024 -0.0791 -0.4405 -0.2763
12096TIP3    H157703   3.346   1.070  17.101 -0.2714 -0.4017 -0.1318
12096TIP3    H257704   3.232   1.158  17.053  0.4746  0.2533 -0.7293
12097TIP3   OH257705   3.913   0.867  12.071 -0.4941  0.3855  0.0034
12097TIP3    H157706   3.986   0.867  12.134  1.2973  1.7361 -1.9441
12097TIP3    H257707   3.872   0.781  12.082  0.7127  0.0037  1.9163
12098TIP3   OH257708   3.234   1.011  15.492 -0.2708  0.2387  0.2789
12098TIP3    H157709   3.181   0.956  15.550  0.2281 -0.4394  0.0950
12098TIP3    H257710   3.170   1.049  15.431 -0.5005 -1.0559 -0.3317
12099TIP3   OH257711   5.122   0.393   3.036 -0.0712  0.6821 -0.3373
12099TIP3    H157712   5.183   0.457   3.073 -0.4417 -0.1450  1.8268
12099TIP3    H257713   5.164   0.364   2.955  1.3506  1.7178 -0.0172
12100TIP3   OH257714   1.646   0.362  12.906 -0.4218 -0.0604 -0.4676
12100TIP3    H157715   1.671   0.333  12.994 -1.9422  0.5252  0.1937
12100TIP3    H257716   1.725   0.406  12.872 -0.4380  1.6346  1.4774
12101TIP3   OH257717   4.097   4.076   4.336  0.3894 -0.0078 -0.4262
12101TIP3    H157718   4.136   3.991   4.316  1.3450  0.1423  0.6985
12101TIP3    H257719   4.038   4.094   4.262  1.4983 -0.8282 -1.5410
12102TIP3   OH257720   3.309   2.708  16.747  0.5442  0.0977  0.0813
12102TIP3    H157721   3.363   2.787  16.760 -0.7394  1.2033 -0.9409
12102TIP3    H257722   3.252   2.705  16.823  1.5480 -0.6737  0.8198
12103TIP3   OH257723   4.423   4.908  11.112  0.4160 -0.0290 -0.8757
12103TIP3    H157724   4.395   4.882  11.024 -1.0230  0.1431 -0.4836
12103TIP3    H257725   4.378   4.848  11.171  3.0556 -1.6014 -0.2811
12104TIP3   OH257726   2.595   0.945  11.235  0.3904  0.1996 -0.5271
12104TIP3    H157727   2.666   0.879  11.232  0.8501  0.7331 -1.9081
12104TIP3    H257728   2.567   0.954  11.144 -3.5402 -2.1375  0.2221
12105TIP3   OH257729   1.892   4.360   0.098 -0.6014 -0.3119  0.1797
12105TIP3    H157730   1.835   4.435   0.082  1.2063  0.9254 -0.8221
12105TIP3    H257731   1.858   4.291   0.041 -0.0114  1.0083 -1.8778
12106TIP3   OH257732   2.968   3.514   0.101 -0.2983  0.7889  0.2921
12106TIP3    H157733   2.921   3.463   0.166  0.0684  1.0190  0.7428
12106TIP3    H257734   3.047   3.463   0.084 -1.0256  0.0375 -0.9972
12107TIP3   OH257735   0.680   4.055  15.035  0.1567 -0.0602  0.2412
12107TIP3    H157736   0.719   4.067  15.122  1.0860 -1.3351  0.0278
12107TIP3    H257737   0.625   3.978  15.044  0.3787 -0.2902 -0.3400
12108TIP3   OH257738   3.492   2.424  13.046  0.1778 -0.3058  0.1421
12108TIP3    H157739   3.582   2.412  13.017  0.5104 -1.3978  1.5682
12108TIP3    H257740   3.443   2.442  12.965  1.4469 -1.0127 -0.8014
12109TIP3   OH257741   5.965   2.239   0.071  0.5952 -0.2567 -0.0447
12109TIP3    H157742   6.042   2.294   0.089 -0.7991  1.2843  1.4711
12109TIP3    H257743   6.003   2.157   0.040  2.8414  0.6902 -0.0702
12110TIP3   OH257744   1.666   2.986   1.275  0.1822  0.1214 -0.4157
12110TIP3    H157745   1.613   2.914   1.311 -1.2117  0.5014 -1.6002
12110TIP3    H257746   1.710   2.947   1.199 -1.2239  0.6849 -1.5580
12111TIP3   OH257747   1.391   0.269  10.918  0.1160 -0.0325  0.2878
12111TIP3    H157748   1.434   0.350  10.943 -0.6371  0.7295 -0.7969
12111TIP3    H257749   1.438   0.239  10.841  1.0062 -1.1778  1.2256
12112TIP3   OH257750   6.527   0.083   5.605 -0.1487  1.2051 -0.6025
12112TIP3    H157751   6.491   0.065   5.518 -1.9005 -0.1555  0.3402
12112TIP3    H257752   6.593   0.015   5.618  0.6945  1.8944 -1.1491
12113TIP3   OH257753   5.046   1.009  11.117 -0.3056  0.1721 -0.5001
12113TIP3    H157754   5.136   0.977  11.103 -0.5468 -0.5994 -0.3442
12113TIP3    H257755   5.051   1.103  11.098  0.7804  0.3673  0.5982
12114TIP3   OH257756   6.516   2.871   2.154  0.3089  0.0885  0.1836
12114TIP3    H157757   6.596   2.826   2.127 -0.8849 -1.9340 -0.1328
12114TIP3    H257758   6.481   2.909   2.074 -0.8209 -2.0071 -0.3894
12115TIP3   OH257759   6.058   5.384  12.749 -0.3901  0.2954  0.3018
12115TIP3    H157760   6.125   5.410  12.685  1.1571  2.5340  2.6412
12115TIP3    H257761   6.109   5.354  12.825 -2.1513 -1.3904  0.8926
12116TIP3   OH257762   6.115   1.791   0.591 -0.0887 -0.2495  0.6829
12116TIP3    H157763   6.208   1.787   0.614 -0.0278 -0.3451  0.4293
12116TIP3    H257764   6.092   1.883   0.602  0.0072 -0.2474  0.8618
12117TIP3   OH257765   0.298   6.418   2.056 -0.1871  0.1200 -0.2346
12117TIP3    H157766   0.334   6.468   2.129 -0.9082  0.3461 -0.0262
12117TIP3    H257767   0.273   6.485   1.992  1.5395 -0.1256 -1.2242
12118TIP3   OH257768   1.287   0.089  14.428  0.2159  0.1035 -0.1754
12118TIP3    H157769   1.264   0.129  14.344 -0.3645 -0.9763 -0.5596
12118TIP3    H257770   1.213   0.107  14.485 -0.1447 -0.5888 -0.4153
12119TIP3   OH257771   6.751   5.430   5.833  0.7184  0.2150 -0.3356
12119TIP3    H157772   6.689   5.503   5.839 -1.2623 -1.3646 -0.4508
12119TIP3    H257773   6.770   5.407   5.924 -0.1239 -0.2577 -0.2641
12120TIP3   OH257774   2.256   1.826   0.051 -0.6664 -0.0502  0.3169
12120TIP3    H157775   2.351   1.828   0.065 -0.8304 -1.5398  2.1027
12120TIP3    H257776   2.240   1.892  -0.016  1.5013  1.0699  0.8012
12121TIP3   OH257777   5.254   3.348  12.604 -0.2225 -0.4379 -0.0395
12121TIP3    H157778   5.323   3.348  12.538  0.3548  0.0890  0.5383
12121TIP3    H257779   5.285   3.286  12.671 -0.3062 -0.2017  0.2223
12122TIP3   OH257780   1.576   0.899   6.045  0.0438 -0.2743 -0.4034
12122TIP3    H157781   1.613   0.985   6.062 -0.9426  0.1908 -0.5636
12122TIP3    H257782   1.593   0.883   5.952 -1.5255  0.6351 -0.8760
12123TIP3   OH257783   1.324   3.753  11.696 -0.1946  0.0011 -0.3058
12123TIP3    H157784   1.413   3.742  11.663  0.3002 -0.8677  1.1994
12123TIP3    H257785   1.301   3.843  11.676  1.0378  0.2485 -0.6768
12124TIP3   OH257786   3.586   4.413  16.822 -0.3327  0.1030  0.2427
12124TIP3    H157787   3.558   4.467  16.748  0.3385 -0.0214 -0.1084
12124TIP3    H257788   3.588   4.324  16.788  0.7722  0.1479  0.1756
12125TIP3   OH257789   5.310   0.462  11.680 -0.1220  0.1671 -0.3175
12125TIP3    H157790   5.230   0.509  11.656 -0.1499  0.0334 -0.4878
12125TIP3    H257791   5.365   0.468  11.602  0.6440  1.5546  0.2999
12126TIP3   OH257792   2.669   2.098  14.707  0.1675 -0.0279  0.6564
12126TIP3    H157793   2.705   2.120  14.621 -1.4221 -1.3195 -0.4102
12126TIP3    H257794   2.657   2.182  14.750  0.0971  0.7385 -0.7780
12127TIP3   OH257795   2.693   6.081   2.285  0.2226  0.4865 -0.0102
12127TIP3    H157796   2.744   6.056   2.208 -0.3461 -1.9889  0.3219
12127TIP3    H257797   2.603   6.056   2.264  0.0206 -0.0051  1.3214
12128TIP3   OH257798   2.841   3.158  11.431 -0.1892 -0.1408 -0.1280
12128TIP3    H157799   2.893   3.081  11.450 -0.0930 -0.5211 -1.7575
12128TIP3    H257800   2.845   3.167  11.336 -2.2171  0.4244 -0.2209
12129TIP3   OH257801   2.965   6.329   1.843 -0.2418 -0.4696 -0.5629
12129TIP3    H157802   3.012   6.284   1.913  1.3356  0.0383 -1.2548
12129TIP3    H257803   3.019   6.317   1.765 -0.9568  0.6414 -1.2714
12130TIP3   OH257804   6.550   5.480  14.687 -0.7327  0.8426 -0.7217
12130TIP3    H157805   6.492   5.532  14.742 -0.1559  2.2341 -1.3615
12130TIP3    H257806   6.617   5.542  14.657  1.8983 -0.9171  1.0166
12131TIP3   OH257807   2.357   3.177   0.245 -0.5533 -0.0516 -0.2550
12131TIP3    H157808   2.445   3.205   0.271 -0.5605 -0.5894  0.3429
12131TIP3    H257809   2.308   3.259   0.238  0.2221  0.3489 -1.5197
12132TIP3   OH257810   5.509   1.873   2.310  0.1171 -0.4131  0.0767
12132TIP3    H157811   5.554   1.812   2.253  0.1145 -0.0455 -0.3231
12132TIP3    H257812   5.439   1.821   2.351 -0.2597 -0.5386 -0.7052
12133TIP3   OH257813   4.017   3.631  15.631  0.0633  0.4355 -0.1261
12133TIP3    H157814   4.097   3.658  15.585 -0.3587 -0.2395 -1.2938
12133TIP3    H257815   3.983   3.559  15.579  0.1093 -1.0813  1.8190
12134TIP3   OH257816   6.510   2.800   4.872 -0.3844  0.0480 -0.2093
12134TIP3    H157817   6.427   2.761   4.844 -1.4526  2.4264 -0.6164
12134TIP3    H257818   6.514   2.784   4.966 -0.4092 -1.5817 -0.4519
12135TIP3   OH257819   2.986   1.047   3.394  0.3305 -0.1737  0.2274
12135TIP3    H157820   2.952   1.036   3.483 -1.1830  3.6092  0.2735
12135TIP3    H257821   2.994   0.957   3.361 -1.5675 -1.6214  3.2399
12136TIP3   OH257822   6.713   1.734  14.632 -0.3258  0.4267 -0.5425
12136TIP3    H157823   6.790   1.681  14.615 -0.4014 -0.2079  0.9553
12136TIP3    H257824   6.739   1.823  14.608  0.2830 -0.0273 -1.6675
12137TIP3   OH257825   3.577   3.466  12.561 -0.4887  0.0436 -0.1371
12137TIP3    H157826   3.650   3.473  12.499  0.4075  0.2997  0.9185
12137TIP3    H257827   3.506   3.515  12.519  0.1031  0.2215 -0.9612
12138TIP3   OH257828   3.757   3.096   3.208 -0.8141 -0.9499  0.3967
12138TIP3    H157829   3.710   3.013   3.215 -0.5622 -1.1680 -0.3788
12138TIP3    H257830   3.689   3.163   3.217 -1.4733 -1.2590 -1.8087
12139TIP3   OH257831   2.412   3.632   0.924 -0.1759  0.1999 -0.1119
12139TIP3    H157832   2.428   3.626   0.830 -0.1469 -0.2023 -0.0827
12139TIP3    H257833   2.337   3.574   0.940 -0.6228  0.7980  0.0075
12140TIP3   OH257834   3.168   5.024  13.181  0.3346  0.2989  0.0977
12140TIP3    H157835   3.260   5.050  13.171  1.1783 -2.5444 -0.4192
12140TIP3    H257836   3.140   5.064  13.263  1.8412  1.6889 -0.0204
12141TIP3   OH257837   1.831   5.490   5.094  0.2212  0.7144  0.0379
12141TIP3    H157838   1.844   5.579   5.128  2.9196  0.2306  0.5172
12141TIP3    H257839   1.766   5.501   5.024 -0.2544  2.8872  0.7257
12142TIP3   OH257840   4.142   4.506  12.527 -0.3039  0.1766  0.5051
12142TIP3    H157841   4.090   4.477  12.602  0.7531  0.2846  1.3110
12142TIP3    H257842   4.228   4.464  12.539  0.6628  2.0635  0.6890
12143TIP3   OH257843   3.751   0.762   0.337  0.2382 -0.1454 -0.6337
12143TIP3    H157844   3.750   0.851   0.371 -1.6164  0.4274 -2.0219
12143TIP3    H257845   3.723   0.708   0.411  1.6236  0.3618  0.2936
12144TIP3   OH257846   4.091   0.394  13.493 -0.0578  0.1344  0.0982
12144TIP3    H157847   4.085   0.301  13.514 -0.1340 -0.0718 -0.7915
12144TIP3    H257848   4.002   0.427  13.504  0.0820  0.2256  0.9644
12145TIP3   OH257849   4.685   0.258  13.572  0.0818 -0.2673 -0.6258
12145TIP3    H157850   4.764   0.210  13.549  0.2391  0.4367 -1.6106
12145TIP3    H257851   4.638   0.268  13.490 -0.1955  0.8051 -0.3481
12146TIP3   OH257852   2.694   4.631  12.641 -0.5955  0.1097 -0.4951
12146TIP3    H157853   2.644   4.710  12.662  0.5005  0.7496 -0.2310
12146TIP3    H257854   2.710   4.636  12.547 -1.1619 -0.1897 -0.6144
12147TIP3   OH257855   6.536   0.119  16.167 -0.1300  0.0012  0.3604
12147TIP3    H157856   6.536   0.026  16.141  0.2059  0.2091 -0.3992
12147TIP3    H257857   6.620   0.152  16.137  0.3612  0.2244  1.8733
12148TIP3   OH257858   3.785   6.370  14.516  0.4134  0.9472 -0.5359
12148TIP3    H157859   3.818   6.356  14.428  2.2324  2.2665 -0.1337
12148TIP3    H257860   3.765   6.283  14.550  0.3422  0.3812 -1.9831
12149TIP3   OH257861   2.815   0.259  16.593  0.0544 -0.0237 -0.2280
12149TIP3    H157862   2.743   0.311  16.628 -0.2045  0.9043 -2.0166
12149TIP3    H257863   2.773   0.195  16.535  0.6396  0.9664 -1.8306
12150TIP3   OH257864   2.880   0.032  15.784 -0.6072  0.3701 -0.6001
12150TIP3    H157865   2.960  -0.004  15.746 -0.9241 -0.6995 -0.2693
12150TIP3    H257866   2.810  -0.027  15.758 -0.9278 -0.0763  1.1004
12151TIP3   OH257867   3.473   6.456   1.564 -0.6844 -0.7165  0.0159
12151TIP3    H157868   3.484   6.435   1.657  1.5476 -0.7861 -0.1932
12151TIP3    H257869   3.522   6.387   1.519 -0.1813  0.3305 -1.0977
12152TIP3   OH257870   3.063   0.498  15.578  0.5913  0.3222 -0.1025
12152TIP3    H157871   3.096   0.425  15.630  2.8756  1.7386  0.5594
12152TIP3    H257872   3.085   0.475  15.488 -1.3245 -1.0743 -0.2814
12153TIP3   OH257873   2.086   2.295  11.521 -0.1386 -0.2844  0.4229
12153TIP3    H157874   2.054   2.365  11.578  0.0530  1.2571 -1.2698
12153TIP3    H257875   2.061   2.322  11.433  3.1741 -0.4239 -0.7225
12154TIP3   OH257876   6.759   2.850  11.451 -0.1742  0.3165 -0.4807
12154TIP3    H157877   6.784   2.939  11.474  1.7785 -0.2488 -0.2333
12154TIP3    H257878   6.794   2.837  11.363  3.4486 -1.5240  1.0335
12155TIP3   OH257879   4.955   2.317   6.632 -0.5025  0.1614  0.4468
12155TIP3    H157880   4.984   2.365   6.555 -1.5372 -1.3718 -0.9629
12155TIP3    H257881   4.861   2.307   6.621 -0.4466 -1.4290  1.0954
12156TIP3   OH257882   5.554   4.968  11.934  0.1077  0.4735  0.3283
12156TIP3    H157883   5.478   4.988  11.880 -0.0524  0.7340  0.6462
12156TIP3    H257884   5.626   4.956  11.872 -0.2414 -0.0062  0.0125
12157TIP3   OH257885   4.794   6.346  11.068 -0.4447 -0.5717  0.3116
12157TIP3    H157886   4.754   6.261  11.047  0.0906 -0.5698 -0.8291
12157TIP3    H257887   4.720   6.402  11.092 -1.3382 -0.3225 -2.5895
12158TIP3   OH257888   0.585   5.719   2.043  0.2680 -0.4575 -0.2140
12158TIP3    H157889   0.571   5.638   2.092 -2.0791 -0.1110 -0.2131
12158TIP3    H257890   0.499   5.760   2.038  1.0535  1.1587 -1.8000
12159TIP3   OH257891   5.536   0.264   5.186  0.7567 -0.1625 -0.2483
12159TIP3    H157892   5.485   0.204   5.240  0.5174  1.7853  1.8250
12159TIP3    H257893   5.623   0.223   5.181  0.3846 -1.0807  0.4055
12160TIP3   OH257894   0.110   1.253  13.581 -0.7263 -0.2469  0.0169
12160TIP3    H157895   0.054   1.222  13.651 -3.0169 -0.7087 -1.8946
12160TIP3    H257896   0.113   1.181  13.518 -0.4852  0.8793 -1.3227
12161TIP3   OH257897   3.457   3.447   5.489 -0.0789  0.4268 -0.1816
12161TIP3    H157898   3.515   3.399   5.430 -1.0400 -1.9040  0.6387
12161TIP3    H257899   3.395   3.381   5.520 -0.7741  1.9837  1.9670
12162TIP3   OH257900   0.477   0.823  17.188  0.2127  0.0157 -0.2667
12162TIP3    H157901   0.530   0.793  17.114  0.3546 -0.8416  0.1669
12162TIP3    H257902   0.496   0.760  17.258  0.3788  1.0242  0.6279
12163TIP3   OH257903   5.155   3.830   5.977 -0.2934 -0.1893  0.0132
12163TIP3    H157904   5.063   3.822   5.953 -0.2025  0.2265 -0.4890
12163TIP3    H257905   5.163   3.917   6.015 -0.4453 -0.8558  1.6345
12164TIP3   OH257906   2.557   1.868   0.789 -0.0827 -0.3739 -0.2592
12164TIP3    H157907   2.539   1.925   0.713 -0.0319 -0.4764 -0.3486
12164TIP3    H257908   2.643   1.830   0.770 -0.2396 -0.6915 -0.3268
12165TIP3   OH257909   3.762   4.324  16.573 -0.0868 -0.1494  0.1162
12165TIP3    H157910   3.767   4.280  16.489  1.5438 -0.1930  0.2026
12165TIP3    H257911   3.853   4.327  16.604 -0.3122  2.0951  0.7104
12166TIP3   OH257912   6.681   2.268   2.352  0.0135  0.0198 -0.3771
12166TIP3    H157913   6.602   2.312   2.321  0.7578  0.6960 -1.3603
12166TIP3    H257914   6.667   2.176   2.331  0.0290  0.3155 -1.7932
12167TIP3   OH257915   6.076   0.604  15.890 -0.1326 -0.2218  0.3112
12167TIP3    H157916   6.067   0.572  15.801 -1.7207 -0.1938  0.4440
12167TIP3    H257917   6.024   0.544  15.943 -2.0696  1.6937  0.7471
12168TIP3   OH257918   1.682   2.926  16.252 -0.4701 -0.1219  0.3497
12168TIP3    H157919   1.776   2.932  16.235 -0.4686 -0.8179  0.0837
12168TIP3    H257920   1.644   2.902  16.168 -0.8348 -0.2424  0.5490
12169TIP3   OH257921   3.798   0.514  11.889  0.2360 -0.3343  0.3187
12169TIP3    H157922   3.713   0.548  11.861  0.0487 -0.2749  0.9506
12169TIP3    H257923   3.784   0.419  11.898  0.7941 -0.6456 -1.5809
12170TIP3   OH257924   1.068   4.177  13.321 -0.5800  0.1642  0.7555
12170TIP3    H157925   1.150   4.207  13.280  0.4044 -0.0314  2.4829
12170TIP3    H257926   1.034   4.111  13.260 -0.1216  1.1288 -0.5954
12171TIP3   OH257927   5.763   2.260   3.846 -0.3506  0.8599 -0.2058
12171TIP3    H157928   5.831   2.295   3.789 -0.2919 -0.3347 -0.9145
12171TIP3    H257929   5.805   2.185   3.889 -2.1260 -2.2267 -3.3638
12172TIP3   OH257930   0.823   4.512   2.433 -0.2012 -0.2108  0.1115
12172TIP3    H157931   0.918   4.518   2.424 -0.0016  0.2752  2.0479
12172TIP3    H257932   0.810   4.467   2.517 -1.6576  0.9202  0.5457
12173TIP3   OH257933   2.718   0.723  15.255  0.0260 -0.0664 -0.1507
12173TIP3    H157934   2.804   0.733  15.213 -0.0217  2.4523  0.1917
12173TIP3    H257935   2.665   0.677  15.190  0.5028  1.9956 -2.1533
12174TIP3   OH257936   5.324   2.769  15.507 -0.0546  0.2297  0.2573
12174TIP3    H157937   5.405   2.810  15.478  0.7266 -1.2413  0.2537
12174TIP3    H257938   5.345   2.676  15.512 -1.5484 -0.0997  0.9410
12175TIP3   OH257939   5.733   3.268  16.602 -0.4209 -0.5970 -0.0783
12175TIP3    H157940   5.725   3.308  16.515  0.1861 -0.4645 -0.0704
12175TIP3    H257941   5.680   3.188  16.596 -0.7736 -0.3418 -0.4174
12176TIP3   OH257942   0.174   6.264   0.719 -0.2828  0.1490  0.0470
12176TIP3    H157943   0.154   6.316   0.798  0.0538  0.2865  0.0451
12176TIP3    H257944   0.242   6.315   0.674 -1.2756  0.6504 -0.9208
12177TIP3   OH257945   5.704   2.684   1.884 -0.5245 -0.7555 -0.0672
12177TIP3    H157946   5.696   2.589   1.885 -2.7025 -0.6414 -0.1306
12177TIP3    H257947   5.717   2.709   1.975  2.2802 -1.1752 -0.2701
12178TIP3   OH257948   5.064   1.852   5.993 -0.3832 -0.3146 -0.2118
12178TIP3    H157949   5.081   1.792   6.065 -1.2236 -0.2502  0.0453
12178TIP3    H257950   4.972   1.876   6.002 -0.1097  0.8885 -0.4058
12179TIP3   OH257951   1.613   5.746  12.226  0.2106 -0.0604  0.3615
12179TIP3    H157952   1.633   5.825  12.276 -0.2086  0.8692 -0.8924
12179TIP3    H257953   1.537   5.708  12.270 -0.8311  1.3298 -0.1560
12180TIP3   OH257954   5.478   4.588   4.141  0.5629  0.0030  0.1431
12180TIP3    H157955   5.555   4.624   4.185  0.0564  1.4552 -0.1204
12180TIP3    H257956   5.507   4.570   4.052 -0.2372  4.0841 -1.1510
12181TIP3   OH257957   3.869   4.676   3.560  0.7455  0.1702  0.1988
12181TIP3    H157958   3.816   4.604   3.526  2.2117 -0.7910 -0.1520
12181TIP3    H257959   3.862   4.744   3.494 -1.1889  0.6579  0.8418
12182TIP3   OH257960   5.554   2.328   0.537 -0.3916  0.2867 -0.2120
12182TIP3    H157961   5.585   2.257   0.593  1.2439  2.7223  2.1908
12182TIP3    H257962   5.599   2.313   0.453  1.3162 -0.5643  0.8079
12183TIP3   OH257963   0.007   3.550   0.278 -0.0042  0.1257  0.3642
12183TIP3    H157964  -0.065   3.497   0.244  1.9381 -1.9531 -0.8314
12183TIP3    H257965   0.004   3.630   0.226 -2.0566  0.5753  1.0905
12184TIP3   OH257966   2.031   5.491  15.470 -0.0325  0.1796  0.1732
12184TIP3    H157967   2.101   5.429  15.452  0.2866  0.9108 -1.2316
12184TIP3    H257968   2.045   5.517  15.561  0.5456 -0.8917  0.4068
12185TIP3   OH257969   0.468   1.082   1.572 -0.5268 -0.2624  0.3808
12185TIP3    H157970   0.471   0.987   1.573 -1.7214 -0.3291  0.2065
12185TIP3    H257971   0.496   1.106   1.484 -0.3792 -0.4660  0.3721
12186TIP3   OH257972   3.704   1.564   4.365 -0.2753  0.0412  0.4650
12186TIP3    H157973   3.723   1.648   4.407 -2.6142  1.2884 -0.7843
12186TIP3    H257974   3.742   1.571   4.277 -0.8396 -0.0386  0.2101
12187TIP3   OH257975   5.628   2.446   1.991  0.1087 -0.8163 -0.0054
12187TIP3    H157976   5.694   2.426   1.925  0.7232 -1.1298  0.6926
12187TIP3    H257977   5.605   2.361   2.029 -2.1166 -0.9903 -1.5308
12188TIP3   OH257978   3.361   2.965   1.555 -0.3091 -0.0528 -0.3359
12188TIP3    H157979   3.331   2.876   1.571  0.9838 -0.1623  1.9478
12188TIP3    H257980   3.454   2.956   1.534  0.0065  0.7540  0.5923
12189TIP3   OH257981   0.497   1.915   2.825 -0.3187  0.5416 -0.2959
12189TIP3    H157982   0.586   1.889   2.800  0.8515  3.7916  0.0156
12189TIP3    H257983   0.466   1.967   2.752 -0.6124  2.1742  0.9386
12190TIP3   OH257984   5.688   2.935  14.094 -0.8125  0.3840 -0.5901
12190TIP3    H157985   5.682   2.860  14.035 -1.1783  0.3319 -0.4918
12190TIP3    H257986   5.605   2.981  14.082 -0.7015  0.6235 -0.4501
12191TIP3   OH257987   3.883   2.727  14.022  0.1106  0.0518  0.3440
12191TIP3    H157988   3.900   2.635  14.000 -0.0202  0.1892 -0.3684
12191TIP3    H257989   3.847   2.724  14.111 -0.4811 -0.6464  0.0956
12192TIP3   OH257990   3.617   3.202   5.853 -0.0907 -0.9457  0.0414
12192TIP3    H157991   3.576   3.174   5.771  0.4409 -2.3974  0.2361
12192TIP3    H257992   3.697   3.150   5.858  0.7708  0.4038  0.6399
12193TIP3   OH257993   5.888   0.898   5.919  0.1906  0.4165  0.2129
12193TIP3    H157994   5.922   0.966   5.977  0.8368 -0.0101  0.3469
12193TIP3    H257995   5.933   0.913   5.836  1.2030 -0.5291  0.5667
12194TIP3   OH257996   6.525   2.896  15.235 -0.4792  0.0878  0.4439
12194TIP3    H157997   6.516   2.948  15.314 -0.2006  0.0498  0.4995
12194TIP3    H257998   6.494   2.953  15.165 -0.9571  0.0351  0.6074
12195TIP3   OH257999   6.731   5.587   0.222 -0.6982  0.0265  0.0564
12195TIP3    H158000   6.748   5.493   0.213 -1.0403 -0.1157  0.8370
12195TIP3    H258001   6.652   5.601   0.170 -1.1865 -0.3029  0.6943
12196TIP3   OH258002   3.219   0.272  14.906  0.1580  0.2534  0.2158
12196TIP3    H158003   3.291   0.212  14.923 -0.6070 -0.7427  0.0001
12196TIP3    H258004   3.171   0.233  14.833 -1.3575  0.2171  1.1834
12197TIP3   OH258005   1.113   4.286   1.106 -0.2337 -0.2825 -0.1168
12197TIP3    H158006   1.160   4.210   1.072 -0.9736 -0.1534 -1.4708
12197TIP3    H258007   1.090   4.337   1.029 -1.1319  0.5213  0.6552
12198TIP3   OH258008   3.718   1.992  12.100  0.0493  0.8896  0.0139
12198TIP3    H158009   3.648   1.986  12.164 -0.4142 -1.3253 -0.6322
12198TIP3    H258010   3.690   1.936  12.028  2.6636 -0.4096 -0.1014
12199TIP3   OH258011   1.568   6.161   4.723  0.2177  0.4702  0.0479
12199TIP3    H158012   1.649   6.211   4.714  0.0387  0.6415 -0.6714
12199TIP3    H258013   1.563   6.109   4.642 -0.2317  0.2285  0.2280
12200TIP3   OH258014   3.461   4.457   4.785 -0.3158 -0.8645 -0.1708
12200TIP3    H158015   3.503   4.417   4.708  1.4876 -0.0697  0.3303
12200TIP3    H258016   3.534   4.473   4.845 -1.1517  1.7675  0.2690
12201TIP3   OH258017   4.405   6.593  14.333  0.4633  0.3813 -0.3906
12201TIP3    H158018   4.325   6.568  14.287 -0.2063  0.4726  0.6882
12201TIP3    H258019   4.390   6.684  14.359 -0.9240 -0.6939  3.3856
12202TIP3   OH258020   6.547   5.502  17.002  0.3371 -0.7070 -0.1004
12202TIP3    H158021   6.534   5.499  17.097  2.4872 -0.0782  0.2913
12202TIP3    H258022   6.521   5.590  16.977  1.9385 -0.0647  0.3565
12203TIP3   OH258023   3.983   6.340  13.316  0.0464 -0.6359  0.1338
12203TIP3    H158024   3.895   6.362  13.345  0.1264 -0.0749 -0.0415
12203TIP3    H258025   4.040   6.372  13.387  0.1134 -0.9588  0.2282
12204TIP3   OH258026   4.985   2.132   3.687  0.4315  0.1399  0.1248
12204TIP3    H158027   4.943   2.062   3.637  1.7566 -1.0734  0.6428
12204TIP3    H258028   5.025   2.189   3.621  1.0087 -0.6982 -0.2695
12205TIP3   OH258029   6.400   1.464  14.571  0.8100 -0.4094 -0.0675
12205TIP3    H158030   6.360   1.452  14.485  0.3923  0.2946  0.0218
12205TIP3    H258031   6.445   1.549  14.564  0.7891 -0.3591  0.4003
12206TIP3   OH258032   2.155   6.061  13.573 -0.2851  0.3209  1.1738
12206TIP3    H158033   2.215   6.133  13.594  0.4379 -0.3541  1.4461
12206TIP3    H258034   2.211   5.992  13.538 -1.3614  1.3348 -3.1521
12207TIP3   OH258035   5.410   4.790  15.082  0.3060  0.3902  0.3370
12207TIP3    H158036   5.430   4.797  15.175  2.8339  2.4361 -0.2114
12207TIP3    H258037   5.382   4.878  15.057 -1.3932 -0.3869 -0.6859
12208TIP3   OH258038   1.209   0.067  11.995 -0.4102  0.5447  0.7708
12208TIP3    H158039   1.182   0.119  11.919 -0.7579 -1.1554 -0.3289
12208TIP3    H258040   1.133   0.013  12.016  0.6616 -1.2449  0.3122
12209TIP3   OH258041   3.092   1.540   2.470  0.3818  0.4328 -0.2705
12209TIP3    H158042   3.166   1.573   2.522 -0.3291 -0.1621  1.1803
12209TIP3    H258043   3.016   1.554   2.527 -0.4746  0.0178 -1.2920
12210TIP3   OH258044   5.647   3.485  12.579  0.3159  0.0185 -0.2080
12210TIP3    H158045   5.706   3.435  12.522  0.0786  1.6613 -1.9946
12210TIP3    H258046   5.591   3.534  12.519  0.3793  2.2609  1.4377
12211TIP3   OH258047   4.861   0.876   2.082  0.0014 -0.4465  0.0260
12211TIP3    H158048   4.802   0.901   2.153  0.3135 -2.8020  1.1935
12211TIP3    H258049   4.948   0.898   2.114 -0.0338  1.5792 -1.0696
12212TIP3   OH258050   1.702   4.185   0.571 -0.4046 -0.4591 -0.1690
12212TIP3    H158051   1.691   4.172   0.477 -0.3857 -0.0511 -0.2288
12212TIP3    H258052   1.675   4.275   0.586 -1.9127 -0.9780  0.4660
12213TIP3   OH258053   4.323   3.788   5.489 -0.2959 -0.1025 -0.7271
12213TIP3    H158054   4.245   3.834   5.521 -0.5181 -1.9051  1.6628
12213TIP3    H258055   4.395   3.849   5.504 -0.9363  0.6115 -0.4912
12214TIP3   OH258056   2.896   2.180  13.246 -0.0110  0.6279  0.3445
12214TIP3    H158057   2.918   2.181  13.153 -0.3160  0.5426  0.2711
12214TIP3    H258058   2.884   2.273  13.268  0.2565  0.6634  0.3484
12215TIP3   OH258059   5.235   1.809  15.885 -0.1381 -1.0130 -0.1058
12215TIP3    H158060   5.314   1.863  15.889 -0.4246 -0.6309  0.7793
12215TIP3    H258061   5.265   1.724  15.854  0.6494 -0.9260  0.3921
12216TIP3   OH258062   0.991   0.086   2.549  0.2534 -0.2853  0.2361
12216TIP3    H158063   1.069   0.030   2.547  0.2792 -0.2429 -1.2102
12216TIP3    H258064   0.975   0.108   2.457 -1.7830 -0.7282  0.4364
12217TIP3   OH258065   6.166   6.620  16.642 -0.4889 -0.9690  0.0782
12217TIP3    H158066   6.168   6.672  16.722 -2.4470  0.2001 -0.5443
12217TIP3    H258067   6.154   6.530  16.672  1.2146 -0.8815  1.1321
12218TIP3   OH258068   5.523   3.599  10.573  0.2735 -0.1466  0.4624
12218TIP3    H158069   5.533   3.693  10.592 -0.8937 -0.1210  1.0206
12218TIP3    H258070   5.542   3.591  10.480 -0.5622  0.8070  0.1902
12219TIP3   OH258071   6.711   2.444  12.005  0.4674 -0.5538  0.3894
12219TIP3    H158072   6.740   2.503  12.075 -0.6213 -1.1824  1.3946
12219TIP3    H258073   6.636   2.489  11.966  2.2754  0.7737 -1.7954
12220TIP3   OH258074   5.245   1.941  11.201  1.0167  0.2389  0.1466
12220TIP3    H158075   5.221   1.863  11.151 -0.6104  0.4544  0.5493
12220TIP3    H258076   5.312   1.984  11.148 -0.4344  0.2940 -1.7357
12221TIP3   OH258077   0.196   5.650   2.269  0.2151  0.3172  0.2846
12221TIP3    H158078   0.104   5.646   2.240  0.3401  1.0768 -0.2572
12221TIP3    H258079   0.202   5.585   2.339 -0.5774 -0.2049 -0.1154
12222TIP3   OH258080   0.499   0.191  15.472  0.0773  0.0918 -0.0782
12222TIP3    H158081   0.560   0.131  15.431  1.7000  1.9379 -0.4747
12222TIP3    H258082   0.513   0.275  15.429 -3.5717  0.4201 -1.0254
12223TIP3   OH258083   3.671   4.737   0.198  0.1723  0.3225  0.4638
12223TIP3    H158084   3.755   4.748   0.155  1.2757 -0.1288  2.4060
12223TIP3    H258085   3.689   4.754   0.291 -1.5698 -1.1820  1.1331
12224TIP3   OH258086   0.567   5.736   2.417 -0.8933  0.2106 -0.2754
12224TIP3    H158087   0.475   5.759   2.403 -0.8798 -0.3694 -1.4919
12224TIP3    H258088   0.564   5.647   2.452 -0.7887 -0.0062 -0.8099
12225TIP3   OH258089   5.937   3.590  14.579  0.0445 -0.9185  0.5458
12225TIP3    H158090   6.015   3.541  14.554  0.6638  0.2087  0.1830
12225TIP3    H258091   5.864   3.530  14.563  0.6614 -1.2481 -1.1668
12226TIP3   OH258092   3.862   2.383   5.467 -0.7059 -0.2597  0.4033
12226TIP3    H158093   3.800   2.404   5.397 -1.2474 -0.0144  0.9480
12226TIP3    H258094   3.924   2.456   5.466  0.3738 -1.1611 -1.0196
12227TIP3   OH258095   1.942   3.098  15.727  0.3751 -0.5735  0.3417
12227TIP3    H158096   1.957   3.028  15.790 -1.4861  1.4100  3.2651
12227TIP3    H258097   1.848   3.094  15.708  0.4875  0.3143 -0.5133
12228TIP3   OH258098   4.035   0.037  14.749 -0.1965  0.0930  0.0268
12228TIP3    H158099   4.056  -0.032  14.811 -0.0757  0.8965  0.8961
12228TIP3    H258100   3.944   0.060  14.768  0.1181  0.9708  0.5513
12229TIP3   OH258101   5.406   0.744  15.655  0.0562  0.4139 -0.3551
12229TIP3    H158102   5.494   0.717  15.682 -1.4816 -2.6607  2.2596
12229TIP3    H258103   5.385   0.818  15.712  1.7202  2.9976 -2.7949
12230TIP3   OH258104   5.799   4.334  12.041  0.1719 -0.1331 -0.2924
12230TIP3    H158105   5.776   4.354  11.950 -0.4468  0.7681  0.0455
12230TIP3    H258106   5.723   4.288  12.076 -1.2291  2.7502  0.7912
12231TIP3   OH258107   6.489   2.684   4.216 -0.6271  0.0245  0.2712
12231TIP3    H158108   6.508   2.660   4.126  0.1777  1.8580 -0.0872
12231TIP3    H258109   6.394   2.671   4.225 -0.5007 -1.5360 -0.3764
12232TIP3   OH258110   5.568   2.790  12.863 -0.7936  0.6095  0.4244
12232TIP3    H158111   5.522   2.721  12.911  0.2992 -0.6156 -0.2451
12232TIP3    H258112   5.566   2.866  12.923 -2.2517  0.1182  1.0577
12233TIP3   OH258113   6.675   3.763   1.914  0.1192  0.2187 -0.0896
12233TIP3    H158114   6.639   3.794   1.997  1.4346  0.7466  0.3089
12233TIP3    H258115   6.749   3.821   1.897  0.4537 -0.4919 -1.1452
12234TIP3   OH258116   1.731   0.569   0.760 -0.0116 -0.2718  0.6537
12234TIP3    H158117   1.811   0.518   0.768 -0.6027 -1.1821  1.0181
12234TIP3    H258118   1.663   0.513   0.799 -0.7497  0.6433  0.7235
12235TIP3   OH258119   4.238   0.215   5.703 -0.4253 -0.2096 -0.3499
12235TIP3    H158120   4.332   0.200   5.695 -0.4496 -0.1522 -0.7652
12235TIP3    H258121   4.198   0.130   5.686 -0.3729 -0.7240  1.8379
12236TIP3   OH258122   1.703   1.494  10.887 -0.2658 -0.4179 -0.3930
12236TIP3    H158123   1.668   1.581  10.864 -0.7293  0.2999  2.5560
12236TIP3    H258124   1.655   1.433  10.830 -1.7358  1.0765 -0.8495
12237TIP3   OH258125   2.823   6.714  12.683 -0.4516  0.4206  0.0561
12237TIP3    H158126   2.844   6.621  12.675 -0.1046  0.4268  0.8135
12237TIP3    H258127   2.735   6.722  12.646 -0.1508 -0.0581 -0.7786
12238TIP3   OH258128   0.437   2.905   6.492 -0.0381 -0.3752  0.6438
12238TIP3    H158129   0.443   2.983   6.437  2.4144 -0.3182  0.8640
12238TIP3    H258130   0.355   2.916   6.541 -1.1939  0.6094 -1.3781
12239TIP3   OH258131   6.465   0.439   2.786 -0.2527 -0.4995 -0.8659
12239TIP3    H158132   6.479   0.385   2.864  1.8059  2.1397  0.7888
12239TIP3    H258133   6.553   0.465   2.759 -1.1059  1.8183 -1.6351
12240TIP3   OH258134   0.515   0.943   0.314 -0.1817 -0.3222 -0.3284
12240TIP3    H158135   0.534   1.019   0.259 -1.5794  0.0661 -0.3082
12240TIP3    H258136   0.420   0.936   0.313 -0.2507 -0.3962  1.9134
12241TIP3   OH258137   2.294   5.915  12.653  0.0083  0.1032 -0.1509
12241TIP3    H158138   2.343   5.833  12.652  1.0337  0.7048  0.1860
12241TIP3    H258139   2.286   5.937  12.746  0.1058  0.5997 -0.2574
12242TIP3   OH258140   3.949   1.639  12.789  0.0444 -0.0887  0.6108
12242TIP3    H158141   4.028   1.668  12.743  0.2342  0.6896  1.3923
12242TIP3    H258142   3.915   1.567  12.737  2.1207 -1.4682  1.0777
12243TIP3   OH258143   1.704   1.682   6.275 -0.6902 -0.0750 -0.7316
12243TIP3    H158144   1.683   1.701   6.367 -0.7994 -0.5121 -0.6598
12243TIP3    H258145   1.798   1.668   6.274 -0.7922 -0.8218 -0.5393
12244TIP3   OH258146   6.340   4.700   1.837 -0.4951 -0.3077  0.2028
12244TIP3    H158147   6.266   4.702   1.897 -0.9150 -0.1631 -0.3107
12244TIP3    H258148   6.387   4.620   1.859 -1.4718 -1.0246 -0.2413
12245TIP3   OH258149   1.189   2.481  15.623 -0.0099 -0.0646  0.8017
12245TIP3    H158150   1.189   2.441  15.536  3.1168 -1.8010  1.4237
12245TIP3    H258151   1.109   2.450  15.664 -1.7854  1.1530 -1.5316
12246TIP3   OH258152   4.380   5.661  11.957 -0.3934  0.0394  0.3930
12246TIP3    H158153   4.383   5.750  11.990  0.1271  0.7836 -1.5186
12246TIP3    H258154   4.328   5.613  12.021 -0.7556  1.7237  1.4139
12247TIP3   OH258155   5.774   3.744   5.470 -0.0458  0.1259 -0.2131
12247TIP3    H158156   5.818   3.665   5.501 -1.3567 -0.6381 -0.2174
12247TIP3    H258157   5.788   3.743   5.375 -1.2826 -0.9217 -0.4104
12248TIP3   OH258158   6.261   1.803   0.846 -0.5065  0.1913 -0.0166
12248TIP3    H158159   6.232   1.886   0.809  1.1686  1.2544  0.8886
12248TIP3    H258160   6.357   1.808   0.842 -0.3783 -1.7681 -0.0680
12249TIP3   OH258161   2.145   2.969   1.938  0.4271  0.4703 -0.1796
12249TIP3    H158162   2.113   3.059   1.931 -0.4114  0.3323  1.4615
12249TIP3    H258163   2.188   2.952   1.854  0.4352  2.3280 -0.5877
12250TIP3   OH258164   1.897   1.117   4.819  0.0442 -0.0756  0.0282
12250TIP3    H158165   1.865   1.027   4.823 -1.9658  0.6180  0.5922
12250TIP3    H258166   1.831   1.168   4.864  0.6403  1.8449 -1.1528
12251TIP3   OH258167   1.362   1.980  15.311  0.3912  0.2883 -0.3179
12251TIP3    H158168   1.320   1.901  15.344  1.2656 -0.9305 -2.0118
12251TIP3    H258169   1.314   2.002  15.231  2.0696 -0.3663 -1.5594
12252TIP3   OH258170   1.351   3.107  13.653  0.1337  0.0902 -0.4043
12252TIP3    H158171   1.333   3.185  13.601 -0.7184  0.3760  0.2958
12252TIP3    H258172   1.264   3.075  13.678  0.4970 -0.7267 -0.1674
12253TIP3   OH258173   3.425   5.943   3.622 -0.0846  0.2601  0.1026
12253TIP3    H158174   3.425   5.875   3.555  0.5783 -1.7632  2.0533
12253TIP3    H258175   3.507   5.990   3.608  0.0533 -0.1312 -0.4706
12254TIP3   OH258176   0.044   6.287   3.315  0.2582  0.3608 -0.3941
12254TIP3    H158177  -0.042   6.250   3.338  0.8110  0.2279  1.7361
12254TIP3    H258178   0.041   6.377   3.350  1.5559 -0.2129  1.3731
12255TIP3   OH258179   4.676   1.996  14.189  0.1696  0.1891 -0.3643
12255TIP3    H158180   4.731   1.946  14.249 -0.4668 -0.2981 -0.1768
12255TIP3    H258181   4.655   1.934  14.119 -0.2017  0.3439 -0.3926
12256TIP3   OH258182   4.601   3.696  11.807  0.2695 -0.9306  0.0133
12256TIP3    H158183   4.508   3.703  11.787  0.3505  0.9846  0.0552
12256TIP3    H258184   4.604   3.677  11.900 -0.1044  0.3884  0.3139
12257TIP3   OH258185   0.128   4.928  13.622 -0.0286 -0.6264  0.0945
12257TIP3    H158186   0.039   4.911  13.652  0.9612 -3.8051  1.6665
12257TIP3    H258187   0.178   4.942  13.703  0.6401  3.4863 -0.8219
12258TIP3   OH258188   1.688   5.856  11.788 -0.2445  0.1613 -0.2252
12258TIP3    H158189   1.698   5.947  11.817 -0.1982 -0.0498  0.4331
12258TIP3    H258190   1.738   5.805  11.851  0.9543 -0.2108 -1.4206
12259TIP3   OH258191   1.067   5.528  14.259 -0.2506 -0.5559 -0.0010
12259TIP3    H158192   1.141   5.549  14.315 -0.3097  1.2641 -0.5547
12259TIP3    H258193   0.998   5.499  14.320  0.4997 -1.0768  0.6124
12260TIP3   OH258194   5.587   5.929  10.910  0.2794  0.0503  0.8227
12260TIP3    H158195   5.650   5.871  10.867  0.9570  1.4531 -0.1876
12260TIP3    H258196   5.514   5.935  10.847  1.3282  2.2094 -0.3001
12261TIP3   OH258197   1.513   2.030  12.954  0.2472  0.2492  0.4612
12261TIP3    H158198   1.565   2.088  12.898 -0.9425 -0.1728 -1.1373
12261TIP3    H258199   1.443   1.998  12.898 -0.5800 -0.7887  2.0060
12262TIP3   OH258200   0.874   4.014   3.597 -0.3516 -0.0359 -0.2024
12262TIP3    H158201   0.915   3.964   3.526 -0.2362 -0.4440  0.1459
12262TIP3    H258202   0.781   3.994   3.589 -0.2142 -0.9850  0.4513
12263TIP3   OH258203   6.201   0.100   4.294 -0.3173 -0.6286 -0.4247
12263TIP3    H158204   6.231   0.010   4.291  1.4639 -0.0547 -1.2700
12263TIP3    H258205   6.265   0.149   4.242 -0.7526  1.2543  0.7058
12264TIP3   OH258206   4.743   6.743   5.490  0.0750  0.3424  0.2632
12264TIP3    H158207   4.651   6.770   5.498 -0.3779 -0.7944 -0.7571
12264TIP3    H258208   4.786   6.817   5.447 -0.1609  1.2238  1.4888
12265TIP3   OH258209   5.073   1.696   6.262 -0.3107 -0.6276  0.2712
12265TIP3    H158210   5.001   1.650   6.303 -0.9504  1.6767  1.9566
12265TIP3    H258211   5.151   1.667   6.310 -0.3239 -1.7278 -0.3310
12266TIP3   OH258212   5.917   5.801   1.685 -0.3729  0.3734 -0.3908
12266TIP3    H158213   5.873   5.817   1.768 -0.1836 -1.7229  0.1665
12266TIP3    H258214   5.850   5.765   1.627 -0.5029  1.8104 -1.1936
12267TIP3   OH258215   1.030   0.665   2.101  0.5648  0.0141  0.1343
12267TIP3    H158216   1.061   0.632   2.185  1.4646 -0.0134 -0.1970
12267TIP3    H258217   1.095   0.634   2.038  0.6411  1.1928 -0.3824
12268TIP3   OH258218   6.394   4.446  17.042  0.2843 -0.0202  0.0878
12268TIP3    H158219   6.372   4.375  17.103 -0.7477 -0.4070 -0.6953
12268TIP3    H258220   6.362   4.415  16.957 -2.5009  2.3864  0.0956
12269TIP3   OH258221   2.940   1.318   1.494 -0.1941  0.3161 -0.1646
12269TIP3    H158222   2.998   1.273   1.554  1.5272  2.4499 -0.0802
12269TIP3    H258223   2.875   1.360   1.550  1.1618  1.9594  0.2689
12270TIP3   OH258224   1.741   2.476  16.378 -0.2724 -0.3080 -0.2940
12270TIP3    H158225   1.793   2.455  16.456  1.4573 -2.6065 -1.9334
12270TIP3    H258226   1.793   2.543  16.333  0.4587 -1.3887 -1.0924
12271TIP3   OH258227   2.715   2.755   5.768  0.6278  0.2155 -0.4817
12271TIP3    H158228   2.679   2.698   5.836  0.3497  1.2334  0.2469
12271TIP3    H258229   2.668   2.838   5.779  0.2749  0.2752 -2.1883
12272TIP3   OH258230   0.853   0.642  17.035 -0.7490  0.2336 -0.2995
12272TIP3    H158231   0.904   0.579  16.985  1.7333  0.5797  1.5550
12272TIP3    H258232   0.891   0.727  17.012 -1.4530  0.6551  0.0727
12273TIP3   OH258233   3.266   4.109  12.140 -0.2992  0.9877 -0.4619
12273TIP3    H158234   3.320   4.146  12.070  1.6272  1.5895  1.2416
12273TIP3    H258235   3.227   4.184  12.184 -0.4180  0.7062 -0.0726
12274TIP3   OH258236   3.684   0.104   2.808  0.3652  0.2750  0.1355
12274TIP3    H158237   3.690   0.130   2.716 -1.3860  0.5601  0.0726
12274TIP3    H258238   3.728   0.175   2.855  0.5247  0.5595 -0.4279
12275TIP3   OH258239   4.262   5.455  15.236  0.7816  0.1028  0.0414
12275TIP3    H158240   4.349   5.463  15.197  0.7106 -0.7138 -0.2892
12275TIP3    H258241   4.268   5.379  15.293  0.4289  0.3613  0.4309
12276TIP3   OH258242   1.744   1.425  13.377 -0.1582  0.2357  0.0060
12276TIP3    H158243   1.714   1.354  13.434  0.1859  0.4451  0.4553
12276TIP3    H258244   1.833   1.400  13.351 -0.0234  0.5131  0.1921
12277TIP3   OH258245   1.373   2.839  15.809 -0.5973  0.1543 -0.3307
12277TIP3    H158246   1.292   2.814  15.855 -0.5878  1.3052  0.3404
12277TIP3    H258247   1.412   2.755  15.783 -2.8711 -0.4037 -2.2480
12278TIP3   OH258248   3.860   5.282   1.638 -0.2936 -0.4998  0.3218
12278TIP3    H158249   3.947   5.304   1.672 -0.3099  0.1143 -0.0147
12278TIP3    H258250   3.858   5.321   1.551 -0.5919 -1.2628 -0.0170
12279TIP3   OH258251   0.998   3.066   1.553 -0.2740 -0.2870  0.0082
12279TIP3    H158252   0.941   3.024   1.618 -0.9301 -0.0416 -0.3942
12279TIP3    H258253   0.971   3.028   1.470  1.0556 -1.1338 -0.0589
12280TIP3   OH258254   3.878   5.199  10.614  0.4036 -0.1684 -0.9771
12280TIP3    H158255   3.797   5.153  10.594  0.3136 -0.0717 -0.8327
12280TIP3    H258256   3.850   5.285  10.645  0.5283 -0.4989  0.0772
12281TIP3   OH258257   4.004   2.092  16.156  0.0850 -0.4690  0.3712
12281TIP3    H158258   3.931   2.151  16.140 -0.4810 -0.9603  1.0799
12281TIP3    H258259   4.026   2.104  16.248 -1.1455 -2.5383  0.9985
12282TIP3   OH258260   6.429   3.852   3.930 -0.0299 -0.1391  0.0650
12282TIP3    H158261   6.335   3.847   3.918 -0.2991  2.8957  0.1579
12282TIP3    H258262   6.441   3.874   4.023  0.7558 -0.2990  0.0142
12283TIP3   OH258263   6.742   2.874   1.947  0.3516 -0.2481  0.8494
12283TIP3    H158264   6.829   2.914   1.952 -0.5745  2.0105  0.1251
12283TIP3    H258265   6.689   2.938   1.898 -2.0349 -0.9860  2.3056
12284TIP3   OH258266   2.479   2.166   5.531  0.0675  0.0565  0.1708
12284TIP3    H158267   2.570   2.188   5.514 -0.0863  0.1496 -0.5549
12284TIP3    H258268   2.464   2.085   5.483 -0.5056  0.5712 -0.5426
12285TIP3   OH258269   4.411   5.291   1.570  0.4507 -0.7995  0.1583
12285TIP3    H158270   4.502   5.268   1.549  0.7282 -1.1234  1.6216
12285TIP3    H258271   4.387   5.231   1.640 -0.2384  0.5743  1.1388
12286TIP3   OH258272   4.676   6.415   2.451  0.1655 -0.0986  0.4892
12286TIP3    H158273   4.712   6.358   2.519  0.5645  1.3074  1.5191
12286TIP3    H258274   4.643   6.491   2.499 -1.6791 -0.1019 -0.7022
12287TIP3   OH258275   2.001   1.331  11.652 -0.1034  0.6560  0.1644
12287TIP3    H158276   2.072   1.379  11.609 -1.4612  0.8109 -2.0414
12287TIP3    H258277   2.019   1.239  11.633 -0.0891  0.6415  0.2492
12288TIP3   OH258278   1.817   1.652   3.870  0.4606  0.1999 -0.5447
12288TIP3    H158279   1.845   1.659   3.778  2.4687 -3.7891 -0.4716
12288TIP3    H258280   1.722   1.659   3.867  0.5505  1.3606 -2.7372
12289TIP3   OH258281   5.523   6.421  14.795 -1.0219 -0.5143  0.7279
12289TIP3    H158282   5.527   6.499  14.739  0.6879 -1.2266 -0.2232
12289TIP3    H258283   5.594   6.434  14.859 -1.2245 -0.9438  1.0403
12290TIP3   OH258284   1.075   5.264  12.566 -0.3929  0.0338  0.4882
12290TIP3    H158285   1.030   5.238  12.647 -0.4233  0.5870  0.6503
12290TIP3    H258286   1.096   5.356  12.579 -2.5313  0.8254 -1.1015
12291TIP3   OH258287   5.704   2.305   0.109 -0.2975 -0.0190  0.5412
12291TIP3    H158288   5.790   2.269   0.086  0.2809  1.1416  0.7954
12291TIP3    H258289   5.716   2.400   0.106 -1.7513  0.1671 -0.0299
12292TIP3   OH258290   4.972   4.722   2.244  0.4454 -0.8660  0.4202
12292TIP3    H158291   5.025   4.651   2.209  0.3983 -0.6566 -0.0836
12292TIP3    H258292   4.904   4.736   2.179  2.1285  1.5956 -0.9715
12293TIP3   OH258293   5.903   1.148  14.966  0.0230 -0.2352 -0.0752
12293TIP3    H158294   5.938   1.081  15.024 -0.0585  0.2544  0.5580
12293TIP3    H258295   5.977   1.206  14.949  0.6440 -1.5829 -2.2968
12294TIP3   OH258296   2.164   3.859   1.556 -0.2386 -0.3125 -0.1944
12294TIP3    H158297   2.149   3.913   1.478  0.6574 -1.0140 -0.8737
12294TIP3    H258298   2.078   3.824   1.577 -1.0849  2.2718  0.9719
12295TIP3   OH258299   1.786   1.709   3.330 -0.0083  0.0632 -0.0018
12295TIP3    H158300   1.779   1.787   3.275 -0.2551 -0.1593 -0.2846
12295TIP3    H258301   1.704   1.662   3.316 -0.5990  0.5982  1.4752
12296TIP3   OH258302   3.335   0.960  13.670  0.1227  0.3934 -0.0996
12296TIP3    H158303   3.420   0.942  13.632 -0.2487  0.5465 -1.0315
12296TIP3    H258304   3.322   0.892  13.735  0.5093 -0.2395 -0.6782
12297TIP3   OH258305   0.808   4.714  12.347 -0.4186  0.3953  0.1656
12297TIP3    H158306   0.748   4.747  12.413 -1.0682  0.1367 -0.2819
12297TIP3    H258307   0.757   4.649  12.298  0.6619 -0.8700  0.6773
12298TIP3   OH258308   6.063   4.825  13.735 -0.5194  0.1837  0.0489
12298TIP3    H158309   6.090   4.857  13.648  0.0358 -1.8978 -0.5896
12298TIP3    H258310   6.092   4.894  13.795 -1.2441  1.8491 -1.4234
12299TIP3   OH258311   4.127   2.796   5.090  0.2055 -0.0327  0.2087
12299TIP3    H158312   4.086   2.794   5.003  1.6750  1.3731 -0.5808
12299TIP3    H258313   4.101   2.714   5.131 -2.1904  0.1499 -0.7566
12300TIP3   OH258314   0.663   0.120  17.125  0.1282 -0.4543 -0.3685
12300TIP3    H158315   0.606   0.189  17.092 -0.0810 -0.7041 -0.5335
12300TIP3    H258316   0.745   0.165  17.146 -0.6188  0.1958  1.3365
12301TIP3   OH258317   4.647   6.005   3.276  0.2435 -0.5249 -0.5988
12301TIP3    H158318   4.693   6.030   3.356 -0.2824  1.0024 -0.7346
12301TIP3    H258319   4.705   5.942   3.233  0.1618 -2.0090  1.3439
12302TIP3   OH258320   4.069   3.100  11.500  0.2563 -0.6345  0.1400
12302TIP3    H158321   4.157   3.137  11.512 -0.7329  1.3794  2.0234
12302TIP3    H258322   4.042   3.130  11.413  0.8913 -0.0202  0.1421
12303TIP3   OH258323   1.026   6.075  12.781  0.0179 -0.4457 -0.1314
12303TIP3    H158324   1.064   6.068  12.694  1.5925  0.5198  0.4199
12303TIP3    H258325   1.052   5.995  12.826 -2.5334 -1.9319 -1.1009
12304TIP3   OH258326   1.324   4.338   0.065 -0.2208  0.5050  0.7113
12304TIP3    H158327   1.336   4.433   0.071 -0.5743  0.4591  3.0979
12304TIP3    H258328   1.229   4.326   0.060 -0.1483  0.2626 -0.8608
12305TIP3   OH258329   6.550   2.779  17.176 -0.3041 -0.3732 -0.1523
12305TIP3    H158330   6.629   2.832  17.166 -0.0200 -0.5470  1.0001
12305TIP3    H258331   6.537   2.739  17.090  0.3241  0.3898 -0.6177
12306TIP3   OH258332   5.602   2.519  16.150  0.6008 -0.4380 -0.4610
12306TIP3    H158333   5.512   2.516  16.182  0.3902 -0.6715 -1.0630
12306TIP3    H258334   5.647   2.577  16.212  0.0397 -0.3191 -0.1538
12307TIP3   OH258335   1.165   5.412   4.573  0.2496  0.2195  0.0497
12307TIP3    H158336   1.121   5.346   4.520  0.0914  0.3409  0.0269
12307TIP3    H258337   1.222   5.459   4.511  0.0183  0.4020 -0.0277
12308TIP3   OH258338   4.182   3.711   3.475  0.1840 -0.1460  0.4456
12308TIP3    H158339   4.106   3.653   3.486 -0.5148  0.2201 -1.8171
12308TIP3    H258340   4.258   3.654   3.490 -0.4897 -1.5434 -1.0858
12309TIP3   OH258341   6.652   5.042   0.922 -0.3547 -0.5140 -0.5902
12309TIP3    H158342   6.574   5.091   0.896  0.7564  1.8871  0.3463
12309TIP3    H258343   6.718   5.109   0.940  0.8570 -2.2587  2.1465
12310TIP3   OH258344   6.308   2.056   1.761 -0.3097  0.5857  0.4000
12310TIP3    H158345   6.222   2.098   1.763 -1.3119 -1.2878 -0.4389
12310TIP3    H258346   6.300   1.984   1.823  0.2685 -0.2684 -0.4905
12311TIP3   OH258347   1.809   2.594   4.647  0.2266 -0.4466 -0.4769
12311TIP3    H158348   1.715   2.597   4.666  0.4212  0.9858  0.3762
12311TIP3    H258349   1.817   2.631   4.559  0.1892  1.7371  0.3831
12312TIP3   OH258350   5.912   3.989   4.912  0.3384  0.3136  0.3263
12312TIP3    H158351   5.857   3.911   4.926  1.2488 -0.7272 -1.5070
12312TIP3    H258352   5.863   4.042   4.850  0.5820  0.2589  0.0851
12313TIP3   OH258353   3.910   1.458  13.383 -0.1159 -0.3364  0.5272
12313TIP3    H158354   3.828   1.494  13.417 -0.8194 -0.5526 -0.8774
12313TIP3    H258355   3.976   1.484  13.447 -1.2567 -0.0821  1.6453
12314TIP3   OH258356   4.297   6.368  15.594 -0.2156 -0.8133 -0.2400
12314TIP3    H158357   4.293   6.460  15.619  0.0602 -0.5171 -1.2425
12314TIP3    H258358   4.258   6.321  15.668 -0.8005  0.1421  0.0692
12315TIP3   OH258359   0.852   5.122   4.985  0.2204 -0.1329 -0.1373
12315TIP3    H158360   0.818   5.038   4.955  0.4827  0.8711 -3.7848
12315TIP3    H258361   0.941   5.125   4.950 -0.4282  2.3468 -1.8637
12316TIP3   OH258362   3.458   1.268  11.725 -0.0446 -0.0913 -0.5623
12316TIP3    H158363   3.525   1.266  11.793  0.1928 -0.1264 -0.7934
12316TIP3    H258364   3.501   1.309  11.650 -1.0045  2.2171  0.0452
12317TIP3   OH258365   6.732   1.526  12.083  0.2051 -0.1674 -0.1721
12317TIP3    H158366   6.724   1.432  12.068 -0.0408  0.0653 -1.6473
12317TIP3    H258367   6.814   1.551  12.041 -1.1867  0.7475 -2.5426
12318TIP3   OH258368   3.957   2.981   1.579 -0.0528  0.2553  0.3775
12318TIP3    H158369   4.052   2.972   1.576 -0.0941 -0.0195 -0.3173
12318TIP3    H258370   3.933   3.007   1.490 -0.6294  0.3120  0.5461
12319TIP3   OH258371   5.592   3.085  13.744 -0.2151  1.0589 -0.5018
12319TIP3    H158372   5.669   3.094  13.688 -0.0474  1.2211 -0.2475
12319TIP3    H258373   5.565   3.175  13.763  0.7045  1.0496  1.0113
12320TIP3   OH258374   6.526   1.945  15.986  0.4469  0.2799  0.3563
12320TIP3    H158375   6.565   1.937  15.899 -1.8068  1.5964 -0.8760
12320TIP3    H258376   6.470   1.868  15.994 -0.6917  1.0331 -0.1420
12321TIP3   OH258377   2.848   6.371   2.917  0.7297 -0.2152  0.4224
12321TIP3    H158378   2.774   6.392   2.860  1.2703  0.5168 -0.0350
12321TIP3    H258379   2.828   6.284   2.952 -0.3580 -0.0091  0.3429
12322TIP3   OH258380   4.733   2.325  15.832  0.2485  0.0250 -0.2995
12322TIP3    H158381   4.810   2.375  15.807 -0.6530  0.6851 -1.9028
12322TIP3    H258382   4.674   2.332  15.756 -1.6799  0.1292  1.1396
12323TIP3   OH258383   2.427   1.652   3.261  0.4987 -0.7313  0.1424
12323TIP3    H158384   2.401   1.724   3.203  1.7355 -2.2303 -2.4448
12323TIP3    H258385   2.347   1.629   3.308 -0.3504  1.1467 -0.2905
12324TIP3   OH258386   1.119   5.738  12.397  0.0509 -0.2619  0.4822
12324TIP3    H158387   1.054   5.803  12.422  1.5540  2.2498 -1.6433
12324TIP3    H258388   1.184   5.742  12.468  0.6538  1.4209 -0.1125
12325TIP3   OH258389   6.289   2.488   1.700 -0.2982  0.1715  0.2963
12325TIP3    H158390   6.201   2.453   1.713 -0.5417  0.2852 -0.9893
12325TIP3    H258391   6.296   2.560   1.763 -0.7097 -0.5438  1.1794
12326TIP3   OH258392   4.673   3.800   1.390  0.1792  0.2534  0.0790
12326TIP3    H158393   4.577   3.802   1.389 -0.0393  0.1383  4.2963
12326TIP3    H258394   4.694   3.714   1.426  1.9002  0.3606 -0.6065
12327TIP3   OH258395   5.994   3.190  12.305  0.4535 -0.0970  0.2363
12327TIP3    H158396   6.028   3.179  12.393  3.1965 -0.1185 -0.7262
12327TIP3    H258397   6.066   3.164  12.248 -0.2763  2.3441 -2.0170
12328TIP3   OH258398   1.275   3.942  11.224  0.2763  0.0645 -0.0546
12328TIP3    H158399   1.193   3.990  11.222  0.4748  0.4621  0.6834
12328TIP3    H258400   1.264   3.880  11.297  0.2322 -0.6368 -0.6404
12329TIP3   OH258401   1.994   0.966  13.246 -0.0552  0.5119  0.2126
12329TIP3    H158402   1.920   0.969  13.308 -1.3036  4.5730 -1.1337
12329TIP3    H258403   2.045   1.044  13.268  1.3624  0.1706 -1.7151
12330TIP3   OH258404   4.271   4.742  15.617 -0.1730 -0.0765 -0.3505
12330TIP3    H158405   4.240   4.816  15.670  0.9847  0.5017 -0.4598
12330TIP3    H258406   4.251   4.768  15.527 -2.1526 -1.0640 -0.2704
12331TIP3   OH258407   4.071   4.454   0.554 -0.6952  0.0289  0.5468
12331TIP3    H158408   4.073   4.372   0.602 -0.1413 -0.4405 -0.2503
12331TIP3    H258409   4.012   4.438   0.481  0.8939 -0.3306 -0.7238
12332TIP3   OH258410   4.603   3.443   4.148  0.6680  0.2768 -0.1241
12332TIP3    H158411   4.591   3.392   4.069 -1.6100  1.2621 -0.4993
12332TIP3    H258412   4.594   3.380   4.220 -2.4579  0.0819 -0.5546
12333TIP3   OH258413   4.703   4.089  16.873  0.4221  0.2761 -0.1098
12333TIP3    H158414   4.661   4.170  16.903  0.9192  0.4968  0.0095
12333TIP3    H258415   4.759   4.117  16.800  2.3657  0.4530  1.3826
12334TIP3   OH258416   3.195   0.810  17.037 -0.0134 -0.6583  0.2635
12334TIP3    H158417   3.139   0.880  17.004 -0.2695 -0.5549  0.8834
12334TIP3    H258418   3.262   0.855  17.088 -0.7330 -0.8943  1.4616
12335TIP3   OH258419   5.436   5.808   4.398  0.3399 -0.7155 -0.2431
12335TIP3    H158420   5.353   5.844   4.430 -0.7786 -2.1764 -1.3331
12335TIP3    H258421   5.420   5.714   4.390  1.2445 -0.7308 -2.9085
12336TIP3   OH258422   5.211   2.156  12.383  0.1936  0.1570 -0.1774
12336TIP3    H158423   5.257   2.169  12.466 -0.3560 -0.8219  0.2923
12336TIP3    H258424   5.152   2.231  12.376 -0.3695 -0.1936  0.7297
12337TIP3   OH258425   2.513   1.854  13.540 -0.0945 -0.6136 -0.3272
12337TIP3    H158426   2.599   1.813  13.537 -0.7777 -2.0483 -1.3738
12337TIP3    H258427   2.464   1.802  13.605 -0.4328 -0.3831 -0.3935
12338TIP3   OH258428   5.669   1.822   4.996  0.5445  0.1358 -0.7926
12338TIP3    H158429   5.578   1.849   4.993  0.4510  0.1083  1.0798
12338TIP3    H258430   5.703   1.859   5.078  1.9322 -0.7172 -0.9446
12339TIP3   OH258431   5.855   4.267   5.237 -0.0512 -0.6531 -0.1299
12339TIP3    H158432   5.808   4.279   5.320 -0.9239 -1.1228 -0.5432
12339TIP3    H258433   5.816   4.189   5.199 -0.0945 -0.0809 -1.2889
12340TIP3   OH258434   2.991   1.639   1.942  0.1817 -0.0901  0.1856
12340TIP3    H158435   2.995   1.548   1.911 -2.1246 -0.0391 -0.4452
12340TIP3    H258436   2.898   1.659   1.945  0.5461  1.6361  2.2462
12341TIP3   OH258437   0.701   2.545  13.871  0.3147  0.0621 -0.4917
12341TIP3    H158438   0.672   2.622  13.921  2.1403  1.6984 -1.7723
12341TIP3    H258439   0.775   2.511  13.920 -1.2140 -1.6903  0.7039
12342TIP3   OH258440   2.642   5.244  16.238 -0.4140  0.0075  0.1981
12342TIP3    H158441   2.624   5.338  16.234 -0.3941  0.0623  1.0535
12342TIP3    H258442   2.572   5.203  16.187 -0.0371  0.5190 -0.7549
12343TIP3   OH258443   3.752   3.764  11.977  0.1462 -0.1482  0.1296
12343TIP3    H158444   3.679   3.767  11.914  0.9590 -0.5984 -0.8572
12343TIP3    H258445   3.776   3.672  11.982  0.7120  0.0080  0.3763
12344TIP3   OH258446   1.061   2.479  11.465  0.3811  0.0181 -0.1888
12344TIP3    H158447   1.139   2.451  11.416  1.7585 -0.8907  2.3290
12344TIP3    H258448   1.072   2.573  11.477  0.9905 -0.0681 -0.0390
12345TIP3   OH258449   1.699   2.870   4.652 -0.2968  0.3355  0.3872
12345TIP3    H158450   1.721   2.866   4.559 -0.6378  0.2386  0.3109
12345TIP3    H258451   1.604   2.859   4.655 -0.0423 -2.6859  0.9229
12346TIP3   OH258452   1.217   0.552   5.513  0.2075  0.7067 -0.4195
12346TIP3    H158453   1.217   0.613   5.587  0.1468 -1.4609  1.4895
12346TIP3    H258454   1.125   0.547   5.487  0.2293  1.4809 -0.6905
12347TIP3   OH258455   1.331   4.112   4.716  0.3329 -0.7410 -0.4161
12347TIP3    H158456   1.291   4.029   4.694 -1.1146 -0.3355  0.5389
12347TIP3    H258457   1.386   4.093   4.793  0.3057 -0.8889 -0.4338
12348TIP3   OH258458   6.427   0.807  15.604  0.3070 -0.3230  0.1920
12348TIP3    H158459   6.369   0.730  15.608 -0.5702  0.3501  1.1097
12348TIP3    H258460   6.490   0.792  15.675 -0.3218  0.1286  0.8683
12349TIP3   OH258461   0.128   4.798   1.383  0.4646  0.7827  0.1039
12349TIP3    H158462   0.108   4.706   1.366  0.1651  0.4853  1.8909
12349TIP3    H258463   0.214   4.812   1.343  1.4503 -0.8467  1.5395
12350TIP3   OH258464   6.496   0.454  11.021  0.3143 -0.0070  0.2153
12350TIP3    H158465   6.490   0.403  10.940  0.6858  1.2028 -0.5976
12350TIP3    H258466   6.503   0.545  10.992  0.2716  0.4673  1.6167
12351TIP3   OH258467   0.020   0.038   5.475 -0.3054  0.2349 -0.3514
12351TIP3    H158468   0.109   0.030   5.442  0.1266  0.7469  0.6563
12351TIP3    H258469  -0.006   0.127   5.451 -0.8280 -0.1500 -1.2805
12352TIP3   OH258470   2.816   1.729   2.924 -0.9165 -0.4197 -0.1231
12352TIP3    H158471   2.725   1.723   2.953 -1.0359  1.1928 -0.0550
12352TIP3    H258472   2.865   1.676   2.986 -1.3460  1.8153  2.3236
12353TIP3   OH258473   4.235   6.009  12.809  0.1289 -0.4404 -0.6232
12353TIP3    H158474   4.213   6.058  12.887 -0.1208 -0.4426 -0.6912
12353TIP3    H258475   4.326   6.031  12.791 -0.2596  0.7461 -1.2046
12354TIP3   OH258476   0.174   3.131  13.332  0.2439 -0.2187  0.2413
12354TIP3    H158477   0.150   3.087  13.250  0.8898 -0.3375  0.1102
12354TIP3    H258478   0.199   3.061  13.391  3.8416 -0.0277 -0.7847
12355TIP3   OH258479   6.391   1.484   6.205  0.0533  0.3019  0.4514
12355TIP3    H158480   6.343   1.493   6.288 -0.8101  2.3834 -0.2059
12355TIP3    H258481   6.478   1.455   6.231 -0.5509 -0.2569  1.9814
12356TIP3   OH258482   3.151   0.079  11.682 -0.0973 -0.0142 -0.2331
12356TIP3    H158483   3.162   0.023  11.606 -0.4870 -0.2504 -0.1178
12356TIP3    H258484   3.068   0.052  11.721  0.9011 -1.0826  1.2829
12357TIP3   OH258485   0.787   2.998   1.713 -0.3841  0.0338 -0.5364
12357TIP3    H158486   0.820   2.916   1.748 -0.3236  0.5524  0.6697
12357TIP3    H258487   0.703   2.974   1.672 -1.3730 -0.3304  1.5721
12358TIP3   OH258488   4.489   1.449   1.011  0.1425 -0.6373  0.7786
12358TIP3    H158489   4.481   1.379   0.946  0.1152 -0.1225  0.2116
12358TIP3    H258490   4.408   1.447   1.060 -0.5780  0.0413 -0.3219
12359TIP3   OH258491   2.926   3.201  15.261  0.3206  0.2129 -0.5137
12359TIP3    H158492   2.996   3.154  15.216  1.4854  0.6606  0.7335
12359TIP3    H258493   2.852   3.140  15.262  1.0562 -0.7054 -0.8969
12360TIP3   OH258494   6.003   0.178  11.252 -0.7232  0.0242  0.0200
12360TIP3    H158495   5.952   0.251  11.216 -0.3605 -0.3756 -1.3643
12360TIP3    H258496   6.073   0.164  11.189  0.4798 -0.1460  1.3558
12361TIP3   OH258497   6.561   5.347  14.407  0.6394  0.7145 -0.0837
12361TIP3    H158498   6.626   5.415  14.424 -0.7063  2.6617 -2.1076
12361TIP3    H258499   6.477   5.394  14.406 -0.8536 -1.6295  2.1075
12362TIP3   OH258500   1.848   1.639   4.665 -0.6419 -0.2978 -0.2855
12362TIP3    H158501   1.825   1.729   4.643  0.5987 -0.0557 -0.6351
12362TIP3    H258502   1.790   1.585   4.610 -1.4531  0.2715 -0.0053
12363TIP3   OH258503   0.451   5.998  16.530 -0.6246  0.1965 -0.5607
12363TIP3    H158504   0.442   5.904  16.545  0.0731 -0.0635 -1.6853
12363TIP3    H258505   0.362   6.032  16.543 -1.2889 -0.8966 -1.9182
12364TIP3   OH258506   4.788   1.173  15.346 -0.3013  0.0844 -0.2556
12364TIP3    H158507   4.816   1.085  15.321  0.5254 -0.2291  1.5634
12364TIP3    H258508   4.869   1.223  15.352 -0.8000  1.0972 -1.6336
12365TIP3   OH258509   3.674   5.000   4.793  0.2151  0.0826  0.6180
12365TIP3    H158510   3.720   4.981   4.875  0.7310 -1.7544 -0.0517
12365TIP3    H258511   3.716   4.943   4.729 -1.4577  0.0738 -0.5260
12366TIP3   OH258512   1.522   1.909   5.996  0.4722 -0.1932 -0.1972
12366TIP3    H158513   1.609   1.941   6.019  0.2637  0.4181 -0.2139
12366TIP3    H258514   1.525   1.815   6.010  0.0054  0.2215  3.5047
12367TIP3   OH258515   2.157   4.252   6.529  0.0692 -0.0702 -0.5889
12367TIP3    H158516   2.197   4.165   6.529 -1.0680 -0.6308  0.7641
12367TIP3    H258517   2.189   4.293   6.610 -0.4197  0.2708 -0.5655
12368TIP3   OH258518   5.710   5.965  16.803  0.1080 -0.4962  0.2286
12368TIP3    H158519   5.697   5.877  16.838 -2.5935 -0.2549  0.0200
12368TIP3    H258520   5.708   6.021  16.881 -0.9159 -0.4051  0.1506
12369TIP3   OH258521   5.721   4.093   6.750 -0.0464  0.0617 -0.1759
12369TIP3    H158522   5.776   4.115   6.825  0.4416 -1.0359 -0.1978
12369TIP3    H258523   5.676   4.175   6.729  0.7446  0.6974  0.5281
12370TIP3   OH258524   3.897   4.534  11.961  0.1114 -0.1322 -0.1576
12370TIP3    H158525   3.918   4.482  11.883 -1.0549 -0.9145  0.0195
12370TIP3    H258526   3.805   4.559  11.948  0.6368  1.9303 -0.2407
12371TIP3   OH258527   1.076   2.874  13.132  0.6103 -0.1697 -0.0171
12371TIP3    H158528   1.081   2.879  13.036  0.7468 -0.8738 -0.0519
12371TIP3    H258529   0.991   2.834  13.150  0.4773  0.1874  0.1714
12372TIP3   OH258530   5.567   1.265   0.738  0.1177  0.1028  0.0553
12372TIP3    H158531   5.532   1.287   0.652 -0.1898  0.4684  0.2683
12372TIP3    H258532   5.655   1.303   0.739 -0.1807  0.8010  0.1933
12373TIP3   OH258533   1.033   1.458  16.480  0.3108  0.1850 -0.3313
12373TIP3    H158534   1.091   1.435  16.553  1.6042 -1.2696 -1.7371
12373TIP3    H258535   0.947   1.424  16.506  0.8956 -0.9165  0.2596
12374TIP3   OH258536   4.550   5.146   5.192 -0.0146 -0.0395 -0.7061
12374TIP3    H158537   4.644   5.127   5.182 -0.1008  0.2112 -2.2179
12374TIP3    H258538   4.506   5.074   5.146 -0.5279  0.3865 -0.8951
12375TIP3   OH258539   5.000   4.139   2.900  0.0688 -0.5553  0.3689
12375TIP3    H158540   5.037   4.110   2.983  0.0215 -0.9878  0.2384
12375TIP3    H258541   4.987   4.059   2.849 -0.5546 -0.3665  0.2129
12376TIP3   OH258542   5.701   5.596  13.460 -0.7350 -0.4206  0.6454
12376TIP3    H158543   5.679   5.515  13.506  1.5966 -1.4669  0.0674
12376TIP3    H258544   5.617   5.633  13.433 -1.8601 -2.5562  1.0658
12377TIP3   OH258545   0.152   1.152  16.277  0.1782 -0.3093 -0.1447
12377TIP3    H158546   0.198   1.114  16.351  0.6168 -1.5018 -0.9983
12377TIP3    H258547   0.101   1.224  16.314  0.1911 -1.0372  1.3402
12378TIP3   OH258548   0.506   6.724   3.358 -0.0373 -0.2986 -0.5606
12378TIP3    H158549   0.423   6.771   3.355 -0.8021 -1.5816 -0.2157
12378TIP3    H258550   0.547   6.753   3.440 -0.7424 -0.6093 -0.0855
12379TIP3   OH258551   4.936   3.066   5.267  0.3985 -0.1248 -0.1578
12379TIP3    H158552   4.861   3.084   5.323  0.5070  0.5103 -0.2080
12379TIP3    H258553   5.004   3.034   5.327  0.3456  0.0520 -0.0050
12380TIP3   OH258554   4.655   3.108  14.425  0.9233  0.0198 -0.3291
12380TIP3    H158555   4.733   3.051  14.422  0.8784 -0.2115  1.8733
12380TIP3    H258556   4.690   3.195  14.442  0.7203 -0.1350  0.9856
12381TIP3   OH258557   5.799   6.278  12.937 -0.3244 -0.0624 -0.5708
12381TIP3    H158558   5.805   6.355  12.994  1.0903 -0.6487  0.1453
12381TIP3    H258559   5.843   6.209  12.987  0.8190 -0.6476 -2.3010
12382TIP3   OH258560   4.381   2.870  11.633  0.6166  0.2800  0.1236
12382TIP3    H158561   4.425   2.811  11.571  0.1694 -1.4142  1.3558
12382TIP3    H258562   4.412   2.957  11.608  2.3059 -0.5678 -0.9714
12383TIP3   OH258563   5.957   2.932  15.664 -0.1399 -0.5252  0.0122
12383TIP3    H158564   6.019   2.956  15.596 -0.2116 -2.0726 -0.6385
12383TIP3    H258565   6.008   2.881  15.727  0.1326  1.6368  1.6464
12384TIP3   OH258566   3.563   1.038   1.346  0.6583  0.1688 -0.0203
12384TIP3    H158567   3.485   0.988   1.322  0.5630  1.3076 -2.4813
12384TIP3    H258568   3.635   0.976   1.339  0.1800 -0.4284  0.3251
12385TIP3   OH258569   2.869   4.736  11.795 -0.3392 -0.1819  0.6354
12385TIP3    H158570   2.790   4.773  11.755 -0.6759  0.3692  1.7894
12385TIP3    H258571   2.940   4.762  11.736 -0.6947  1.4890  0.8952
12386TIP3   OH258572   4.619   0.474  13.989 -0.4198 -0.6711  0.2364
12386TIP3    H158573   4.651   0.528  13.916  1.4930 -0.1204  1.4162
12386TIP3    H258574   4.527   0.457  13.967  0.0258 -0.3755 -2.1934
12387TIP3   OH258575   0.862   6.141   2.762  0.2927 -1.0431 -0.0147
12387TIP3    H158576   0.846   6.088   2.684 -0.3629 -0.0296 -0.5823
12387TIP3    H258577   0.797   6.110   2.825 -0.3983 -0.6043 -0.5020
12388TIP3   OH258578   4.597   2.162   5.650 -0.3964  0.2935  0.2001
12388TIP3    H158579   4.687   2.147   5.619 -1.0600 -1.6566 -0.9227
12388TIP3    H258580   4.544   2.166   5.570 -1.4088  0.8253  0.8760
12389TIP3   OH258581   3.589   2.810   3.807  0.0959 -0.6501 -0.3697
12389TIP3    H158582   3.541   2.882   3.847 -0.2384 -0.5755 -0.8917
12389TIP3    H258583   3.602   2.837   3.716 -0.7864 -1.5999 -0.8048
12390TIP3   OH258584   6.379   2.227  14.549  0.0345 -0.1070  0.2122
12390TIP3    H158585   6.399   2.318  14.568 -3.0016  1.2525 -2.0952
12390TIP3    H258586   6.337   2.194  14.629  0.5367  0.7125  0.8268
12391TIP3   OH258587   1.665   3.612  15.956  0.5573  0.6404  0.3793
12391TIP3    H158588   1.676   3.695  16.003 -2.3483  1.2007  0.3159
12391TIP3    H258589   1.578   3.582  15.983  1.2773 -2.0901 -0.1120
12392TIP3   OH258590   0.739   2.246  14.091 -0.3213 -0.5897  0.1551
12392TIP3    H158591   0.706   2.335  14.107 -1.2758 -0.4223 -2.2927
12392TIP3    H258592   0.826   2.260  14.054  0.1214 -0.7740  1.0945
12393TIP3   OH258593   6.001   4.290  16.936 -0.2975 -0.0198 -0.4100
12393TIP3    H158594   5.937   4.303  17.007 -1.2679 -0.9086 -1.0822
12393TIP3    H258595   6.025   4.379  16.909  0.1200  0.3326  1.0430
12394TIP3   OH258596   6.040   6.532  12.269  0.2996 -0.1684 -0.7848
12394TIP3    H158597   5.974   6.569  12.210 -1.2013 -0.9855  0.3430
12394TIP3    H258598   6.025   6.576  12.352  1.8923  0.3964 -0.7590
12395TIP3   OH258599   3.260   5.644   5.216  0.2737 -0.2427  0.3095
12395TIP3    H158600   3.235   5.563   5.170 -0.2003 -0.5884  1.1546
12395TIP3    H258601   3.315   5.614   5.289 -0.5579  0.1150  1.0973
12396TIP3   OH258602   4.645   4.755   2.333  0.4899 -0.5490  0.5598
12396TIP3    H158603   4.567   4.758   2.277  1.2580  0.2844 -0.5081
12396TIP3    H258604   4.716   4.730   2.273  0.8625 -2.6106  1.7703
12397TIP3   OH258605   1.350   6.136   4.185  0.5994  0.0754  0.3740
12397TIP3    H158606   1.425   6.137   4.245  0.6270  0.3314  0.3382
12397TIP3    H258607   1.278   6.101   4.238  0.3913  1.1801  0.8528
12398TIP3   OH258608   0.081   0.967  10.512 -0.3345 -0.4579 -0.0669
12398TIP3    H158609   0.148   0.934  10.452 -0.0342 -0.6819  0.3853
12398TIP3    H258610   0.122   1.044  10.553 -0.5562 -0.2778 -0.1813
12399TIP3   OH258611   1.979   5.430   2.151 -0.3709  0.0319  0.1405
12399TIP3    H158612   1.922   5.402   2.079  0.0476 -0.8793  0.1522
12399TIP3    H258613   1.992   5.352   2.203  1.4752  0.0225 -0.2617
12400TIP3   OH258614   5.959   1.553   1.713 -0.4896 -0.3860 -0.5241
12400TIP3    H158615   5.919   1.557   1.800 -1.5503 -0.9840 -0.9686
12400TIP3    H258616   5.889   1.521   1.656  0.2049 -0.0328 -1.5952
12401TIP3   OH258617   4.491   4.557  14.072 -0.0213  0.1560  0.1712
12401TIP3    H158618   4.500   4.509  14.154 -0.7787 -2.0088 -0.9382
12401TIP3    H258619   4.399   4.585  14.071  0.4685  1.9118  0.9139
12402TIP3   OH258620   2.276   2.251   2.154  0.2966  0.3089 -0.3154
12402TIP3    H158621   2.335   2.206   2.214 -0.7202  1.1706  1.4007
12402TIP3    H258622   2.195   2.262   2.204 -0.1505  2.2312 -1.3647
12403TIP3   OH258623   3.308   5.028  11.878 -0.1809 -0.7465 -0.1570
12403TIP3    H158624   3.356   5.081  11.941  0.2817 -0.4933 -0.7075
12403TIP3    H258625   3.376   4.987  11.824 -0.5396  1.5515 -2.5477
12404TIP3   OH258626   0.154   5.547  15.770  0.7324  0.3134  0.1531
12404TIP3    H158627   0.093   5.568  15.699  2.7155  1.3790 -1.3338
12404TIP3    H258628   0.175   5.454  15.756  1.0896  0.5056 -0.6857
12405TIP3   OH258629   3.948   0.143  12.390 -0.1741  0.5504 -0.7758
12405TIP3    H158630   3.862   0.125  12.353 -0.6742  2.7373 -0.8512
12405TIP3    H258631   3.971   0.064  12.438 -1.5334 -0.6511 -1.9994
12406TIP3   OH258632   0.662   4.089   2.687 -0.1987  0.2172  0.6796
12406TIP3    H158633   0.588   4.032   2.707 -1.1415 -0.0294 -2.7500
12406TIP3    H258634   0.731   4.062   2.747 -1.4651 -2.7266  0.9821
12407TIP3   OH258635   6.269   2.463   5.824  0.1010 -0.1751  0.3492
12407TIP3    H158636   6.284   2.541   5.770  0.6102 -0.0326  0.6856
12407TIP3    H258637   6.317   2.481   5.905  0.3224 -0.8875  0.3834
12408TIP3   OH258638   0.520   1.000  12.099  0.1107 -0.0875  0.1935
12408TIP3    H158639   0.445   1.042  12.142 -1.4637 -2.3224 -0.1923
12408TIP3    H258640   0.526   0.913  12.138  0.0754 -1.3542 -2.3812
12409TIP3   OH258641   0.656   0.546  14.312  0.6821 -0.1205  0.3490
12409TIP3    H158642   0.598   0.614  14.346 -0.1114 -1.6074  2.1997
12409TIP3    H258643   0.600   0.492  14.256  0.1455 -1.6318  2.2386
12410TIP3   OH258644   6.420   5.878   5.337  0.1852  0.0753  0.2619
12410TIP3    H158645   6.420   5.812   5.268 -0.2177  0.1829  0.1595
12410TIP3    H258646   6.370   5.951   5.301  2.0610  1.1587 -0.3112
12411TIP3   OH258647   5.255   4.254  12.537  0.0011  0.4730 -0.6399
12411TIP3    H158648   5.282   4.329  12.590  0.4879 -0.3341  0.2985
12411TIP3    H258649   5.217   4.292  12.458 -1.6703  1.7721  0.7113
12412TIP3   OH258650   2.067   2.023  15.114  0.1629 -0.1061  0.3421
12412TIP3    H158651   2.104   2.109  15.094  0.8967 -0.4530  0.1432
12412TIP3    H258652   2.050   2.025  15.208  0.8701  0.0121  0.4755
12413TIP3   OH258653   2.106   3.288   0.183 -0.0190  0.4516 -0.3918
12413TIP3    H158654   2.087   3.266   0.092  0.4795 -1.0179 -0.1749
12413TIP3    H258655   2.102   3.383   0.186 -0.9125  0.4888 -1.7501
12414TIP3   OH258656   5.202   5.472   3.495 -0.0302  0.2572 -0.7137
12414TIP3    H158657   5.235   5.396   3.446 -1.7480 -1.6252  0.8718
12414TIP3    H258658   5.174   5.534   3.427  2.2534 -0.0566 -2.0667
12415TIP3   OH258659   6.320   3.601   0.580 -0.3216  1.0267  0.0480
12415TIP3    H158660   6.314   3.672   0.645 -1.1034  0.3604  0.7312
12415TIP3    H258661   6.373   3.637   0.510  0.0003  2.0008  0.7700
12416TIP3   OH258662   0.072   5.766  14.351  0.0601  0.2606 -0.2199
12416TIP3    H158663   0.023   5.807  14.279  0.8278 -0.0203 -0.9232
12416TIP3    H258664   0.139   5.831  14.374 -1.5551  1.3171  1.8112
12417TIP3   OH258665   4.317   2.152   2.749 -0.1865 -0.0377 -0.3024
12417TIP3    H158666   4.297   2.174   2.840  3.0186 -0.9696  0.7645
12417TIP3    H258667   4.413   2.154   2.744 -0.2203  0.5492 -3.8530
12418TIP3   OH258668   1.583   0.064  11.054  0.3854  0.7687 -0.4424
12418TIP3    H158669   1.496   0.075  11.092  0.2985  1.2298 -0.7745
12418TIP3    H258670   1.567   0.043  10.962  0.5817 -0.7286 -0.1659
12419TIP3   OH258671   3.566   5.973   4.643  0.4278  0.3407 -0.3288
12419TIP3    H158672   3.660   5.966   4.626  0.4301  0.1514 -0.2411
12419TIP3    H258673   3.558   5.955   4.737  0.2830  0.1655 -0.3735
12420TIP3   OH258674   4.029   3.655   6.228 -0.1868 -0.4282  0.4601
12420TIP3    H158675   3.997   3.745   6.219  1.2611  0.0637  0.0150
12420TIP3    H258676   3.965   3.613   6.286 -1.1627  0.7338  0.2765
12421TIP3   OH258677   1.200   3.649   5.129 -0.0631  0.4916  0.0354
12421TIP3    H158678   1.182   3.557   5.113 -1.5139  0.8138 -0.3010
12421TIP3    H258679   1.296   3.656   5.123  0.1556 -1.1532  1.0892
12422TIP3   OH258680   0.319   1.135  12.204 -0.0877 -0.6552  0.1527
12422TIP3    H158681   0.264   1.057  12.199  0.2679 -0.9176  0.2795
12422TIP3    H258682   0.259   1.205  12.228 -0.6266 -0.6604 -1.1066
12423TIP3   OH258683   0.428   3.025   4.056 -0.0723 -0.0970 -0.2138
12423TIP3    H158684   0.412   3.091   4.123 -0.4241  0.1553 -0.5395
12423TIP3    H258685   0.344   2.979   4.048  0.1148 -0.4512 -0.1265
12424TIP3   OH258686   4.534   6.613   1.893 -0.0157 -0.0259  0.3272
12424TIP3    H158687   4.522   6.622   1.987 -0.1870  0.5205  0.2545
12424TIP3    H258688   4.487   6.533   1.870 -0.1197 -0.0645  0.6762
12425TIP3   OH258689   5.869   1.019  16.528 -0.0753  0.3197  0.7575
12425TIP3    H158690   5.864   1.061  16.442  0.6223  0.6553  0.8761
12425TIP3    H258691   5.961   0.998  16.539 -0.0976  0.6375  1.5950
12426TIP3   OH258692   3.659   2.935  13.593  0.0531  0.0210  0.3618
12426TIP3    H158693   3.581   2.883  13.612  0.3382 -0.2540  0.8202
12426TIP3    H258694   3.704   2.943  13.678 -0.3860  1.7056  0.4768
12427TIP3   OH258695   3.006   3.862  12.465 -0.2739  0.6317 -0.0212
12427TIP3    H158696   3.082   3.915  12.443  0.8327 -0.3461  1.3078
12427TIP3    H258697   3.001   3.795  12.396 -0.0954  0.8482 -0.2439
12428TIP3   OH258698   6.331   3.862  16.681 -0.0334  0.2846 -0.1273
12428TIP3    H158699   6.303   3.841  16.770  0.1883  1.4630  0.2393
12428TIP3    H258700   6.397   3.930  16.692  1.2540 -0.7526 -1.1073
12429TIP3   OH258701   2.836   5.332  11.413  0.5442 -0.0493  0.1893
12429TIP3    H158702   2.880   5.346  11.329  1.1088 -3.9625 -0.3548
12429TIP3    H258703   2.743   5.328  11.391  0.7488 -1.8357 -0.4285
12430TIP3   OH258704   4.349   0.380   0.280 -0.0654 -0.5766  0.2320
12430TIP3    H158705   4.293   0.432   0.223 -0.8141 -0.3860  1.1249
12430TIP3    H258706   4.433   0.427   0.280 -0.3164 -0.1203 -0.0428
12431TIP3   OH258707   0.132   2.297  14.944 -0.0336 -0.1808  0.0065
12431TIP3    H158708   0.078   2.370  14.912  0.3645 -0.3391 -1.0566
12431TIP3    H258709   0.069   2.236  14.983 -0.4102  0.5361  0.5507
12432TIP3   OH258710   6.497   0.467   1.340 -0.0610  0.1458 -0.2341
12432TIP3    H158711   6.503   0.447   1.246 -1.1128 -1.5843  0.0261
12432TIP3    H258712   6.404   0.456   1.361  0.1376  0.6412  0.9949
12433TIP3   OH258713   2.555   1.415  11.308  0.2269 -0.1735  0.2270
12433TIP3    H158714   2.536   1.321  11.314  0.8848 -0.4837 -1.8841
12433TIP3    H258715   2.539   1.448  11.397 -0.5860 -2.1572  0.8755
12434TIP3   OH258716   3.150   6.781  12.784 -0.3079 -0.1135 -0.1529
12434TIP3    H158717   3.150   6.867  12.743 -0.3024  0.0507  0.1888
12434TIP3    H258718   3.057   6.762  12.798 -0.2581  1.1827  2.5458
12435TIP3   OH258719   3.047   2.312  10.919 -0.2428  0.1781 -0.0840
12435TIP3    H158720   2.994   2.233  10.910 -0.4596  0.3805 -0.6378
12435TIP3    H258721   3.137   2.281  10.913 -0.3094 -0.0959  0.2795
12436TIP3   OH258722   2.548   5.665  17.192 -0.1569 -0.6822 -0.1068
12436TIP3    H158723   2.560   5.596  17.127 -0.6847 -0.6168 -0.2823
12436TIP3    H258724   2.455   5.689  17.184  0.5251  1.6709 -1.6608
12437TIP3   OH258725   5.122   3.981   2.226 -0.2804  0.3171 -0.3913
12437TIP3    H158726   5.071   3.919   2.279 -0.3312  0.4678 -0.2600
12437TIP3    H258727   5.188   3.927   2.182 -0.5951  0.1111 -0.6144
12438TIP3   OH258728   5.227   1.305   2.741  0.4647  0.2072 -0.6632
12438TIP3    H158729   5.217   1.259   2.824 -0.6668 -1.1449 -1.5073
12438TIP3    H258730   5.292   1.255   2.692 -1.6448 -1.3744 -2.0737
12439TIP3   OH258731   6.629   0.236  14.386 -0.2967 -0.3862  0.3283
12439TIP3    H158732   6.713   0.280  14.402 -0.4101  0.3058 -0.8222
12439TIP3    H258733   6.639   0.199  14.298 -2.5337  3.2115 -1.7194
12440TIP3   OH258734   0.139   1.277   2.841  0.3933 -0.0808  0.0014
12440TIP3    H158735   0.096   1.217   2.902 -1.5359  1.6239  0.4482
12440TIP3    H258736   0.185   1.339   2.898  0.4056  0.2320 -0.3501
12441TIP3   OH258737   6.029   4.294  13.986  0.1501 -0.1880  0.5021
12441TIP3    H158738   6.084   4.259  14.057 -1.3614 -0.6193  1.5080
12441TIP3    H258739   5.940   4.290  14.021 -0.4272  1.4836 -0.6916
12442TIP3   OH258740   2.090   4.794  15.516 -0.1130  0.1351 -0.7565
12442TIP3    H158741   2.083   4.700  15.495 -0.2154  0.1974 -1.0049
12442TIP3    H258742   2.123   4.796  15.606  0.2708 -0.1335 -0.8936
12443TIP3   OH258743   4.741   0.228   4.930  0.4191 -0.1501  0.1195
12443TIP3    H158744   4.654   0.188   4.922 -0.2998  1.6072 -1.6169
12443TIP3    H258745   4.730   0.298   4.994 -0.0967  1.5274 -1.7092
12444TIP3   OH258746   1.449   3.477  11.432 -0.2617 -0.5254 -0.0631
12444TIP3    H158747   1.539   3.469  11.403  0.4006 -1.6977  2.0999
12444TIP3    H258748   1.454   3.526  11.514 -1.6538 -0.1332 -0.1891
12445TIP3   OH258749   6.587   4.695   4.352  0.9159  0.4258  0.7472
12445TIP3    H158750   6.585   4.670   4.444  1.7932  0.3358  0.7532
12445TIP3    H258751   6.617   4.616   4.307 -0.9567 -0.0241  0.1839
12446TIP3   OH258752   6.172   1.538   4.734  0.2889  0.0712 -0.1272
12446TIP3    H158753   6.188   1.584   4.817 -1.4132  1.2414 -0.3845
12446TIP3    H258754   6.152   1.448   4.760  4.0894 -0.7908  0.3731
12447TIP3   OH258755   3.858   3.828  11.677 -0.0877 -0.3142  0.3701
12447TIP3    H158756   3.784   3.795  11.728 -1.0965  1.4540  0.1514
12447TIP3    H258757   3.885   3.754  11.622 -1.0371 -1.2911  1.1790
12448TIP3   OH258758   6.315   5.275   3.360 -0.8487 -0.1439 -0.0023
12448TIP3    H158759   6.296   5.345   3.297 -0.6268 -0.8671 -0.8944
12448TIP3    H258760   6.367   5.212   3.310  1.2321  0.2791  1.4756
12449TIP3   OH258761   5.351   2.038   3.154 -0.1230 -0.7411  0.3345
12449TIP3    H158762   5.344   1.943   3.143 -0.9996 -0.8359  1.4798
12449TIP3    H258763   5.296   2.075   3.085  2.0445 -0.9478 -1.6106
12450TIP3   OH258764   1.788   1.343  16.655  0.0449  0.4198 -0.0261
12450TIP3    H158765   1.748   1.425  16.624 -1.5001 -0.8742 -1.6659
12450TIP3    H258766   1.735   1.318  16.730 -0.8424 -0.1162 -0.8064
12451TIP3   OH258767   0.670   2.914  15.608  0.1518 -0.0725  0.0350
12451TIP3    H158768   0.679   2.847  15.675 -0.9411  1.3627  1.6970
12451TIP3    H258769   0.747   2.970  15.619  0.0637  0.0612 -0.0214
12452TIP3   OH258770   0.582   3.414  14.333  0.4456  0.0951 -0.1815
12452TIP3    H158771   0.488   3.395  14.338  0.5393 -0.0685  1.7060
12452TIP3    H258772   0.595   3.488  14.393  1.6103 -0.3273  0.1175
12453TIP3   OH258773   0.684   1.979  15.415 -0.1732  0.1766  0.0148
12453TIP3    H158774   0.604   1.969  15.363  0.6632 -0.6725 -1.1567
12453TIP3    H258775   0.671   2.061  15.463 -2.8882 -1.2893  1.9989
12454TIP3   OH258776   5.481   6.639   5.285  0.1713 -0.0327  0.6343
12454TIP3    H158777   5.458   6.729   5.308  2.3421  0.4642  1.1120
12454TIP3    H258778   5.422   6.616   5.213 -1.1195  1.3734  1.1864
12455TIP3   OH258779   3.431   5.726   4.237  0.7565 -0.3079  0.6647
12455TIP3    H158780   3.440   5.821   4.244  1.0513 -0.1423 -1.4768
12455TIP3    H258781   3.517   5.692   4.263  0.9134  0.0536  0.6217
12456TIP3   OH258782   5.953   0.674  12.851 -0.4331  0.1020  0.7622
12456TIP3    H158783   5.948   0.769  12.848  0.2009  0.1160 -0.1404
12456TIP3    H258784   5.997   0.649  12.770 -0.4394 -0.9513  1.0626
12457TIP3   OH258785   1.136   6.006  15.767 -0.2501 -0.1430 -0.2616
12457TIP3    H158786   1.138   6.024  15.861  1.5067 -0.0750 -0.2911
12457TIP3    H258787   1.042   5.997  15.747 -0.7986  1.7084  1.1256
12458TIP3   OH258788   1.304   1.556   2.450  0.3110  0.3040  0.1546
12458TIP3    H158789   1.236   1.596   2.506 -0.4674  0.7338 -1.0573
12458TIP3    H258790   1.384   1.603   2.472  0.1285  0.1281  1.2582
12459TIP3   OH258791   4.061   0.313   6.286  0.3828 -0.0812 -0.0171
12459TIP3    H158792   3.978   0.303   6.332  0.1538  0.1885 -0.3697
12459TIP3    H258793   4.113   0.237   6.314 -0.6062 -1.2243 -1.1278
12460TIP3   OH258794   3.440   4.082   5.183 -0.5512  0.1663  0.2466
12460TIP3    H158795   3.449   3.997   5.141 -0.0213  0.2480  0.1862
12460TIP3    H258796   3.476   4.069   5.271 -0.1154  0.4244  0.1084
12461TIP3   OH258797   5.425   3.172   2.384 -0.0223 -0.6898 -0.0806
12461TIP3    H158798   5.387   3.250   2.344  0.2787 -0.5036 -0.0098
12461TIP3    H258799   5.452   3.199   2.471 -3.5714 -1.8998  1.5539
12462TIP3   OH258800   1.849   4.155   6.521  0.6615  0.0183  0.4338
12462TIP3    H158801   1.761   4.181   6.547  0.1282 -2.1907  1.0283
12462TIP3    H258802   1.862   4.069   6.562  1.9822 -1.0282 -1.9586
12463TIP3   OH258803   0.111   3.125  16.187 -0.5385  0.2648 -0.4628
12463TIP3    H158804   0.082   3.130  16.096 -2.0443  0.6641  0.0084
12463TIP3    H258805   0.107   3.032  16.208 -1.4207  0.3034 -0.4381
12464TIP3   OH258806   4.247   5.915   2.657 -0.5361 -0.1523  0.3993
12464TIP3    H158807   4.168   5.920   2.711  0.4723 -1.1590  2.0978
12464TIP3    H258808   4.256   6.002   2.618 -3.0475 -0.3453 -0.7600
12465TIP3   OH258809   2.228   0.911  12.572  0.3446 -0.0515 -0.9473
12465TIP3    H158810   2.149   0.966  12.568  0.2482  0.1091  1.4470
12465TIP3    H258811   2.201   0.835  12.625  1.5295 -0.4657 -0.9110
12466TIP3   OH258812   4.718   6.444  11.968  0.0819 -0.5050  0.2852
12466TIP3    H158813   4.770   6.482  12.038 -1.1284  0.1998  0.8498
12466TIP3    H258814   4.627   6.451  12.000 -0.3537 -1.7897 -0.5927
12467TIP3   OH258815   6.190   6.481  10.927  0.3419 -0.4143  0.1202
12467TIP3    H158816   6.153   6.558  10.970  0.6524 -1.1005  1.6796
12467TIP3    H258817   6.269   6.461  10.977  2.2750  0.3436 -2.4298
12468TIP3   OH258818   2.549   2.052   0.570 -0.1011 -0.4943 -0.4526
12468TIP3    H158819   2.498   2.129   0.543 -0.6433 -0.7258 -0.1126
12468TIP3    H258820   2.612   2.039   0.500 -0.5674 -0.2473 -0.9201
12469TIP3   OH258821   5.885   4.892   1.935  0.4409 -0.2147  0.0019
12469TIP3    H158822   5.834   4.812   1.920 -1.4081  1.0041 -0.4724
12469TIP3    H258823   5.876   4.910   2.028 -1.2302  0.7481 -0.3093
12470TIP3   OH258824   4.761   2.138   4.378 -0.3437  0.1991 -0.3257
12470TIP3    H158825   4.797   2.121   4.465  0.5336  1.0856 -0.5103
12470TIP3    H258826   4.764   2.233   4.368  1.3764  0.0044 -2.0803
12471TIP3   OH258827   4.566   6.459   3.837 -0.3536  0.2975  0.2101
12471TIP3    H158828   4.536   6.416   3.918  2.8311 -0.7106  0.9895
12471TIP3    H258829   4.561   6.552   3.857 -1.7107  0.1546  0.6909
12472TIP3   OH258830   3.337   5.562  16.227  0.3031  0.7098 -0.0281
12472TIP3    H158831   3.255   5.601  16.195 -0.8447 -0.6286  1.0923
12472TIP3    H258832   3.325   5.558  16.322  0.6911 -1.5309 -0.0255
12473TIP3   OH258833   1.478   2.985  12.251  0.2501 -0.2160  0.2191
12473TIP3    H158834   1.439   3.046  12.314  1.7913 -0.6281  1.6517
12473TIP3    H258835   1.566   3.019  12.237  0.7212 -1.4345  0.1209
12474TIP3   OH258836   1.134   3.811  15.106  0.2289 -0.4398 -0.3616
12474TIP3    H158837   1.110   3.833  15.197  1.2438 -0.8758  0.0223
12474TIP3    H258838   1.051   3.817  15.058 -0.2693  0.1238  0.5235
12475TIP3   OH258839   0.992   5.914  12.139  0.0579  0.1893 -0.2694
12475TIP3    H158840   1.051   5.986  12.162 -1.1101  0.7524  1.1847
12475TIP3    H258841   0.993   5.857  12.216 -1.3507  0.2834 -0.1534
12476TIP3   OH258842   3.745   0.159   1.118  0.4699  0.6552 -0.9033
12476TIP3    H158843   3.751   0.210   1.038 -3.0815  1.8450 -0.5780
12476TIP3    H258844   3.729   0.223   1.187 -2.4712 -0.6424 -0.2303
12477TIP3   OH258845   0.974   6.114   1.628 -0.0107 -0.0067  0.2558
12477TIP3    H158846   1.020   6.139   1.548  1.5894 -2.0689  0.4369
12477TIP3    H258847   0.981   6.191   1.685  0.5092  0.8183 -0.8747
12478TIP3   OH258848   4.619   2.537  11.577 -0.4355 -0.6266  0.5067
12478TIP3    H158849   4.550   2.572  11.521  0.3580 -2.1009 -1.4795
12478TIP3    H258850   4.586   2.452  11.607 -0.6653 -0.0546  1.9838
12479TIP3   OH258851   0.820   2.251  12.503  0.4397  0.4877 -0.0240
12479TIP3    H158852   0.892   2.234  12.443  2.4922 -0.6018  2.5296
12479TIP3    H258853   0.811   2.169  12.553 -1.1279  1.3295  1.1752
12480TIP3   OH258854   5.336   6.768  11.654  0.6705  0.0669 -0.6949
12480TIP3    H158855   5.296   6.754  11.569 -1.9459 -3.8177  0.9041
12480TIP3    H258856   5.411   6.709  11.656 -0.6952 -1.7280  0.4071
12481TIP3   OH258857   5.033   2.388   2.890  0.2688 -0.2358 -0.1682
12481TIP3    H158858   5.078   2.390   2.805  0.5418 -1.1181 -0.0524
12481TIP3    H258859   4.988   2.303   2.892 -0.4322  0.1301  0.2221
12482TIP3   OH258860   0.030   2.622  16.662  0.2869  0.6187 -0.2445
12482TIP3    H158861  -0.021   2.693  16.702  1.3625  1.1670  0.1885
12482TIP3    H258862   0.099   2.603  16.725 -0.7244 -1.7350  0.2354
12483TIP3   OH258863   4.659   5.096   5.503 -0.4753  0.2726  0.5391
12483TIP3    H158864   4.593   5.162   5.486 -0.3978  0.2665  0.2175
12483TIP3    H258865   4.626   5.016   5.462  1.5930  1.1925 -3.3713
12484TIP3   OH258866   3.337   1.815   1.680  0.0285  0.2218 -0.4262
12484TIP3    H158867   3.311   1.730   1.715  0.9816 -0.2007 -0.7239
12484TIP3    H258868   3.356   1.868   1.757  1.3797 -0.4658 -0.2569
12485TIP3   OH258869   1.264   2.605   3.939  0.0808 -0.4759 -0.6152
12485TIP3    H158870   1.356   2.598   3.966 -0.1165  1.0546  0.5687
12485TIP3    H258871   1.214   2.599   4.021 -0.6808  1.7887 -0.8554
12486TIP3   OH258872   4.681   5.829   2.926 -0.1138  0.0250 -0.3933
12486TIP3    H158873   4.771   5.826   2.893  0.0717  0.9262 -0.0172
12486TIP3    H258874   4.670   5.919   2.955 -1.6460  0.3275 -1.7773
12487TIP3   OH258875   4.581   6.348   6.588  0.3717 -0.0160  0.0403
12487TIP3    H158876   4.652   6.381   6.644  0.3635  1.6350 -0.8401
12487TIP3    H258877   4.545   6.427   6.548 -1.3677 -0.9165 -0.2466
12488TIP3   OH258878   5.430   3.104  16.509  0.0378  0.3727 -0.1991
12488TIP3    H158879   5.514   3.063  16.487  0.0982  0.0270  0.6041
12488TIP3    H258880   5.371   3.077  16.439  0.2318 -0.6211 -0.0026
12489TIP3   OH258881   4.139   2.027   5.248  0.3910 -0.4509 -0.5522
12489TIP3    H158882   4.102   2.065   5.169 -2.0965 -1.8256 -0.1599
12489TIP3    H258883   4.066   2.025   5.310  2.0688 -0.0763  1.5779
12490TIP3   OH258884   5.497   1.872   0.132 -0.4765 -0.0711  0.8025
12490TIP3    H158885   5.562   1.864   0.202  1.5743 -0.1677 -1.0210
12490TIP3    H258886   5.528   1.946   0.079 -1.9119 -0.0690 -0.0853
12491TIP3   OH258887   3.775   1.776   4.528  0.2041  0.1491 -0.7026
12491TIP3    H158888   3.714   1.849   4.521 -1.2289 -0.9827 -0.5630
12491TIP3    H258889   3.840   1.805   4.593 -0.8320  0.9647  0.0083
12492TIP3   OH258890   5.299   4.868  12.975 -0.4738 -0.0925 -0.8221
12492TIP3    H158891   5.312   4.963  12.972  0.0061 -0.1713 -2.1787
12492TIP3    H258892   5.330   4.842  13.062  0.9823  0.7880 -1.0385
12493TIP3   OH258893   5.157   0.708  12.023  0.2392 -0.4916  0.5325
12493TIP3    H158894   5.097   0.714  11.948  0.7458  2.5937  0.2496
12493TIP3    H258895   5.230   0.656  11.991  0.1698  0.2621 -0.9762
12494TIP3   OH258896   1.578   5.025  13.544  0.2726 -0.0917  0.3406
12494TIP3    H158897   1.528   5.057  13.620 -1.2678 -3.0286  0.6986
12494TIP3    H258898   1.645   4.969  13.581  1.0924  0.3927 -0.3811
12495TIP3   OH258899   3.985   0.516  12.745 -0.4514  0.6779 -0.2026
12495TIP3    H158900   3.980   0.536  12.651 -0.9801  0.9379 -0.1269
12495TIP3    H258901   4.016   0.598  12.785  2.8599 -0.3305 -0.4465
12496TIP3   OH258902   4.938   0.237   3.866 -0.1130  0.5444 -0.4111
12496TIP3    H158903   4.893   0.188   3.935 -0.7793  1.3061 -0.2839
12496TIP3    H258904   4.955   0.173   3.798  2.0539 -0.6124  1.1206
12497TIP3   OH258905   1.411   1.053   6.254 -0.1035 -0.0896  0.3338
12497TIP3    H158906   1.438   0.971   6.212  1.0376  0.8374 -0.8223
12497TIP3    H258907   1.465   1.120   6.213  1.1202  0.9249  3.3321
12498TIP3   OH258908   0.802   5.917  14.901 -0.1193  0.2958  0.2574
12498TIP3    H158909   0.891   5.899  14.933  0.1519  0.9164 -0.1238
12498TIP3    H258910   0.790   5.857  14.828  1.4311  2.6494 -2.1284
12499TIP3   OH258911   0.561   0.701   5.483  0.0443 -0.0532 -0.0214
12499TIP3    H158912   0.532   0.647   5.556  0.1987 -1.2672 -0.8230
12499TIP3    H258913   0.540   0.790   5.509  2.6850 -0.0958  2.7735
12500TIP3   OH258914   1.282   6.558   1.799 -0.3542 -0.2623  0.1366
12500TIP3    H158915   1.245   6.559   1.711 -0.1113 -0.2077  0.0335
12500TIP3    H258916   1.363   6.608   1.792  0.1214 -1.0142  0.1898
12501TIP3   OH258917   1.763   2.009  13.501  0.1184 -0.3888 -0.3155
12501TIP3    H158918   1.830   2.073  13.528 -2.0463  0.8946  2.5845
12501TIP3    H258919   1.756   2.020  13.407  1.3040  2.2058 -0.1858
12502TIP3   OH258920   2.647   6.571  16.127  0.1885  0.2906  0.2438
12502TIP3    H158921   2.693   6.565  16.210  0.1686 -1.5970  0.1635
12502TIP3    H258922   2.695   6.637  16.077  1.7782 -0.4041  0.8025
12503TIP3   OH258923   4.338   2.832   5.889 -0.1351  0.5481  0.2070
12503TIP3    H158924   4.340   2.877   5.805 -1.0017 -0.6378 -0.4933
12503TIP3    H258925   4.408   2.768   5.884  0.2538  0.9315  0.6719
12504TIP3   OH258926   4.392   2.585   4.923  0.1054  0.0247  0.1243
12504TIP3    H158927   4.325   2.631   4.873  0.1568  1.7717  1.5602
12504TIP3    H258928   4.405   2.639   5.002  1.4028 -1.5830  1.0853
12505TIP3   OH258929   1.102   0.625   4.657 -0.4892  0.1252 -0.1831
12505TIP3    H158930   1.160   0.676   4.599 -0.2725 -0.4295 -0.4579
12505TIP3    H258931   1.016   0.664   4.643 -0.1861  0.9927  0.2642
12506TIP3   OH258932   0.737   3.204   0.106  0.2516  0.3654  0.4536
12506TIP3    H158933   0.832   3.220   0.101  0.4999 -1.1499 -0.4291
12506TIP3    H258934   0.711   3.241   0.190  1.9301 -0.5566  1.4510
12507TIP3   OH258935   4.682   4.164   3.311 -0.2054  0.7002  0.1635
12507TIP3    H158936   4.749   4.215   3.266 -0.5632  1.9011  0.9287
12507TIP3    H258937   4.708   4.073   3.300  0.4065  1.0360 -1.3329
12508TIP3   OH258938   2.857   3.023   0.771  0.3473 -0.5001 -0.0881
12508TIP3    H158939   2.921   3.011   0.841  0.7225  0.8305 -0.1813
12508TIP3    H258940   2.905   3.065   0.700 -0.5305  0.1627 -0.3055
12509TIP3   OH258941   5.968   1.426   5.763 -0.0213  0.0914  0.7311
12509TIP3    H158942   5.903   1.486   5.799 -1.0631 -0.0663 -0.7741
12509TIP3    H258943   5.977   1.357   5.829  0.9409  1.6797  2.3348
12510TIP3   OH258944   4.920   1.275  14.159  0.1753 -0.1385  0.1546
12510TIP3    H158945   5.014   1.257  14.157 -0.2917 -2.9356  0.1820
12510TIP3    H258946   4.884   1.213  14.222 -1.4912  2.3068  1.8239
12511TIP3   OH258947   6.730   4.320   1.912 -0.1921 -0.3424  0.2596
12511TIP3    H158948   6.768   4.291   1.996 -0.4606 -0.8014  0.2229
12511TIP3    H258949   6.740   4.415   1.913  0.9912 -0.4520  0.2425
12512TIP3   OH258950   1.254   3.912   0.719 -0.4082  0.1703 -0.3681
12512TIP3    H158951   1.286   3.849   0.785  1.1104  0.4283 -0.8212
12512TIP3    H258952   1.283   3.875   0.635 -0.5806  0.8548 -0.7319
12513TIP3   OH258953   0.579   6.496  11.760  0.2152  0.1785  0.0238
12513TIP3    H158954   0.528   6.542  11.827  2.7814  0.4158  1.9769
12513TIP3    H258955   0.534   6.413  11.748 -1.9754  1.3399 -0.2154
12514TIP3   OH258956   4.556   1.711  14.738 -0.5900 -0.0341 -0.2018
12514TIP3    H158957   4.539   1.793  14.785  1.7994 -0.0521  0.8609
12514TIP3    H258958   4.632   1.731  14.683 -0.3620 -1.3629 -0.3901
12515TIP3   OH258959   6.097   6.040  13.299 -0.0728 -0.2997 -0.2863
12515TIP3    H158960   6.158   6.068  13.368  0.5015 -0.7142 -0.6186
12515TIP3    H258961   6.153   6.014  13.226 -0.6677 -0.1939 -0.7895
12516TIP3   OH258962   1.956   6.434   4.370  0.1749 -0.1496  0.3345
12516TIP3    H158963   2.041   6.409   4.405 -0.0875  2.1220  2.9809
12516TIP3    H258964   1.975   6.488   4.293  1.0902 -0.4460  0.3525
12517TIP3   OH258965   2.446   2.415   5.005  0.4768  0.0952  0.6452
12517TIP3    H158966   2.535   2.428   5.035  0.2242 -0.2951  1.5892
12517TIP3    H258967   2.416   2.336   5.051  1.0728 -2.4300 -2.8509
12518TIP3   OH258968   4.344   1.615   5.606 -0.5245  0.2564 -0.1279
12518TIP3    H158969   4.391   1.575   5.533 -0.4397  2.1288 -1.1603
12518TIP3    H258970   4.257   1.634   5.571 -0.7769  0.3827  0.5412
12519TIP3   OH258971   2.392   0.005   4.622  0.5413  0.4000  0.6863
12519TIP3    H158972   2.393  -0.007   4.527  1.4955 -0.0785  0.7361
12519TIP3    H258973   2.388  -0.084   4.658  0.8127  0.5459  1.0885
12520TIP3   OH258974   1.738   1.685   2.839  0.8270 -0.0388  0.5660
12520TIP3    H158975   1.672   1.747   2.808  1.2001  0.0185 -0.1563
12520TIP3    H258976   1.820   1.717   2.800  1.1318 -0.6089  0.7289
12521TIP3   OH258977   2.806   0.808   2.848  0.3482  0.8835  0.8267
12521TIP3    H158978   2.821   0.890   2.802  2.2925  0.9177  1.4255
12521TIP3    H258979   2.787   0.834   2.939  1.1727  0.6786  1.0634
12522TIP3   OH258980   6.358   6.582   5.401 -0.4349  0.2878  0.4284
12522TIP3    H158981   6.426   6.628   5.351 -1.3278  1.4866  0.2658
12522TIP3    H258982   6.394   6.576   5.490 -0.0594  0.7930  0.3134
12523TIP3   OH258983   4.612   2.369  13.525 -0.3355 -0.6755 -0.2655
12523TIP3    H158984   4.662   2.381  13.606 -1.1591  0.8763  0.0445
12523TIP3    H258985   4.674   2.394  13.455 -0.7795  1.8409  0.1509
12524TIP3   OH258986   2.797   3.974  10.782 -1.0528 -0.1053  0.4521
12524TIP3    H158987   2.796   3.881  10.758 -0.9900  0.1527 -0.5711
12524TIP3    H258988   2.704   3.998  10.784 -1.0316  0.0303 -0.1606
12525TIP3   OH258989   0.192   3.555  12.907 -0.1859  0.1465  0.0278
12525TIP3    H158990   0.242   3.486  12.950  0.5847  1.0166  0.5693
12525TIP3    H258991   0.215   3.547  12.814  1.1314  0.6471  0.2862
12526TIP3   OH258992   4.680   4.454   4.757 -0.2115 -0.1910  0.1665
12526TIP3    H158993   4.771   4.433   4.736  0.8819  0.8337  3.2965
12526TIP3    H258994   4.653   4.384   4.817  0.3876  2.0930  3.3552
12527TIP3   OH258995   3.494   4.791  13.136 -0.4506  0.2564  0.2916
12527TIP3    H158996   3.468   4.704  13.166  0.3732 -0.6881 -1.5959
12527TIP3    H258997   3.532   4.777  13.049  0.2724  2.4262  0.1874
12528TIP3   OH258998   2.980   2.283   6.521 -0.2068  0.0057 -0.1165
12528TIP3    H158999   2.920   2.356   6.506  0.8212  0.7409 -0.7130
12528TIP3    H259000   3.014   2.298   6.609  1.1936  1.1526 -0.8142
12529TIP3   OH259001   4.431   1.816   3.548  0.0419  0.1067  0.1611
12529TIP3    H159002   4.445   1.910   3.543  1.4554 -0.1029 -0.2914
12529TIP3    H259003   4.471   1.781   3.469  1.3177 -1.0397  1.2576
12530TIP3   OH259004   5.515   3.739  13.050 -0.0704  0.0985 -0.1128
12530TIP3    H159005   5.460   3.772  12.979  1.1736 -0.0603 -1.1825
12530TIP3    H259006   5.521   3.812  13.111 -0.7324  0.4129 -0.4076
12531TIP3   OH259007   6.042   2.174  15.011  0.0802 -0.1464  0.9064
12531TIP3    H159008   6.036   2.136  15.099  2.2396  1.4134  1.7933
12531TIP3    H259009   6.093   2.111  14.961  1.2888  0.2583  1.5988
12532TIP3   OH259010   4.819   2.391   4.980 -0.0133 -0.0731 -0.2904
12532TIP3    H159011   4.760   2.460   5.012 -0.9959 -0.8162 -0.4805
12532TIP3    H259012   4.895   2.439   4.945  0.1983  0.8408  1.3061
12533TIP3   OH259013   4.821   0.671   0.643 -0.4530 -0.1711  0.0249
12533TIP3    H159014   4.735   0.639   0.673 -0.4072  0.6036  1.0045
12533TIP3    H259015   4.825   0.761   0.674 -0.3626  0.6799 -2.2519
12534TIP3   OH259016   6.020   2.416   5.748  0.0234  0.2038 -0.5209
12534TIP3    H159017   6.013   2.324   5.770 -1.8152 -0.1675 -2.3428
12534TIP3    H259018   6.110   2.440   5.771 -0.3505 -1.1761  2.8294
12535TIP3   OH259019   4.590   5.672   1.560 -0.0240 -0.3877 -0.7928
12535TIP3    H159020   4.579   5.692   1.467  0.4818 -1.2634 -1.0549
12535TIP3    H259021   4.650   5.598   1.561 -2.0408 -2.1179  0.1045
12536TIP3   OH259022   6.794   4.028   3.135 -0.4425 -0.3523 -0.5577
12536TIP3    H159023   6.700   4.041   3.123 -0.7823 -1.1930  0.9525
12536TIP3    H259024   6.814   4.070   3.218  0.5225 -0.2078 -0.8474
12537TIP3   OH259025   4.834   3.069  12.162 -0.2905  0.3777  0.4435
12537TIP3    H159026   4.867   2.979  12.150  2.2162  1.3087 -0.3495
12537TIP3    H259027   4.747   3.067  12.122  0.3906 -1.3154 -1.1459
12538TIP3   OH259028   1.590   4.217  11.628  0.8830  0.0824 -0.3807
12538TIP3    H159029   1.577   4.132  11.669 -0.3771  0.4164 -0.0340
12538TIP3    H259030   1.508   4.233  11.580  0.6886  1.5168  0.3666
12539TIP3   OH259031   1.117   6.218  13.483  1.0574 -0.0475  0.5318
12539TIP3    H159032   1.170   6.243  13.408  0.8055 -2.6630 -0.6365
12539TIP3    H259033   1.028   6.214  13.450  0.7061  0.2716  1.4009
12540TIP3   OH259034   5.596   5.897  12.605  0.1056 -0.9861  0.4627
12540TIP3    H159035   5.662   5.940  12.659  0.1456 -1.6066  0.9228
12540TIP3    H259036   5.646   5.832  12.555 -0.2405 -1.9863  1.3741
12541TIP3   OH259037   4.223   6.706   2.578 -0.4362  0.5571  0.3045
12541TIP3    H159038   4.292   6.708   2.513 -1.0351  0.3071 -0.3537
12541TIP3    H259039   4.241   6.628   2.630 -1.4709 -0.8261 -1.2936
12542TIP3   OH259040   2.013   2.129  13.816  0.5321  0.6848 -0.2359
12542TIP3    H159041   1.949   2.200  13.820 -1.3105 -0.9487  1.2154
12542TIP3    H259042   2.061   2.135  13.899  1.2011  0.9290 -0.6304
12543TIP3   OH259043   2.281   1.604  12.344  0.4720  0.4785 -0.0149
12543TIP3    H159044   2.320   1.557  12.417 -0.2739 -1.3381 -0.7396
12543TIP3    H259045   2.346   1.670  12.320  1.4307 -0.0041  1.2030
12544TIP3   OH259046   5.281   1.393   1.186  0.1728  0.3153  0.2491
12544TIP3    H159047   5.305   1.482   1.161  3.1919  0.2007  2.1812
12544TIP3    H259048   5.186   1.393   1.190  0.0441  3.0523 -1.0879
12545TIP3   OH259049   5.141   0.500  15.972 -0.0396 -0.3240 -0.0866
12545TIP3    H159050   5.107   0.448  16.045 -0.3754  0.1081  0.0708
12545TIP3    H259051   5.149   0.589  16.007 -1.9320  0.2992 -1.0469
12546TIP3   OH259052   6.608   1.938   0.717  0.3079 -0.0268  0.0592
12546TIP3    H159053   6.582   2.009   0.776 -0.1809  0.6973 -1.0071
12546TIP3    H259054   6.704   1.944   0.715  0.2248  1.8360 -1.4420
12547TIP3   OH259055   2.858   2.645   4.960  0.1387 -0.1849  0.4951
12547TIP3    H159056   2.815   2.669   5.042 -0.5650  1.4710 -0.3010
12547TIP3    H259057   2.909   2.723   4.937 -1.6774  0.4071 -1.8859
12548TIP3   OH259058   1.276   3.230   2.070 -0.0873  0.2816 -0.2878
12548TIP3    H159059   1.219   3.176   2.123  0.4757  0.0204  0.0649
12548TIP3    H259060   1.217   3.285   2.019 -0.6458  0.0278  0.0765
12549TIP3   OH259061   5.988   4.139   6.566 -0.6481 -0.9361 -0.0793
12549TIP3    H159062   5.974   4.228   6.533 -0.5992 -1.4163 -1.4523
12549TIP3    H259063   5.904   4.096   6.553 -0.8398 -0.9552  1.1021
12550TIP3   OH259064   2.321   2.246  13.195  0.1246 -0.2754  0.1030
12550TIP3    H159065   2.340   2.168  13.144 -0.6060 -0.7447  0.5357
12550TIP3    H259066   2.395   2.304  13.179  0.6871 -1.0684 -0.1888
12551TIP3   OH259067   0.424   1.644  12.348  0.1169 -0.1727  0.0242
12551TIP3    H159068   0.450   1.587  12.421  1.5106 -0.1118 -0.3858
12551TIP3    H259069   0.502   1.647  12.292 -1.1562 -0.7854 -1.8527
12552TIP3   OH259070   3.722   5.393  13.043  0.1724 -0.2264 -0.2436
12552TIP3    H159071   3.808   5.371  13.009  0.4336  0.7656 -0.2326
12552TIP3    H259072   3.733   5.477  13.086 -0.7011 -0.3041  0.1626
12553TIP3   OH259073   4.087   3.030   5.360  0.5369 -0.2908  0.4418
12553TIP3    H159074   4.143   3.107   5.354  0.5663 -0.2385  1.2361
12553TIP3    H259075   3.999   3.062   5.341  0.4382  0.0991  1.4896
12554TIP3   OH259076   5.446   4.515   3.625 -0.2910 -0.5878  0.9435
12554TIP3    H159077   5.364   4.502   3.578 -0.0812  0.1863  0.3251
12554TIP3    H259078   5.438   4.461   3.704 -0.8280 -1.5766  0.2302
12555TIP3   OH259079   6.736   1.293   4.587  0.1276  0.1382 -0.1711
12555TIP3    H159080   6.693   1.248   4.514 -1.6506 -0.0866  0.9532
12555TIP3    H259081   6.808   1.235   4.612 -0.1087 -0.4554 -0.8497
12556TIP3   OH259082   4.852   6.781  11.229  0.4785  0.5931 -0.2983
12556TIP3    H159083   4.813   6.718  11.169 -0.5724  1.6611 -0.7588
12556TIP3    H259084   4.789   6.791  11.300  1.6384 -0.5426  0.9616
12557TIP3   OH259085   1.601   3.938  10.952  0.4705 -0.0170 -0.0436
12557TIP3    H159086   1.596   3.844  10.938 -0.1580 -0.4392  2.5417
12557TIP3    H259087   1.636   3.973  10.870 -0.4037 -2.3422 -1.4867
12558TIP3   OH259088   4.589   5.436  15.227 -0.3511 -0.2137  0.1005
12558TIP3    H159089   4.670   5.390  15.249 -0.1606 -0.8919 -1.8163
12558TIP3    H259090   4.533   5.369  15.188 -1.3898  0.4996  0.3312
12559TIP3   OH259091   0.324   4.251  15.148 -0.2532 -0.4214  0.0093
12559TIP3    H159092   0.276   4.253  15.231  0.3826  0.8002  0.3835
12559TIP3    H259093   0.272   4.306  15.089  0.1922  0.1584  0.1450
12560TIP3   OH259094   4.648   4.391   0.329 -0.4100  0.4366 -0.0274
12560TIP3    H159095   4.641   4.472   0.279 -2.2374 -0.9065 -2.1447
12560TIP3    H259096   4.693   4.331   0.271  0.2707 -0.2987  1.2296
12561TIP3   OH259097   6.156   3.015   0.009 -0.1992  0.2097 -0.2144
12561TIP3    H159098   6.229   3.038   0.066  0.1808 -2.3288  0.4378
12561TIP3    H259099   6.078   3.047   0.055  0.2991  0.4354  0.4878
12562TIP3   OH259100   4.852   0.455   5.161  0.2851 -0.6550  0.8290
12562TIP3    H159101   4.920   0.523   5.158  0.5984 -0.9316  1.4108
12562TIP3    H259102   4.781   0.494   5.212 -0.8703  0.3837 -1.4499
12563TIP3   OH259103   3.077   0.771   2.968  0.3062  0.0958  0.0984
12563TIP3    H159104   3.117   0.855   2.993 -0.2218  0.3585  0.0574
12563TIP3    H259105   3.031   0.790   2.887  0.0118 -0.1860  0.2005
12564TIP3   OH259106   2.618   1.414  11.050 -0.0660  0.4351  0.5996
12564TIP3    H159107   2.698   1.361  11.048 -1.1587 -1.3256  1.2576
12564TIP3    H259108   2.591   1.411  11.142 -0.3596  1.8669  0.5718
12565TIP3   OH259109   0.127   2.726   6.022  0.1912  0.6494  0.1160
12565TIP3    H159110   0.136   2.781   6.100 -1.5147  1.1954 -0.0355
12565TIP3    H259111   0.054   2.668   6.043 -1.3705  1.8767 -1.6456
12566TIP3   OH259112   0.902   5.454   0.071  0.2178 -0.1452  0.4551
12566TIP3    H159113   0.995   5.436   0.085  0.5540 -0.9712 -2.2528
12566TIP3    H259114   0.857   5.395   0.131  1.4077 -0.2133  1.3304
12567TIP3   OH259115   6.300   6.481  11.861 -0.6006 -0.4114  0.0706
12567TIP3    H159116   6.318   6.388  11.875  1.0460 -0.0294  0.7009
12567TIP3    H259117   6.328   6.498  11.772  0.3304 -0.2605  0.3812
12568TIP3   OH259118   0.487   5.684   2.996  0.2547 -0.0854  0.2459
12568TIP3    H159119   0.516   5.609   3.049  0.3526 -0.8118 -0.7926
12568TIP3    H259120   0.458   5.749   3.059 -1.0129 -1.4870  1.1552
12569TIP3   OH259121   2.826   3.641  15.494  0.6095 -0.4680 -0.6188
12569TIP3    H159122   2.886   3.715  15.496 -1.0959  0.9636 -0.8125
12569TIP3    H259123   2.869   3.577  15.438  2.7239 -0.2096  0.6053
12570TIP3   OH259124   0.932   5.878  10.693 -0.0570  1.0943 -0.2701
12570TIP3    H159125   0.892   5.953  10.648  0.4821 -0.0926 -2.9323
12570TIP3    H259126   0.999   5.847  10.633  0.6693 -0.7136  1.3665
12571TIP3   OH259127   6.454   6.615   4.769  0.3990  1.0405 -0.3404
12571TIP3    H159128   6.493   6.689   4.724  0.6557  2.4008  1.9854
12571TIP3    H259129   6.430   6.648   4.856 -0.9961 -1.1636  0.2183
12572TIP3   OH259130   1.618   4.224  16.146 -0.0101 -0.4854  0.1379
12572TIP3    H159131   1.592   4.305  16.102  0.2543 -0.4444  0.0517
12572TIP3    H259132   1.597   4.239  16.239  0.4194 -0.1550  0.1871
12573TIP3   OH259133   1.859   6.569  13.314 -0.7167  0.4466  0.6691
12573TIP3    H159134   1.934   6.612  13.356  0.7990 -1.0345 -0.4191
12573TIP3    H259135   1.867   6.592  13.222  0.5860 -2.6373 -0.0998
12574TIP3   OH259136   1.349   6.325  15.877  0.0249 -0.6801  0.4462
12574TIP3    H159137   1.396   6.403  15.905 -0.7672  1.2724 -3.1552
12574TIP3    H259138   1.281   6.313  15.944  1.9187 -0.1291  2.6082
12575TIP3   OH259139   0.012   3.485   0.827 -0.2680 -0.5267  0.4096
12575TIP3    H159140  -0.055   3.551   0.840  1.1515  1.2124 -0.5775
12575TIP3    H259141  -0.019   3.433   0.753 -1.7799 -1.5556  1.7045
12576TIP3   OH259142   1.737   2.605   1.453  0.0575  0.4767  0.0361
12576TIP3    H159143   1.827   2.619   1.424  0.1808 -1.8936 -0.9534
12576TIP3    H259144   1.720   2.513   1.435 -2.1368  0.5240  1.4612
12577TIP3   OH259145   1.459   6.196  12.474  0.5313  0.0356  0.8935
12577TIP3    H159146   1.528   6.256  12.446  0.1427  0.1335  0.1086
12577TIP3    H259147   1.439   6.222  12.563  1.0719  0.4123  0.9102
12578TIP3   OH259148   6.493   0.930   3.364  0.0563 -0.6776 -0.1849
12578TIP3    H159149   6.503   0.967   3.276  0.4273  1.6881  0.7563
12578TIP3    H259150   6.468   1.005   3.419 -1.4757 -2.3198  1.5232
12579TIP3   OH259151   0.855   6.028  13.016  0.5984 -0.3851 -0.0077
12579TIP3    H159152   0.846   6.079  12.936  0.4506  1.0041  0.8705
12579TIP3    H259153   0.797   6.071  13.079  0.9387 -1.2698  0.9389
12580TIP3   OH259154   2.406   2.952  14.622 -0.0529  0.8365 -0.3639
12580TIP3    H159155   2.437   2.864  14.643 -0.8791  0.4686 -0.6200
12580TIP3    H259156   2.432   2.966  14.531  1.8867  1.6905  0.2814
12581TIP3   OH259157   2.335   3.966  14.426  0.6682 -0.7884  0.2418
12581TIP3    H159158   2.405   3.979  14.490 -0.2498  0.2266  1.0912
12581TIP3    H259159   2.363   4.018  14.350  0.1462  0.9386  1.1672
12582TIP3   OH259160   6.241   1.512   3.845 -0.6018 -0.0806 -0.6586
12582TIP3    H159161   6.303   1.526   3.774 -1.5529 -0.7624 -1.6687
12582TIP3    H259162   6.166   1.567   3.823 -1.0208 -0.5098 -0.3446
12583TIP3   OH259163   3.200   1.218  16.608 -0.1856 -0.6173 -0.0069
12583TIP3    H159164   3.145   1.224  16.685  0.7445 -2.2979  0.8510
12583TIP3    H259165   3.289   1.232  16.640  0.3810 -2.8093 -0.4547
12584TIP3   OH259166   0.032   5.446   2.789  0.1747 -0.2535 -0.0318
12584TIP3    H159167   0.114   5.492   2.805  1.4679 -1.6251 -2.1378
12584TIP3    H259168   0.056   5.353   2.790 -0.9424 -0.6419 -2.3550
12585TIP3   OH259169   4.379   1.735   0.021 -0.2774 -0.6111  0.4899
12585TIP3    H159170   4.347   1.656  -0.023 -0.5445  0.8226 -2.0910
12585TIP3    H259171   4.464   1.753  -0.020 -0.1917  0.4189  1.0759
12586TIP3   OH259172   0.723   6.057   1.771 -0.3816  0.5376  0.3130
12586TIP3    H159173   0.749   5.989   1.834 -2.4993 -0.6002  0.0449
12586TIP3    H259174   0.798   6.064   1.712  0.7516  0.0115  1.6189
12587TIP3   OH259175   3.354   1.902   1.432 -0.0911 -0.0486  0.2209
12587TIP3    H159176   3.345   1.852   1.513  3.1078 -0.3243  0.5407
12587TIP3    H259177   3.372   1.991   1.460  0.2755  0.0111 -0.1912
12588TIP3   OH259178   3.576   4.338   5.609 -0.3846  0.2259 -0.3513
12588TIP3    H159179   3.488   4.312   5.583 -1.1583  0.8139  1.5459
12588TIP3    H259180   3.574   4.434   5.609 -0.6456  0.2821  2.3755
12589TIP3   OH259181   1.362   5.105   0.688 -0.2565  0.3465 -0.7155
12589TIP3    H159182   1.400   5.191   0.674  0.9309  0.0525  0.4516
12589TIP3    H259183   1.302   5.116   0.762  2.4781 -0.4294  1.7976
12590TIP3   OH259184   6.403   1.299  15.668  0.0670 -0.2992  0.7577
12590TIP3    H159185   6.440   1.214  15.690 -0.8033 -0.8576  0.1392
12590TIP3    H259186   6.476   1.348  15.630  0.8789 -0.3176  2.2202
12591TIP3   OH259187   5.525   0.856  14.516 -0.2347 -0.1842  0.2299
12591TIP3    H159188   5.588   0.845  14.444  1.8129  0.1797  1.8715
12591TIP3    H259189   5.511   0.767  14.549  2.6031  0.0067  2.3303
12592TIP3   OH259190   2.068   5.565  11.498  0.0157 -0.1755  0.2930
12592TIP3    H159191   2.071   5.476  11.533  1.5905 -1.6396 -3.1273
12592TIP3    H259192   2.152   5.604  11.524  1.7240 -1.6744 -2.4834
12593TIP3   OH259193   2.681   4.974   5.680 -0.8189 -0.8721  0.1411
12593TIP3    H159194   2.636   5.055   5.702  0.4317 -0.5925  1.8987
12593TIP3    H259195   2.647   4.950   5.594  2.3786  4.1970 -3.0599
12594TIP3   OH259196   5.206   0.746   0.620  0.9215  0.2832  0.2792
12594TIP3    H159197   5.286   0.703   0.590  1.2045  0.2638  1.0274
12594TIP3    H259198   5.237   0.812   0.682  0.5279  1.7481 -0.9992
12595TIP3   OH259199   2.062   6.042  12.583  0.3739 -0.2753  0.0677
12595TIP3    H159200   2.050   6.083  12.668 -0.4728 -0.1117 -0.1216
12595TIP3    H259201   2.132   5.977  12.597  0.0478 -0.4458  0.9450
12596TIP3   OH259202   4.883   5.850   3.623 -0.3344 -0.1646 -0.2929
12596TIP3    H159203   4.877   5.788   3.551 -1.9380 -1.0487  0.5479
12596TIP3    H259204   4.977   5.863   3.636  0.0126 -1.5783 -1.2022
12597TIP3   OH259205   1.182   6.144  12.180  0.2385  0.0965 -0.0837
12597TIP3    H159206   1.188   6.234  12.212  2.7642 -0.3326  0.8759
12597TIP3    H259207   1.178   6.152  12.085  2.2622  1.2401 -0.1277
12598TIP3   OH259208   6.432   1.591  14.096  0.5098 -0.3929  0.4315
12598TIP3    H159209   6.396   1.670  14.055 -0.0478 -0.5336  0.6491
12598TIP3    H259210   6.489   1.554  14.029  0.5657  0.0457  0.2273
12599TIP3   OH259211   4.691   2.447  12.962  0.3233  0.0406 -0.8064
12599TIP3    H159212   4.750   2.507  12.916  2.4279 -1.0426  0.3090
12599TIP3    H259213   4.746   2.371  12.983 -1.4439 -0.9596  0.4586
12600TIP3   OH259214   5.228   2.380   5.966  0.0774 -0.0934  0.1686
12600TIP3    H159215   5.191   2.293   5.972  0.6762 -0.3662  0.0205
12600TIP3    H259216   5.271   2.382   5.880 -1.6094  1.0159 -0.7063
12601TIP3   OH259217   2.322   2.891  16.717  0.0530 -0.0764  0.8646
12601TIP3    H159218   2.341   2.970  16.666 -0.6209 -0.6253 -0.3046
12601TIP3    H259219   2.407   2.853  16.736  0.3563  0.6052  0.9075
12602TIP3   OH259220   0.321   3.761  11.764 -0.0051 -0.3179 -0.2085
12602TIP3    H159221   0.244   3.818  11.766 -0.5008 -0.9461 -0.7335
12602TIP3    H259222   0.288   3.678  11.728  0.9199 -0.5873 -0.4556
12603TIP3   OH259223   0.066   5.853  11.810 -0.0148  0.4520  0.6579
12603TIP3    H159224   0.149   5.810  11.831  0.1828  0.7977  0.5922
12603TIP3    H259225   0.030   5.801  11.738  0.7343  1.0107 -0.1383
12604TIP3   OH259226   6.764   5.771   1.785 -0.0863 -0.4855 -0.1118
12604TIP3    H159227   6.843   5.718   1.779  0.7527  0.6996  0.1221
12604TIP3    H259228   6.706   5.720   1.841  0.1356 -1.7929 -1.0069
12605TIP3   OH259229   5.382   5.519   4.516 -0.1911 -0.4146 -0.5720
12605TIP3    H159230   5.305   5.568   4.544 -0.6028 -1.3846  0.0411
12605TIP3    H259231   5.449   5.541   4.581 -0.1354 -0.0690 -0.7427
12606TIP3   OH259232   1.889   0.365  12.725 -0.1629  0.0198  0.1554
12606TIP3    H159233   1.977   0.402  12.737  0.8290 -2.2481  0.3089
12606TIP3    H259234   1.877   0.364  12.630 -0.2303  0.7182  0.1457
12607TIP3   OH259235   2.746   0.941   2.227 -0.3273  0.3430  0.0456
12607TIP3    H159236   2.700   0.862   2.255 -1.1041  1.6988  2.9044
12607TIP3    H259237   2.677   1.005   2.212  0.4380  1.6982  2.0197
12608TIP3   OH259238   1.496   1.374   1.207  0.7782 -0.0251 -0.9980
12608TIP3    H159239   1.572   1.321   1.182  1.2279 -0.2408  0.6874
12608TIP3    H259240   1.420   1.322   1.180  1.2229 -0.2768 -1.7839
12609TIP3   OH259241   1.041   3.427  11.836  0.1853  0.4404 -0.3558
12609TIP3    H159242   0.988   3.384  11.769  0.6763  0.7176 -0.9319
12609TIP3    H259243   1.107   3.362  11.860 -1.4370 -0.5892  1.6669
12610TIP3   OH259244   4.887   1.469   2.256 -0.0202 -0.7276 -0.5245
12610TIP3    H159245   4.897   1.544   2.198 -0.7150 -0.7031 -0.6151
12610TIP3    H259246   4.976   1.449   2.284 -0.0299  2.1960  2.1606
12611TIP3   OH259247   0.684   2.041   2.338 -0.1108  0.0002 -0.2086
12611TIP3    H159248   0.613   1.982   2.363 -1.5488  1.5605 -0.3887
12611TIP3    H259249   0.646   2.098   2.271  1.7318  0.0540 -1.2947
12612TIP3   OH259250   4.233   0.558  13.042 -0.3703  1.0865  0.2253
12612TIP3    H159251   4.224   0.652  13.059  0.8432  0.8348  2.8107
12612TIP3    H259252   4.326   0.547  13.021 -0.2923  0.3602  0.9174
12613TIP3   OH259253   3.311   5.697   3.716  0.2431  0.1857  0.0791
12613TIP3    H159254   3.326   5.774   3.661  0.6177 -0.5174 -0.8431
12613TIP3    H259255   3.385   5.696   3.777 -0.6884  1.5188  1.2931
12614TIP3   OH259256   5.788   6.332  16.141 -0.0584 -0.0825 -0.0414
12614TIP3    H159257   5.791   6.251  16.090  1.0454  0.4652 -0.9137
12614TIP3    H259258   5.768   6.304  16.230  1.9922 -1.5351  0.0362
12615TIP3   OH259259   4.436   1.422  15.826 -0.0922 -0.3345 -0.3634
12615TIP3    H159260   4.432   1.328  15.840  0.2938 -0.6750 -2.2725
12615TIP3    H259261   4.348   1.447  15.799 -0.6559  0.1960  1.7864
12616TIP3   OH259262   6.393   1.096  13.453  0.3272  0.3756 -0.0865
12616TIP3    H159263   6.430   1.057  13.374  1.0019  1.3009 -0.2376
12616TIP3    H259264   6.301   1.110  13.433  0.4703  0.4971 -0.6611
12617TIP3   OH259265   4.793   2.771  13.301 -0.0994  0.0429  0.4499
12617TIP3    H159266   4.801   2.860  13.335  1.5456 -0.3266  1.1162
12617TIP3    H259267   4.784   2.716  13.378 -0.6668 -0.4207  0.0623
12618TIP3   OH259268   5.552   2.170   5.005 -0.4501  0.1245  0.6837
12618TIP3    H159269   5.604   2.177   4.926  0.3591 -1.1118  1.0893
12618TIP3    H259270   5.517   2.081   5.004 -0.5420  0.1335  1.6336
12619TIP3   OH259271   3.298   1.567  15.463  0.7516  0.2419 -0.2686
12619TIP3    H159272   3.248   1.649  15.457  0.6614  0.3355  1.3840
12619TIP3    H259273   3.340   1.571  15.549 -0.1502 -1.9455  0.3396
12620TIP3   OH259274   0.594   1.053  11.285  0.1523 -0.8240 -0.2527
12620TIP3    H159275   0.615   1.077  11.194 -1.9769  0.3354 -0.5022
12620TIP3    H259276   0.534   1.121  11.315 -1.5215 -2.7363  1.0240
12621TIP3   OH259277   5.084   2.005  11.830  0.6234  0.1683 -0.2310
12621TIP3    H159278   5.170   1.970  11.852 -0.6335 -2.4224  0.9576
12621TIP3    H259279   5.039   2.015  11.914 -0.3685  1.1666 -0.8434
12622TIP3   OH259280   3.225   1.075  14.164 -0.1599  0.0172 -0.0489
12622TIP3    H159281   3.310   1.120  14.161  0.9749 -2.0286 -0.5765
12622TIP3    H259282   3.208   1.063  14.257  0.5131 -0.2248  0.0482
12623TIP3   OH259283   2.325   5.651   0.974  0.3212 -0.2610 -0.2928
12623TIP3    H159284   2.324   5.579   0.911 -0.4641  0.3391 -0.9777
12623TIP3    H259285   2.405   5.700   0.953  0.5727 -0.6224 -0.1799
12624TIP3   OH259286   6.589   5.237   1.889  1.0241  0.0987 -0.1755
12624TIP3    H159287   6.583   5.314   1.832  0.6038 -0.8182 -1.3836
12624TIP3    H259288   6.533   5.260   1.964  0.4430  0.7478 -0.7837
12625TIP3   OH259289   0.257   6.156   1.621 -0.3176  0.0716 -0.0979
12625TIP3    H159290   0.352   6.158   1.612 -0.3822 -0.2765 -0.9575
12625TIP3    H259291   0.225   6.194   1.539 -0.9169  0.6830  0.4088
12626TIP3   OH259292   4.627   0.228  14.880 -0.4234 -0.5060 -0.0827
12626TIP3    H159293   4.591   0.238  14.968 -2.5365  0.0743 -0.9470
12626TIP3    H259294   4.718   0.256  14.888 -0.2077 -1.6549  2.1539
12627TIP3   OH259295   5.897   4.346   1.305 -0.6585  0.1529  0.6081
12627TIP3    H159296   5.903   4.269   1.248  0.8569  0.6390  0.0460
12627TIP3    H259297   5.803   4.357   1.320 -1.1167 -0.1944 -1.5422
12628TIP3   OH259298   0.864   1.050  11.742 -0.4646  1.0162  0.2037
12628TIP3    H159299   0.894   1.140  11.732  0.1536  0.8900  0.8532
12628TIP3    H259300   0.772   1.058  11.769 -0.4528  1.4491  0.1180
12629TIP3   OH259301   2.426   1.728  16.302 -0.0170 -0.7328  0.7988
12629TIP3    H159302   2.410   1.725  16.208 -0.7513 -1.3877  0.9292
12629TIP3    H259303   2.399   1.816  16.329 -1.3117 -1.0613  0.6348
12630TIP3   OH259304   6.328   0.276  12.374  0.7689  0.6039 -0.2092
12630TIP3    H159305   6.256   0.335  12.394  0.2386 -0.2764  0.5545
12630TIP3    H259306   6.292   0.216  12.308  1.4000  1.2910 -1.2128
12631TIP3   OH259307   3.690   1.874   5.682 -0.4260  0.3060 -0.2686
12631TIP3    H159308   3.720   1.883   5.592  0.3669  1.2431  0.0844
12631TIP3    H259309   3.719   1.786   5.708 -0.3593  0.1647 -0.8048
12632TIP3   OH259310   1.316   2.057  14.009  0.4739 -0.0897 -0.7357
12632TIP3    H159311   1.231   2.098  14.027 -0.1641  0.4793 -4.3360
12632TIP3    H259312   1.358   2.049  14.095 -2.3867  1.4209  0.9293
12633TIP3   OH259313   1.415   5.540  15.226  0.3233 -0.1165  0.0074
12633TIP3    H159314   1.433   5.614  15.283 -0.1728  1.0077 -1.2570
12633TIP3    H259315   1.502   5.507  15.202  0.5608  0.4915  0.0165
12634TIP3   OH259316   6.405   4.810  11.906  0.2921 -0.1828 -0.2908
12634TIP3    H159317   6.353   4.769  11.837  2.3497  0.0430 -2.0753
12634TIP3    H259318   6.427   4.738  11.966  0.8665 -1.0026 -1.4474
12635TIP3   OH259319   2.204   6.511   5.641  0.3892 -0.0254  0.4465
12635TIP3    H159320   2.264   6.577   5.675  1.5258 -1.6674  1.8796
12635TIP3    H259321   2.247   6.476   5.563  0.0924  0.4767  0.0540
12636TIP3   OH259322   2.427   2.113   2.339  0.0231  0.1327 -0.3087
12636TIP3    H159323   2.449   2.167   2.415 -0.4011 -1.1726  0.7878
12636TIP3    H259324   2.394   2.031   2.377 -2.2610  0.2438 -1.8723
12637TIP3   OH259325   2.327   6.766  13.387 -0.2967  0.1727  0.5272
12637TIP3    H159326   2.359   6.820  13.459  2.1167 -0.7538  0.2392
12637TIP3    H259327   2.303   6.683  13.427 -1.8208  0.6362  0.6389
12638TIP3   OH259328   0.013   4.633  12.417  0.5650 -0.0116 -0.2035
12638TIP3    H159329   0.051   4.560  12.369 -1.4586 -1.1387 -0.2225
12638TIP3    H259330   0.009   4.705  12.354  2.0431 -0.0227 -0.3518
12639TIP3   OH259331   4.640   3.160  16.957 -0.4712 -0.4394  0.5877
12639TIP3    H159332   4.551   3.153  16.992 -1.6957  1.8970 -1.7318
12639TIP3    H259333   4.640   3.102  16.881 -0.2530  0.0901  0.1819
12640TIP3   OH259334   3.825   1.395   1.049 -0.1023  0.1881 -0.0862
12640TIP3    H159335   3.810   1.377   0.957 -0.1310  2.1030 -0.4957
12640TIP3    H259336   3.737   1.404   1.087 -0.0887  0.1220 -0.0395
12641TIP3   OH259337   3.181   5.215   4.808  0.7025  0.3853  0.0861
12641TIP3    H159338   3.248   5.157   4.772 -0.3931 -0.0530 -1.3481
12641TIP3    H259339   3.212   5.304   4.788  1.2628  0.2089  0.1809
12642TIP3   OH259340   4.372   6.770  11.903  0.4574 -0.1938 -0.2677
12642TIP3    H159341   4.294   6.810  11.866  1.1699  0.6104 -0.9651
12642TIP3    H259342   4.362   6.778  11.998  0.4527  1.4199 -0.3881
12643TIP3   OH259343   5.078   3.871   3.088 -0.5286 -0.3390  0.1704
12643TIP3    H159344   5.126   3.954   3.084 -1.9563  0.4795 -0.9783
12643TIP3    H259345   5.133   3.810   3.038 -0.6613  0.5825 -1.1498
12644TIP3   OH259346   1.485   2.512   5.132  0.4605 -0.0512  0.2293
12644TIP3    H159347   1.532   2.563   5.066  1.0386 -0.0940  0.6004
12644TIP3    H259348   1.545   2.442   5.156  1.1304  1.1287  2.2686
12645TIP3   OH259349   1.718   6.101  14.569  0.7354 -0.4560 -0.5837
12645TIP3    H159350   1.655   6.118  14.498 -0.7287  0.0400  0.7666
12645TIP3    H259351   1.804   6.107  14.527 -0.0824 -0.3842 -2.3504
12646TIP3   OH259352   1.719   5.224  14.316  0.0766 -0.4269 -0.0244
12646TIP3    H159353   1.721   5.167  14.239  1.3102 -0.8999  0.3340
12646TIP3    H259354   1.629   5.219  14.347 -0.5831  0.1958 -1.7385
12647TIP3   OH259355   5.416   5.376  14.746 -0.1103 -0.1775  0.1276
12647TIP3    H159356   5.439   5.288  14.717 -2.0266 -0.3128 -1.1379
12647TIP3    H259357   5.323   5.371  14.769  0.4679  0.7875  3.1638
12648TIP3   OH259358   5.877   0.972   1.087 -0.2461 -0.0300  0.1064
12648TIP3    H159359   5.787   0.993   1.062 -0.3829 -0.4043  0.2800
12648TIP3    H259360   5.889   1.016   1.171  0.1128  0.9724 -0.4502
12649TIP3   OH259361   5.226   4.322  16.655 -0.3240  0.0874 -0.2897
12649TIP3    H159362   5.154   4.318  16.592 -1.3525 -0.4008  0.8729
12649TIP3    H259363   5.256   4.413  16.651 -1.1978  0.3796 -0.6003
12650TIP3   OH259364   5.144   4.586  11.972  0.5286  0.5221 -0.2409
12650TIP3    H159365   5.098   4.654  11.923 -0.8693  0.2522  0.6248
12650TIP3    H259366   5.235   4.613  11.971 -0.1936  3.6060  1.8264
12651TIP3   OH259367   5.593   1.695  11.315 -0.1123  0.4676 -0.4710
12651TIP3    H159368   5.683   1.727  11.327  0.5825 -1.2602 -0.7142
12651TIP3    H259369   5.570   1.720  11.226  0.3476  0.4445 -0.5988
12652TIP3   OH259370   2.008   4.351   2.964  0.2627  0.5300  0.0309
12652TIP3    H159371   2.048   4.264   2.977 -0.2995  0.2272 -0.2280
12652TIP3    H259372   1.938   4.355   3.030 -0.2870  0.4263 -0.5406
12653TIP3   OH259373   4.122   4.135  17.151 -0.1209 -0.4737 -0.0864
12653TIP3    H159374   4.195   4.192  17.177  0.3855 -0.4632 -1.4166
12653TIP3    H259375   4.108   4.155  17.059 -2.7168  0.4733  0.4359
12654TIP3   OH259376   6.661   6.648  13.788  0.1582 -0.2043 -0.5354
12654TIP3    H159377   6.631   6.564  13.754 -0.6022 -0.3247  0.3775
12654TIP3    H259378   6.595   6.711  13.761 -0.4409 -0.2969  0.6299
12655TIP3   OH259379   2.127   5.572   2.724  0.0745  0.3965 -0.0314
12655TIP3    H159380   2.053   5.599   2.779 -0.5135  0.1865 -0.7009
12655TIP3    H259381   2.155   5.489   2.761 -0.1889  0.3575  0.0856
12656TIP3   OH259382   6.604   3.117  12.326  0.1181  0.1974 -0.2994
12656TIP3    H159383   6.521   3.157  12.351  0.5036  1.2436 -0.6513
12656TIP3    H259384   6.626   3.060  12.399  0.5744  2.2063  1.2183
12657TIP3   OH259385   4.793   5.831  13.768 -0.1204 -0.1605  0.3054
12657TIP3    H159386   4.863   5.896  13.759  0.1119 -0.5840 -1.2447
12657TIP3    H259387   4.728   5.856  13.703 -0.1049 -1.3583 -0.2044
12658TIP3   OH259388   2.964   1.729  16.547  0.7314  0.3580 -0.1132
12658TIP3    H159389   2.929   1.809  16.507 -0.6524 -1.0781 -2.0076
12658TIP3    H259390   2.906   1.712  16.621  0.2921  0.5069 -0.4190
12659TIP3   OH259391   5.247   6.566  15.045 -0.8048 -0.0747 -0.0664
12659TIP3    H159392   5.260   6.472  15.037  1.0730  0.1029  0.4392
12659TIP3    H259393   5.333   6.600  15.072 -1.5042  1.7474 -0.0000
12660TIP3   OH259394   3.268   4.998   1.012 -0.3565  0.3489  0.4180
12660TIP3    H159395   3.299   5.070   1.067  0.0623  0.7197 -0.2916
12660TIP3    H259396   3.247   5.039   0.928 -4.0630  0.4081  1.1694
12661TIP3   OH259397   2.726   0.047   4.970  0.1668 -0.1289  0.1903
12661TIP3    H159398   2.691   0.111   4.909 -0.3497  0.4344  1.0465
12661TIP3    H259399   2.770  -0.018   4.915  0.2051  0.6530 -0.7287
12662TIP3   OH259400   1.762   2.770  11.741  0.3698 -0.8916  0.7181
12662TIP3    H159401   1.756   2.678  11.767  1.1137 -1.3161 -0.5263
12662TIP3    H259402   1.855   2.784  11.724  0.4251  0.3854  1.8256
12663TIP3   OH259403   4.274   5.592  12.450  0.0003  0.0736  0.1689
12663TIP3    H159404   4.207   5.548  12.397  0.9973 -1.6137  0.2634
12663TIP3    H259405   4.275   5.682  12.417 -0.7206 -0.4545 -1.3775
12664TIP3   OH259406   5.423   2.118   2.768  0.3002  0.0665  0.2583
12664TIP3    H159407   5.467   2.202   2.776 -0.0447  0.2478  0.2824
12664TIP3    H259408   5.452   2.083   2.683  0.2182  0.3442  0.1144
12665TIP3   OH259409   0.538   0.699   5.125  0.7848 -0.0928  0.1093
12665TIP3    H159410   0.537   0.691   5.030  0.0358  0.8838  0.0219
12665TIP3    H259411   0.483   0.775   5.144  0.5589 -0.5391  1.3527
12666TIP3   OH259412   1.167   3.918   2.007  0.0013  0.0506 -0.3357
12666TIP3    H159413   1.233   3.886   2.068 -0.6297 -0.5993  0.0281
12666TIP3    H259414   1.095   3.947   2.063 -0.4571 -0.2580 -0.7581
12667TIP3   OH259415   0.063   0.636  13.426  0.1056 -0.6072 -0.4143
12667TIP3    H159416   0.092   0.673  13.343 -0.9820 -0.9619 -0.9678
12667TIP3    H259417  -0.030   0.657  13.432 -0.0103 -1.2460  0.3473
12668TIP3   OH259418   4.257   2.552   4.044  0.0935  0.4187 -0.2560
12668TIP3    H159419   4.165   2.551   4.070  0.1282 -0.5952 -0.1161
12668TIP3    H259420   4.287   2.462   4.059  1.6277  1.1624  1.5672
12669TIP3   OH259421   5.278   1.720  14.510  0.1970 -0.2613  0.3990
12669TIP3    H159422   5.327   1.718  14.592  0.8437 -0.5688  0.0186
12669TIP3    H259423   5.194   1.761  14.532  1.3989  2.2852  0.6811
12670TIP3   OH259424   4.098   1.787   0.232 -0.2786  0.7036  0.3007
12670TIP3    H159425   4.122   1.795   0.140 -2.0917  0.1031 -0.2862
12670TIP3    H259426   4.174   1.748   0.274 -0.8440 -3.2405 -1.8401
12671TIP3   OH259427   4.351   1.817  12.918  0.0069  0.3394 -0.2938
12671TIP3    H159428   4.328   1.741  12.971  1.0049  1.5761  2.0975
12671TIP3    H259429   4.301   1.807  12.838 -2.3382 -1.2276  1.2377
12672TIP3   OH259430   1.900   3.332  16.775 -0.2680 -0.1699 -0.7215
12672TIP3    H159431   1.975   3.392  16.770 -0.3760 -0.1164 -2.0227
12672TIP3    H259432   1.930   3.252  16.732 -0.0500 -1.1770  1.2022
12673TIP3   OH259433   4.548   2.474   3.021  0.1220 -0.3689  0.1411
12673TIP3    H159434   4.528   2.418   3.096  0.1173 -1.4478 -0.6490
12673TIP3    H259435   4.486   2.547   3.029  0.8376  0.1083  1.7677
12674TIP3   OH259436   3.309   4.496   0.420  0.4346  0.7741 -0.1879
12674TIP3    H159437   3.393   4.481   0.376 -0.1257  0.8725 -1.3223
12674TIP3    H259438   3.248   4.435   0.378 -0.1199  0.8539  0.4761
12675TIP3   OH259439   0.177   2.100  10.913  0.0894  0.3681 -0.0097
12675TIP3    H159440   0.137   2.059  10.836  0.6631  1.4678 -0.9314
12675TIP3    H259441   0.225   2.174  10.878 -0.5417  1.5797  1.5435
12676TIP3   OH259442   4.057   0.190  12.128  0.2636 -0.7129  0.1022
12676TIP3    H159443   4.018   0.144  12.202 -2.1102 -3.2694 -2.4884
12676TIP3    H259444   4.124   0.131  12.095  1.8446  0.7428  0.5913
12677TIP3   OH259445   2.379   3.138   0.598  0.2910  0.1131 -0.0753
12677TIP3    H159446   2.409   3.200   0.531  1.2529  0.8534  1.0017
12677TIP3    H259447   2.460   3.103   0.636 -0.2264 -1.7593 -0.5775
12678TIP3   OH259448   0.121   4.199   5.107 -0.1430 -0.2765  0.0167
12678TIP3    H159449   0.148   4.284   5.143  0.5846 -0.5639  0.1572
12678TIP3    H259450   0.131   4.138   5.180 -0.1309 -0.5858 -0.2404
12679TIP3   OH259451   4.059   5.868  13.822 -0.3887 -0.1854 -0.6353
12679TIP3    H159452   4.128   5.926  13.854 -0.8985  0.2106 -0.2410
12679TIP3    H259453   4.053   5.887  13.729  2.7797 -3.0306 -1.6512
12680TIP3   OH259454   3.194   0.954   1.023  0.0740 -0.2134  0.1543
12680TIP3    H159455   3.223   1.040   0.992  0.9279 -0.4744  0.2067
12680TIP3    H259456   3.145   0.917   0.949 -2.0868  1.1276  0.8284
12681TIP3   OH259457   1.727   6.321  12.774 -0.1257 -0.0999 -0.2468
12681TIP3    H159458   1.756   6.269  12.848  0.0051  0.3733  0.0349
12681TIP3    H259459   1.784   6.398  12.774  0.1077 -0.2563 -1.0405
12682TIP3   OH259460   0.761   2.958  15.213  0.4840  0.3640  0.4579
12682TIP3    H159461   0.792   3.048  15.216  1.8016  0.0327 -1.3776
12682TIP3    H259462   0.819   2.909  15.271 -0.3471  0.6880  1.5994
12683TIP3   OH259463   6.786   3.413  15.910  0.0279  0.1187 -0.3090
12683TIP3    H159464   6.783   3.429  16.005  1.7197  1.5537 -0.4478
12683TIP3    H259465   6.716   3.468  15.875  1.6168  2.3579 -0.1591
12684TIP3   OH259466   5.165   3.023   4.406  0.0939 -0.2271 -0.2699
12684TIP3    H159467   5.095   3.046   4.467 -1.5122 -0.4161 -1.9323
12684TIP3    H259468   5.223   3.099   4.406  0.0340 -0.1446  1.2882
12685TIP3   OH259469   0.648   3.702   4.585  0.3940 -0.3083 -0.0836
12685TIP3    H159470   0.653   3.657   4.669  1.9726 -0.3020 -0.1338
12685TIP3    H259471   0.560   3.740   4.583  0.4284 -0.0312  1.7092
12686TIP3   OH259472   3.324   1.993   2.575  0.2478  0.9606  0.4139
12686TIP3    H159473   3.288   2.058   2.515 -0.9581  0.7159  0.8368
12686TIP3    H259474   3.247   1.949   2.611  1.0384 -0.8711 -0.0260
12687TIP3   OH259475   0.887   1.615  14.656  0.0113  0.3041  0.2912
12687TIP3    H159476   0.892   1.708  14.675 -0.2261  0.3342  0.2062
12687TIP3    H259477   0.794   1.596  14.649  0.0419 -0.0180  0.6920
12688TIP3   OH259478   6.094   2.228  14.299  0.0935 -0.1584  0.0943
12688TIP3    H159479   6.114   2.256  14.389 -5.2712  2.0414  0.9649
12688TIP3    H259480   6.145   2.288  14.244  0.2224  1.4002  1.8103
12689TIP3   OH259481   4.091   6.531  13.592  0.3158 -0.3681 -0.1156
12689TIP3    H159482   4.110   6.590  13.519 -1.2805 -1.1904 -1.2585
12689TIP3    H259483   4.116   6.444  13.560 -0.6076 -0.7701  0.2026
12690TIP3   OH259484   1.587   5.089  17.079 -0.2973  0.6622  0.2977
12690TIP3    H159485   1.649   5.161  17.096 -1.4459  1.1013  3.3827
12690TIP3    H259486   1.636   5.010  17.101 -0.4120  0.9266  1.6356
12691TIP3   OH259487   1.709   1.642  15.184 -0.3964 -0.1406 -0.8777
12691TIP3    H159488   1.630   1.688  15.156 -1.2466 -0.0018  1.5547
12691TIP3    H259489   1.677   1.570  15.238  1.1492  0.3301  0.7342
12692TIP3   OH259490   4.923   0.450   2.607 -0.4076  0.1164  0.2777
12692TIP3    H159491   4.936   0.507   2.531 -1.6888 -1.4213 -1.1510
12692TIP3    H259492   5.010   0.411   2.623 -0.0331  0.7845 -0.0969
12693TIP3   OH259493   5.222   0.526   1.749  0.0566 -0.3936 -0.2167
12693TIP3    H159494   5.153   0.505   1.687 -0.7064 -1.2888  0.8870
12693TIP3    H259495   5.198   0.612   1.785  0.2313 -0.1095 -0.7613
12694TIP3   OH259496   6.211   5.046   6.515 -0.0933 -0.0113 -0.0259
12694TIP3    H159497   6.244   4.972   6.465 -0.5417 -0.5589  0.4779
12694TIP3    H259498   6.284   5.108   6.517 -0.2985  0.3500 -1.9490
12695TIP3   OH259499   3.925   2.299   3.241  0.1620  0.3895 -0.3622
12695TIP3    H159500   3.971   2.374   3.204  0.7781 -0.3444 -1.1354
12695TIP3    H259501   3.921   2.317   3.335 -0.7140  1.9146 -0.6640
12696TIP3   OH259502   4.034   4.345  14.947  0.1353  0.9245 -0.1062
12696TIP3    H159503   3.993   4.317  15.028  1.3458  3.1424  1.3736
12696TIP3    H259504   4.122   4.306  14.950 -0.6973 -1.2590 -1.7598
12697TIP3   OH259505   0.302   0.381  13.474 -0.0689  0.1654  0.3208
12697TIP3    H159506   0.360   0.305  13.473 -1.9146 -1.3470 -1.4230
12697TIP3    H259507   0.352   0.449  13.429  0.9018 -0.6322  0.1491
12698TIP3   OH259508   0.296   4.226  11.323  0.2378  0.2016 -0.1966
12698TIP3    H159509   0.231   4.284  11.284 -0.4855 -0.3273  0.2206
12698TIP3    H259510   0.378   4.251  11.279 -0.2272  0.8761 -0.7171
12699TIP3   OH259511   3.854   6.074  14.571 -0.2363 -0.1995 -0.6186
12699TIP3    H159512   3.814   5.990  14.550  2.3267 -1.1814 -1.8771
12699TIP3    H259513   3.943   6.068  14.538  0.5618  2.4145  0.7652
12700TIP3   OH259514   0.010   1.448   2.635 -0.9244 -0.0391 -0.0977
12700TIP3    H159515   0.080   1.448   2.570 -0.6118  0.1087  0.2333
12700TIP3    H259516   0.042   1.391   2.705 -0.1202  1.8302  1.1240
12701TIP3   OH259517   1.292   4.310   5.593 -0.0610 -0.0293 -0.2158
12701TIP3    H159518   1.267   4.399   5.617  1.2418  0.3485 -0.1492
12701TIP3    H259519   1.336   4.276   5.672 -0.8988 -0.8837 -0.1015
12702TIP3   OH259520   3.888   1.182   5.194 -0.2452 -0.1136 -0.3523
12702TIP3    H159521   3.860   1.220   5.111  0.0939  3.7613  1.0793
12702TIP3    H259522   3.809   1.143   5.231 -1.7480  2.6692 -0.3472
12703TIP3   OH259523   6.312   2.627  17.091  0.4007 -0.2368 -0.2175
12703TIP3    H159524   6.239   2.657  17.037  1.5132  0.2967 -1.4985
12703TIP3    H259525   6.354   2.707  17.121  1.0357 -0.5236 -0.3293
12704TIP3   OH259526   6.743   3.754  10.681  0.0792 -0.2751  0.3196
12704TIP3    H159527   6.705   3.669  10.660 -2.1438  0.4321  1.1643
12704TIP3    H259528   6.674   3.817  10.658  0.7441  1.1104  1.8849
12705TIP3   OH259529   0.378   2.071   0.813 -0.4439 -0.2985 -0.6857
12705TIP3    H159530   0.358   1.982   0.840  0.4274  0.1291  1.6145
12705TIP3    H259531   0.382   2.121   0.895  0.4715  1.5633 -1.7857
12706TIP3   OH259532   0.269   0.086  16.807  0.6461 -0.0822 -0.4785
12706TIP3    H159533   0.300   0.052  16.723  2.2214 -1.0814  0.4569
12706TIP3    H259534   0.242   0.008  16.855  0.6012  0.3910  0.2776
12707TIP3   OH259535   1.662   3.509  14.377 -0.1959  0.1658 -0.3836
12707TIP3    H159536   1.675   3.419  14.404 -1.5370 -0.3484 -1.3086
12707TIP3    H259537   1.728   3.559  14.425  0.0315 -1.1868  0.7718
12708TIP3   OH259538   1.872   6.157  12.391  0.4464  0.3541 -0.0483
12708TIP3    H159539   1.902   6.247  12.384 -0.0334  0.4495 -1.0015
12708TIP3    H259540   1.946   6.110  12.430  0.3850  1.3091  1.2855
12709TIP3   OH259541   2.355   2.617   5.362  0.4239 -0.3098 -0.2455
12709TIP3    H159542   2.338   2.676   5.288 -0.0621 -1.4093 -1.0450
12709TIP3    H259543   2.448   2.629   5.381  0.7467 -0.5713 -1.5672
12710TIP3   OH259544   5.853   2.422   1.826 -0.1902 -0.0599  0.4974
12710TIP3    H159545   5.927   2.436   1.885  0.1650 -1.3531  0.3687
12710TIP3    H259546   5.890   2.427   1.739 -1.0429  4.1047  0.1267
12711TIP3   OH259547   4.041   4.930  12.813  0.1207 -0.3682 -0.2274
12711TIP3    H159548   4.136   4.916  12.808  0.2418 -0.1315  1.0154
12711TIP3    H259549   4.007   4.849  12.851  0.0173  0.1072  0.7170
12712TIP3   OH259550   5.199   4.350  15.306 -0.7156  0.1166 -0.6583
12712TIP3    H159551   5.267   4.405  15.267 -2.5025  4.0656  1.2768
12712TIP3    H259552   5.240   4.311  15.382 -0.1897  1.3824 -0.2667
12713TIP3   OH259553   0.994   3.980  16.709  0.2193 -0.4353 -0.6330
12713TIP3    H159554   1.062   3.989  16.775  0.8330 -1.4289 -1.1184
12713TIP3    H259555   1.019   3.903  16.658 -1.3108 -0.8740 -0.7709
12714TIP3   OH259556   1.810   5.601   4.155 -0.1573 -0.2450  0.4729
12714TIP3    H159557   1.747   5.547   4.107 -0.1854  1.1579 -1.1682
12714TIP3    H259558   1.893   5.587   4.109 -0.0182  0.5487  0.4789
12715TIP3   OH259559   2.150   2.694  16.645 -0.0791 -0.4452  0.5902
12715TIP3    H159560   2.222   2.751  16.671  0.3062 -1.2962  1.4435
12715TIP3    H259561   2.152   2.695  16.549  2.4315 -2.1061  0.5374
12716TIP3   OH259562   2.880   2.555   6.547 -0.1055 -0.1728 -0.1840
12716TIP3    H159563   2.885   2.606   6.466  0.1131 -0.0921 -0.1215
12716TIP3    H259564   2.902   2.618   6.616  1.4389 -0.6350 -0.2093
12717TIP3   OH259565   4.557   6.746  16.487 -0.1621  0.3105  0.6641
12717TIP3    H159566   4.582   6.793  16.408  0.4902 -0.5397  0.3453
12717TIP3    H259567   4.496   6.678  16.457 -0.0894  0.1307  0.9139
12718TIP3   OH259568   1.529   6.549  12.925 -0.1950  0.2185  0.0377
12718TIP3    H159569   1.547   6.480  12.861 -0.9495  0.9487 -1.0054
12718TIP3    H259570   1.565   6.628  12.886 -0.4856  0.6427  0.6186
12719TIP3   OH259571   5.808   1.696  16.654 -0.0396 -0.1334 -0.1907
12719TIP3    H159572   5.723   1.740  16.655 -0.5930 -1.1218  1.7275
12719TIP3    H259573   5.852   1.727  16.733  0.7106 -0.8775 -0.2977
12720TIP3   OH259574   1.861   6.474   3.442  0.2167  0.0639 -0.3902
12720TIP3    H159575   1.898   6.545   3.389  1.1351 -1.3474 -1.7268
12720TIP3    H259576   1.780   6.450   3.396 -0.4426  0.6703  0.4344
12721TIP3   OH259577   3.242   3.670  13.558  0.3256 -0.3935  0.1620
12721TIP3    H159578   3.255   3.730  13.632 -1.3459  1.4123 -0.9241
12721TIP3    H259579   3.151   3.685  13.531  1.1878 -0.1460 -2.9379
12722TIP3   OH259580   5.379   3.726  16.424 -0.1265 -0.4881  0.1161
12722TIP3    H159581   5.427   3.795  16.378 -1.6065 -0.1750 -1.0156
12722TIP3    H259582   5.434   3.705  16.500  0.1959  2.1861  0.7107
12723TIP3   OH259583   6.590   2.661   4.480  0.0708  0.0154 -0.0121
12723TIP3    H159584   6.639   2.580   4.465 -2.8826 -1.9483  0.1079
12723TIP3    H259585   6.557   2.685   4.393 -1.2263 -0.4623  0.3236
12724TIP3   OH259586   2.677   2.913  11.593 -0.0093  0.5011  0.0898
12724TIP3    H159587   2.638   2.840  11.545  2.3506 -2.6988  2.5785
12724TIP3    H259588   2.769   2.915  11.564  0.9788 -0.2729  2.8164
12725TIP3   OH259589   6.074   6.753  11.396 -0.1165 -0.1904 -0.4027
12725TIP3    H159590   6.041   6.828  11.346  0.7225 -0.7623 -1.9138
12725TIP3    H259591   6.019   6.680  11.368  1.2792 -0.8143 -1.6879
12726TIP3   OH259592   4.099   0.933   2.948  0.2324  0.0870  0.7257
12726TIP3    H159593   4.180   0.961   2.905 -0.2866 -0.4507 -0.6879
12726TIP3    H259594   4.037   0.920   2.875 -0.7492 -0.7040  1.6699
12727TIP3   OH259595   5.885   0.377   4.822 -0.0915  0.3652  0.3826
12727TIP3    H159596   5.811   0.385   4.882  0.1255  0.0307  0.7012
12727TIP3    H259597   5.939   0.307   4.860 -1.9071 -2.7542 -2.2509
12728TIP3   OH259598   6.623   2.291  13.911 -0.1627  0.4486 -0.1653
12728TIP3    H159599   6.579   2.373  13.887  1.0765  1.9540  2.2796
12728TIP3    H259600   6.689   2.278  13.843 -0.8044  1.0956 -0.9394
12729TIP3   OH259601   3.427   3.184  11.224  0.6445 -0.3040  0.2344
12729TIP3    H159602   3.368   3.120  11.264  1.3742 -0.9694  0.2628
12729TIP3    H259603   3.510   3.137  11.211  0.9167  0.3668 -0.5911
12730TIP3   OH259604   1.495   3.355   3.324 -0.6789  0.0385  0.0682
12730TIP3    H159605   1.516   3.262   3.330 -0.8508 -0.0082 -0.0443
12730TIP3    H259606   1.543   3.385   3.246  1.9073  0.7393  1.7928
12731TIP3   OH259607   6.154   3.555  15.581  0.0242  0.0099 -0.3634
12731TIP3    H159608   6.234   3.512  15.611 -0.0009  0.9088  1.0599
12731TIP3    H259609   6.170   3.574  15.488  1.7447  0.8006  0.0623
12732TIP3   OH259610   4.222   2.193  14.359  0.2414 -0.4661  0.0439
12732TIP3    H159611   4.223   2.166  14.450 -1.0540  0.4311  0.3547
12732TIP3    H259612   4.182   2.280  14.360  1.1207 -0.0122 -1.2782
12733TIP3   OH259613   3.895   2.215  13.996  0.1241 -0.5144  0.3264
12733TIP3    H159614   3.905   2.298  14.044  0.1805 -1.3041  1.7442
12733TIP3    H259615   3.980   2.173  14.004  1.1715  0.6491 -3.1810
12734TIP3   OH259616   3.110   1.100   4.709 -0.1632 -0.4367  0.2644
12734TIP3    H159617   3.183   1.104   4.770  1.1059  0.2655 -1.2377
12734TIP3    H259618   3.119   1.178   4.655 -3.6035  1.1845  1.7056
12735TIP3   OH259619   3.953   6.671   3.735  0.0379 -0.3049  0.1578
12735TIP3    H159620   3.916   6.717   3.811 -0.6677  0.0423 -0.3843
12735TIP3    H259621   4.002   6.598   3.773  2.0153  1.4174  1.1254
12736TIP3   OH259622   2.088   4.343  11.836 -0.6533 -0.1474 -0.5275
12736TIP3    H159623   2.024   4.272  11.844  0.7119 -1.2600  1.2420
12736TIP3    H259624   2.096   4.377  11.926  1.5761 -0.3745 -0.5965
12737TIP3   OH259625   0.803   4.408   3.806 -0.3369  0.5079  0.5930
12737TIP3    H159626   0.891   4.428   3.838  0.6143 -0.7805 -1.0305
12737TIP3    H259627   0.772   4.337   3.863  0.8327 -0.9127 -0.4557
12738TIP3   OH259628   2.443   2.591  13.921 -0.5136 -0.6302  0.0292
12738TIP3    H159629   2.535   2.592  13.895 -1.0714 -1.3722 -2.1468
12738TIP3    H259630   2.418   2.499  13.923 -1.2838 -0.4317  0.3536
12739TIP3   OH259631   0.775   1.537   3.068 -0.0936  0.1071  0.2243
12739TIP3    H159632   0.744   1.564   3.154  1.2361 -0.1544  0.8242
12739TIP3    H259633   0.748   1.445   3.061 -0.4793  0.2192  0.2251
12740TIP3   OH259634   4.693   3.519  12.032  0.2131  0.4311 -0.6977
12740TIP3    H159635   4.623   3.578  12.059 -0.3075 -0.9605  1.2425
12740TIP3    H259636   4.662   3.480  11.951 -0.4406  1.1398 -0.8010
12741TIP3   OH259637   4.848   5.995   2.602  0.1677 -0.0198  0.2604
12741TIP3    H159638   4.919   6.013   2.540 -1.0036 -0.4635 -1.2678
12741TIP3    H259639   4.803   5.919   2.565 -1.6665  0.8255  0.6813
12742TIP3   OH259640   0.745   6.284  13.701 -0.7943 -0.7602  0.5979
12742TIP3    H159641   0.691   6.357  13.670  0.6067  0.3093  0.5576
12742TIP3    H259642   0.761   6.304  13.793  3.0269  1.3298 -0.3351
12743TIP3   OH259643   1.698   3.573  12.358  0.6049  0.0483 -0.3525
12743TIP3    H159644   1.697   3.654  12.307  3.8183 -1.0123 -2.4354
12743TIP3    H259645   1.623   3.523  12.326 -0.7414  1.6650  0.1368
12744TIP3   OH259646   0.827   4.257   1.046  0.4278 -0.0634 -0.0657
12744TIP3    H159647   0.921   4.260   1.030  1.0120 -0.0850  2.7784
12744TIP3    H259648   0.809   4.337   1.096 -1.3146  0.4930 -1.4718
12745TIP3   OH259649   3.905   2.801  12.113 -0.1018  0.2983 -0.4323
12745TIP3    H159650   3.840   2.749  12.067  0.6219 -2.2674  1.2305
12745TIP3    H259651   3.862   2.828  12.194 -0.3233  1.9906 -1.0844
12746TIP3   OH259652   3.381   4.453   2.291  0.5170  0.2619  0.3535
12746TIP3    H159653   3.448   4.520   2.276 -0.4411  0.9153 -1.2072
12746TIP3    H259654   3.364   4.416   2.205 -1.9551  0.9231  0.4875
12747TIP3   OH259655   0.652   4.893   2.500 -0.1672  0.3273 -0.6119
12747TIP3    H159656   0.705   4.942   2.564 -1.8716  0.9409  0.3916
12747TIP3    H259657   0.586   4.849   2.553  0.2662 -1.7136 -1.6799
12748TIP3   OH259658   3.955   4.417  16.295  0.2762  0.1248 -0.7192
12748TIP3    H159659   4.030   4.427  16.237 -1.6714 -1.0559 -3.6645
12748TIP3    H259660   3.918   4.331  16.274 -2.1197  0.7941  0.3115
12749TIP3   OH259661   1.076   6.353  13.702 -0.1140  0.0412 -0.0501
12749TIP3    H159662   0.982   6.337  13.707  0.0111 -1.4245 -1.4111
12749TIP3    H259663   1.107   6.294  13.633  2.2437 -1.5844  2.1729
12750TIP3   OH259664   4.128   5.420  12.285  0.2841 -0.3523 -0.8181
12750TIP3    H159665   4.101   5.330  12.301 -1.6579  0.0841 -1.3345
12750TIP3    H259666   4.078   5.447  12.208 -0.9089  1.8228  0.5922
12751TIP3   OH259667   1.085   2.825   5.852  0.5407  0.5645  0.2904
12751TIP3    H159668   1.060   2.857   5.939  1.4655  1.3374  0.2861
12751TIP3    H259669   1.159   2.881   5.826 -1.3567  2.1685 -2.1248
12752TIP3   OH259670   5.062   3.041   1.118 -0.4184  0.2984  0.3588
12752TIP3    H159671   4.991   3.012   1.175 -0.5151  0.8296  0.5184
12752TIP3    H259672   5.139   2.993   1.149 -0.4574  0.6294  0.9875
12753TIP3   OH259673   4.487   6.520  12.828  0.2630 -0.1131  0.6486
12753TIP3    H159674   4.453   6.604  12.855 -1.0305 -0.3193 -0.2586
12753TIP3    H259675   4.579   6.521  12.856  1.2350  2.8686 -2.0260
12754TIP3   OH259676   2.461   5.224  14.996 -0.4032  0.3545 -0.1391
12754TIP3    H159677   2.521   5.180  14.937  0.3027  0.3734  0.5469
12754TIP3    H259678   2.505   5.306  15.019 -1.0552  0.7508 -0.2659
12755TIP3   OH259679   2.870   3.158   5.724 -0.2009  0.2472 -0.1473
12755TIP3    H159680   2.856   3.159   5.819 -0.8629 -1.7189 -0.1856
12755TIP3    H259681   2.963   3.135   5.714 -0.2515 -0.0354  0.0236
12756TIP3   OH259682   0.227   3.957   4.326 -0.2804 -0.1720 -0.1376
12756TIP3    H159683   0.307   3.943   4.276 -1.0158 -0.2282 -1.3301
12756TIP3    H259684   0.160   3.974   4.260 -1.8006 -2.6744  0.6378
12757TIP3   OH259685   3.428   3.080  11.742 -0.1444 -0.1125  0.3122
12757TIP3    H159686   3.511   3.113  11.707 -0.5609  0.5101 -0.1024
12757TIP3    H259687   3.452   2.998  11.786  0.1008 -2.5336 -3.7093
12758TIP3   OH259688   1.705   2.740   1.698  0.5213  0.0064  0.2696
12758TIP3    H159689   1.725   2.720   1.607 -1.1806  2.6382 -0.8045
12758TIP3    H259690   1.762   2.814   1.720 -0.5398  0.7595  0.6019
12759TIP3   OH259691   2.270   0.842  13.467 -0.2327 -0.2956  1.0004
12759TIP3    H159692   2.324   0.769  13.439  0.7408  1.0399 -0.7790
12759TIP3    H259693   2.222   0.808  13.543  1.7865 -2.0776  1.5846
12760TIP3   OH259694   6.791   4.560   0.540 -0.0139 -0.0367  0.1529
12760TIP3    H159695   6.800   4.570   0.446 -0.9358 -0.9427 -0.0427
12760TIP3    H259696   6.745   4.639   0.568 -1.2622 -0.5215 -0.4237
12761TIP3   OH259697   1.720   5.222   5.995  0.0210 -0.5223  0.3755
12761TIP3    H159698   1.758   5.176   5.920 -0.6135 -0.8722  0.2605
12761TIP3    H259699   1.780   5.204   6.067  1.6426  1.3354 -0.4389
12762TIP3   OH259700   1.467   4.233  15.724 -0.0237 -0.1327  0.2280
12762TIP3    H159701   1.425   4.244  15.639  3.0282 -1.1411 -1.5857
12762TIP3    H259702   1.446   4.143  15.750  0.6014 -0.5001 -0.4773
12763TIP3   OH259703   4.586   0.223  15.173 -0.0350 -0.3454 -0.1806
12763TIP3    H159704   4.657   0.287  15.175  0.5324 -0.6751 -3.3991
12763TIP3    H259705   4.629   0.139  15.192 -0.0738 -0.2445  0.3728
12764TIP3   OH259706   5.098   6.268   4.255 -0.0537 -0.3388  0.1940
12764TIP3    H159707   5.041   6.232   4.322 -1.0925  0.0193 -0.4738
12764TIP3    H259708   5.049   6.342   4.219  0.3047 -0.7548 -1.2158
12765TIP3   OH259709   4.675   5.003  16.250 -0.1793  0.2677  0.3203
12765TIP3    H159710   4.668   5.010  16.155 -0.2088 -0.3291  0.2734
12765TIP3    H259711   4.682   5.093  16.280  1.9114  0.4116 -0.4059
12766TIP3   OH259712   5.729   5.730  10.788 -0.5504 -0.1473 -0.4838
12766TIP3    H159713   5.694   5.703  10.703 -0.9152  0.1846 -0.4419
12766TIP3    H259714   5.823   5.742  10.773  0.0614 -3.4326 -0.0248
12767TIP3   OH259715   1.784   4.350  15.466  0.2064  0.1545  0.3332
12767TIP3    H159716   1.805   4.303  15.546  0.6539 -2.0059 -0.9799
12767TIP3    H259717   1.861   4.336  15.409  0.1723  2.1442 -0.2875
12768TIP3   OH259718   0.259   1.701   5.154  0.1173  0.4142 -0.3111
12768TIP3    H159719   0.349   1.705   5.186  0.0609  2.2006 -0.2882
12768TIP3    H259720   0.260   1.631   5.088  1.6302  0.6890 -0.6150
12769TIP3   OH259721   2.175   1.368  13.459  0.5555 -0.5775 -0.0615
12769TIP3    H159722   2.155   1.422  13.382  1.0127 -1.2532 -0.6662
12769TIP3    H259723   2.213   1.288  13.423  1.3570 -0.6479  0.8891
12770TIP3   OH259724   1.550   6.377  16.950  0.0623 -0.0336 -0.4974
12770TIP3    H159725   1.564   6.342  16.862  2.7941 -0.0062 -0.1716
12770TIP3    H259726   1.537   6.300  17.005  2.0399 -0.3634 -0.4134
12771TIP3   OH259727   2.693   2.197  14.442 -0.3670  0.5232  0.1854
12771TIP3    H159728   2.773   2.248  14.432  0.2129 -0.2776  0.6846
12771TIP3    H259729   2.694   2.136  14.368 -0.3326  0.2789  0.3844
12772TIP3   OH259730   0.421   4.878   2.219  0.5511  0.1669  0.2204
12772TIP3    H159731   0.412   4.895   2.313  0.4091 -0.7271  0.3777
12772TIP3    H259732   0.510   4.844   2.209  1.4034  2.3442 -0.3151
12773TIP3   OH259733   0.423   6.474  11.337 -0.2319 -0.5172 -0.0582
12773TIP3    H159734   0.497   6.519  11.378 -0.8351  0.6285 -0.1649
12773TIP3    H259735   0.412   6.394  11.389  2.2603 -1.7211 -1.2068
12774TIP3   OH259736   2.912   1.925  15.195 -0.5686  0.3791  0.1006
12774TIP3    H159737   2.968   1.973  15.135 -0.7652  1.0152  0.4144
12774TIP3    H259738   2.823   1.950  15.170 -0.6501  0.7089  0.7028
12775TIP3   OH259739   4.173   6.451   2.260 -0.3832  0.0756 -0.3100
12775TIP3    H159740   4.112   6.387   2.222  0.7086  0.3481 -2.6662
12775TIP3    H259741   4.116   6.514   2.304 -1.6178 -1.2577  0.1073
12776TIP3   OH259742   4.211   1.462  13.954  0.8758  0.6966 -0.3543
12776TIP3    H159743   4.210   1.556  13.973 -0.9876  0.7235 -0.4382
12776TIP3    H259744   4.146   1.425  14.013  0.4317 -0.2930 -1.4235
12777TIP3   OH259745   5.361   2.884   2.672  0.3566  0.1001 -0.2363
12777TIP3    H159746   5.445   2.915   2.707  0.2612 -0.1606  0.2346
12777TIP3    H259747   5.306   2.872   2.749  0.9783 -3.0242 -0.1781
12778TIP3   OH259748   4.290   4.976   3.245  0.0276  0.5606  0.5852
12778TIP3    H159749   4.221   5.026   3.289  1.4055  0.8602  2.5441
12778TIP3    H259750   4.341   5.041   3.197  0.7054  0.8105  1.6082
12779TIP3   OH259751   0.125   3.349   2.338 -0.1422 -1.1917  0.1188
12779TIP3    H159752   0.089   3.423   2.387 -0.9413 -0.1581 -1.9202
12779TIP3    H259753   0.216   3.375   2.319 -0.0801 -1.2351  0.3542
12780TIP3   OH259754   2.835   6.326  11.624  0.1450  0.4763  0.5311
12780TIP3    H159755   2.751   6.349  11.663  0.4452  0.6982  1.0635
12780TIP3    H259756   2.875   6.266  11.686  1.1801  1.8322  1.2285
12781TIP3   OH259757   2.870   3.502   2.054 -0.0042 -0.3100 -0.4725
12781TIP3    H159758   2.796   3.563   2.053 -0.4855 -0.8151  1.2039
12781TIP3    H259759   2.848   3.436   1.988 -1.7348 -1.1611  0.8579
12782TIP3   OH259760   5.114   0.091  14.088  0.1985  0.3878  0.1162
12782TIP3    H159761   5.089   0.164  14.031 -2.5468 -0.4519  0.0835
12782TIP3    H259762   5.082   0.117  14.175  2.0116  0.5174  0.7897
12783TIP3   OH259763   5.614   0.431   4.525  0.3623 -0.3051  0.3513
12783TIP3    H159764   5.685   0.496   4.530 -0.3483  0.6096 -0.8790
12783TIP3    H259765   5.585   0.436   4.434 -0.2813 -1.7600  0.4670
12784TIP3   OH259766   0.086   4.043   2.878  0.0813 -0.4617  0.4351
12784TIP3    H159767   0.029   4.049   2.954 -1.0562  1.1869 -0.4614
12784TIP3    H259768   0.026   4.039   2.803  0.9143  3.4340 -0.7010
12785TIP3   OH259769   3.637   5.821  10.859  0.3024  0.0343  0.1433
12785TIP3    H159770   3.633   5.854  10.769 -1.6951 -0.1049  0.1414
12785TIP3    H259771   3.609   5.730  10.852 -1.6503  0.5190  1.1040
12786TIP3   OH259772   3.273   0.604  16.792  0.0274 -0.5757 -0.5081
12786TIP3    H159773   3.205   0.672  16.791 -0.7332 -1.3136 -0.8977
12786TIP3    H259774   3.224   0.523  16.778  0.9899 -1.1419 -0.6169
12787TIP3   OH259775   6.373   6.584   3.521  0.7184  0.3265 -0.5065
12787TIP3    H159776   6.384   6.631   3.605  3.2458 -0.3178 -0.3854
12787TIP3    H259777   6.290   6.537   3.530 -0.5009  2.5222  0.4669
12788TIP3   OH259778   1.749   4.278  14.130 -0.2537 -0.0218  0.3144
12788TIP3    H159779   1.734   4.361  14.175 -2.4111 -0.6207  0.8329
12788TIP3    H259780   1.800   4.226  14.193  1.6590  1.0725 -0.2655
12789TIP3   OH259781   2.272   5.765   2.569  0.2261  0.3448 -0.6797
12789TIP3    H159782   2.187   5.803   2.548  0.1957  0.3533 -0.5426
12789TIP3    H259783   2.262   5.672   2.551 -0.4537  0.0069  1.2922
12790TIP3   OH259784   3.038   6.710  14.369  0.0858  0.1661  0.2828
12790TIP3    H159785   3.129   6.682  14.381  0.0613 -0.2492 -0.4298
12790TIP3    H259786   2.990   6.668  14.440  0.5853  1.1129  1.2044
12791TIP3   OH259787   1.086   2.799   3.458 -0.3063  0.2618 -0.0494
12791TIP3    H159788   1.150   2.732   3.481 -0.9613 -0.3764 -0.0174
12791TIP3    H259789   1.032   2.757   3.390 -1.2749  0.4325  0.5955
12792TIP3   OH259790   0.446   5.101  15.045  0.1987 -0.2204  0.2821
12792TIP3    H159791   0.362   5.106  14.998  0.0576  0.8123  0.6313
12792TIP3    H259792   0.487   5.021  15.011  0.2457  0.6442 -1.8756
12793TIP3   OH259793   2.487   4.022   2.248 -0.0422 -0.4409  0.4462
12793TIP3    H159794   2.514   4.069   2.328  1.7225 -1.4443  0.4941
12793TIP3    H259795   2.481   3.930   2.276  1.2344 -0.8986 -0.6822
12794TIP3   OH259796   4.376   3.876   3.240 -0.0956  0.3099  0.0441
12794TIP3    H159797   4.310   3.894   3.308  2.3290  2.2251  2.0769
12794TIP3    H259798   4.386   3.959   3.193  1.1620  0.2021  0.0850
12795TIP3   OH259799   1.848   1.640  13.125 -0.5554 -0.4290  0.2869
12795TIP3    H159800   1.911   1.696  13.170 -1.4564  1.5592 -0.7605
12795TIP3    H259801   1.901   1.581  13.072  0.4396  0.6368  0.0669
12796TIP3   OH259802   2.266   1.452  11.535  0.1216 -0.1591  0.1975
12796TIP3    H159803   2.268   1.524  11.598 -1.1030 -0.0045  0.0983
12796TIP3    H259804   2.214   1.486  11.461  4.1377  0.8612 -2.4818
12797TIP3   OH259805   1.786   1.920  12.288  0.2336  0.5902  0.1096
12797TIP3    H159806   1.712   1.908  12.347  1.1613 -0.9622  1.0541
12797TIP3    H259807   1.759   1.879  12.206 -0.7956  2.1225 -0.3590
12798TIP3   OH259808   1.542   4.308  12.233  0.4434  0.1921  0.4629
12798TIP3    H159809   1.603   4.246  12.274  0.4149  1.1194  1.9882
12798TIP3    H259810   1.595   4.356  12.170  1.1877  0.6089  1.3837
12799TIP3   OH259811   3.874   1.875   4.182  0.0630 -0.4337  0.0191
12799TIP3    H159812   3.919   1.814   4.242 -0.2296 -1.7067 -1.0037
12799TIP3    H259813   3.821   1.818   4.126  0.0680  0.7512 -1.2314
12800TIP3   OH259814   1.356   3.325  14.059  0.7132 -0.2588 -0.3406
12800TIP3    H159815   1.361   3.367  13.973  1.3823  1.0148  0.3052
12800TIP3    H259816   1.425   3.366  14.110 -1.0768  0.5852  1.5028
12801TIP3   OH259817   4.294   1.722   3.090  0.2386  0.3707  0.0001
12801TIP3    H159818   4.248   1.640   3.108 -1.6745  1.6065  1.1716
12801TIP3    H259819   4.240   1.766   3.024  1.1434  0.7790 -0.4845
12802TIP3   OH259820   6.696   5.934  12.039  0.0515 -0.4489  0.7293
12802TIP3    H159821   6.763   5.932  12.108  0.4335 -0.0587  0.3800
12802TIP3    H259822   6.740   5.899  11.962  0.3200  1.1393  0.1162
12803TIP3   OH259823   5.851   0.106   0.235 -0.0566 -0.5250  0.0614
12803TIP3    H159824   5.847   0.014   0.259  0.1061  0.0221  2.4843
12803TIP3    H259825   5.905   0.109   0.156  0.3012 -2.4462  0.2032
12804TIP3   OH259826   0.968   4.814  13.523  0.2130  0.1340  0.2907
12804TIP3    H159827   0.886   4.833  13.478  0.0777 -1.5990 -0.2694
12804TIP3    H259828   0.953   4.731  13.568  1.8288 -0.5190 -0.2855
12805TIP3   OH259829   1.995   2.266   0.280  0.2630 -0.4375  0.9330
12805TIP3    H159830   1.941   2.204   0.230  2.0480 -2.9276  1.8722
12805TIP3    H259831   2.064   2.292   0.219  1.3841 -2.0324  1.4554
12806TIP3   OH259832   0.230   3.554   2.005  0.2213 -0.2864  0.0008
12806TIP3    H159833   0.163   3.508   1.955  1.4355 -2.1619 -0.0160
12806TIP3    H259834   0.258   3.626   1.947 -1.4756  0.3123 -0.1238
12807TIP3   OH259835   0.781   0.606   0.727 -0.4149 -0.8113  0.1146
12807TIP3    H159836   0.877   0.613   0.722 -0.5778  3.3201 -0.8100
12807TIP3    H259837   0.752   0.623   0.638 -2.0492  1.1717  0.9731
12808TIP3   OH259838   1.896   4.225  15.681  0.1094  0.3817  0.5151
12808TIP3    H159839   1.834   4.196  15.748  0.2408 -0.6340  0.2234
12808TIP3    H259840   1.951   4.290  15.725 -1.4504  1.6587  0.6318
12809TIP3   OH259841   2.456   0.238  11.379 -0.4228  0.2453  0.1036
12809TIP3    H159842   2.385   0.287  11.419 -0.6244  1.0124 -1.1580
12809TIP3    H259843   2.427   0.221  11.290  0.3909 -0.6649 -0.0104
12810TIP3   OH259844   6.796   0.557  16.795  0.5809  0.1386  0.0475
12810TIP3    H159845   6.829   0.468  16.802 -0.0221 -0.2105 -1.2332
12810TIP3    H259846   6.752   0.560  16.710 -1.8936  0.8267  1.2388
12811TIP3   OH259847   3.251   2.612   2.135  0.2542  0.3659 -0.2257
12811TIP3    H159848   3.317   2.591   2.069  0.9173 -0.0594  0.5638
12811TIP3    H259849   3.276   2.561   2.212 -0.1490  1.3287  0.5659
12812TIP3   OH259850   6.798   0.170  13.550 -0.6057 -0.8818 -0.0304
12812TIP3    H159851   6.741   0.103  13.514 -1.1098 -2.2584  2.9858
12812TIP3    H259852   6.785   0.164  13.645  0.3115  2.6581  0.4493
12813TIP3   OH259853   6.319   3.319   5.836  0.1630 -0.2947  0.7053
12813TIP3    H159854   6.261   3.246   5.859  0.5052 -1.2764 -1.3362
12813TIP3    H259855   6.312   3.379   5.910 -1.2186 -1.7340  1.8167
12814TIP3   OH259856   5.966   4.598   3.064 -0.1743 -0.1421 -0.7021
12814TIP3    H159857   5.970   4.503   3.080 -1.3142 -0.3920 -1.7876
12814TIP3    H259858   6.054   4.629   3.084 -0.1644 -1.1796  1.1318
12815TIP3   OH259859   3.025   3.402   5.395  0.3904  0.5155  0.2274
12815TIP3    H159860   3.090   3.432   5.332 -0.7097 -0.1578 -1.3045
12815TIP3    H259861   3.076   3.352   5.459  1.5209  1.0047 -0.2563
12816TIP3   OH259862   4.161   2.018  12.957  0.1429 -0.0707  0.2789
12816TIP3    H159863   4.194   2.048  12.872  0.8784 -0.0761  0.5560
12816TIP3    H259864   4.217   1.943  12.979 -0.6864 -0.6973  0.3091
12817TIP3   OH259865   4.118   2.882  12.397  0.3399  0.4208  0.2029
12817TIP3    H159866   4.107   2.954  12.336  1.8736  0.5741  0.0493
12817TIP3    H259867   4.030   2.846  12.410 -0.2049  1.2952 -0.9592
12818TIP3   OH259868   5.834   4.280  17.158  0.0556  0.4895  0.0412
12818TIP3    H159869   5.805   4.211  17.218 -0.7324  1.0822  0.3599
12818TIP3    H259870   5.760   4.340  17.153  1.3614  2.2785  1.1870
12819TIP3   OH259871   2.881   3.155  12.391  0.3234 -0.2238 -0.1513
12819TIP3    H159872   2.884   3.238  12.344  1.7318  0.1123  0.4845
12819TIP3    H259873   2.791   3.149  12.424 -0.3083  0.1713 -1.7021
12820TIP3   OH259874   6.802   5.610   2.564  0.5125 -0.5487 -0.3629
12820TIP3    H159875   6.742   5.562   2.507 -0.7232 -1.1068  1.3312
12820TIP3    H259876   6.825   5.548   2.633 -1.7812  1.3606  2.3753
12821TIP3   OH259877   5.130   6.552   3.735 -0.3769 -0.0280  0.5329
12821TIP3    H159878   5.039   6.579   3.747 -1.1765 -2.2966  0.0607
12821TIP3    H259879   5.138   6.538   3.640  0.0618 -1.1372  0.7269
12822TIP3   OH259880   2.300   5.485   1.211 -0.0179 -0.1894  0.6285
12822TIP3    H159881   2.321   5.553   1.147 -0.1144  0.2703  1.0785
12822TIP3    H259882   2.215   5.510   1.247  0.6911  0.3815  1.9893
12823TIP3   OH259883   5.070   1.397  15.820  0.6697 -0.2424  0.3429
12823TIP3    H159884   5.008   1.389  15.893 -0.9066 -0.0213 -0.8916
12823TIP3    H259885   5.141   1.336  15.842 -0.6284 -1.5243  1.2243
12824TIP3   OH259886   6.555   5.100   5.532  0.0023 -0.2755 -0.5118
12824TIP3    H159887   6.648   5.084   5.551 -0.3153 -1.0264  0.4774
12824TIP3    H259888   6.527   5.162   5.599 -0.2854 -0.2531 -0.6498
12825TIP3   OH259889   0.307   0.209  11.000 -0.1187  0.6502 -0.3658
12825TIP3    H159890   0.230   0.177  11.047 -0.2521 -0.5934 -1.3628
12825TIP3    H259891   0.282   0.296  10.969 -0.4282  1.0160  0.8843
12826TIP3   OH259892   0.074   4.517   2.862 -0.2835 -0.0514 -0.1966
12826TIP3    H159893   0.110   4.554   2.782  0.9567  1.2731  0.9137
12826TIP3    H259894   0.129   4.441   2.881  0.2440  0.3891  0.0637
12827TIP3   OH259895   0.749   2.155   2.812 -0.2262  0.1331 -0.2394
12827TIP3    H159896   0.673   2.212   2.823 -1.3476 -1.7669  3.2852
12827TIP3    H259897   0.718   2.082   2.759 -0.5219 -0.0569  0.1936
12828TIP3   OH259898   0.448   1.571  11.707  0.3773 -0.6977  0.4421
12828TIP3    H159899   0.378   1.621  11.749 -0.5036  0.1429 -1.8303
12828TIP3    H259900   0.523   1.630  11.706  0.0970 -0.3419 -0.0235
12829TIP3   OH259901   2.758   2.474  15.704  0.0256 -0.0323  0.6767
12829TIP3    H159902   2.790   2.384  15.714  0.5885 -0.0284 -0.8071
12829TIP3    H259903   2.834   2.523  15.672 -1.3826 -0.1264 -3.5078
12830TIP3   OH259904   2.022   1.472   1.845  0.0431 -0.0496 -0.2318
12830TIP3    H159905   2.075   1.507   1.918  1.1858  0.1947 -1.1521
12830TIP3    H259906   2.046   1.380   1.840 -0.6547 -0.2653  0.2072
12831TIP3   OH259907   3.902   1.315   2.156 -0.3552 -0.3836 -0.7249
12831TIP3    H159908   3.923   1.407   2.168  1.2934 -0.8016 -0.1985
12831TIP3    H259909   3.818   1.304   2.200  0.4180  0.4445  1.0632
12832TIP3   OH259910   5.562   6.212  14.068 -0.3837 -0.5078 -0.1203
12832TIP3    H159911   5.497   6.271  14.029 -0.5702 -1.5830 -1.5051
12832TIP3    H259912   5.646   6.255  14.051 -0.5895 -0.0742 -0.0644
12833TIP3   OH259913   6.726   6.215  15.669 -0.3430 -0.0549  0.0204
12833TIP3    H159914   6.772   6.222  15.752 -1.7831 -1.7671  1.0184
12833TIP3    H259915   6.792   6.182  15.608  0.0529 -1.4022  1.1358
12834TIP3   OH259916   1.411   5.937   0.640  0.3050  0.1628 -0.4096
12834TIP3    H159917   1.349   5.906   0.706  3.7094 -1.7713  2.2682
12834TIP3    H259918   1.390   6.029   0.627 -0.8783  0.5192  3.1147
12835TIP3   OH259919   2.325   0.739   2.638 -0.2817 -0.3811 -0.6358
12835TIP3    H159920   2.340   0.646   2.654 -0.3819 -0.4778 -1.0839
12835TIP3    H259921   2.274   0.769   2.713  2.0305 -0.0591  0.9009
12836TIP3   OH259922   0.703   0.611   2.298 -0.1451  0.1939 -0.4907
12836TIP3    H159923   0.693   0.517   2.316  1.1904  0.1055 -0.1441
12836TIP3    H259924   0.777   0.638   2.351  1.0447  0.9252 -2.4212
12837TIP3   OH259925   6.684   3.898   4.349 -0.0843 -0.3656 -0.0722
12837TIP3    H159926   6.726   3.890   4.264 -1.2193 -1.6156 -0.5478
12837TIP3    H259927   6.729   3.834   4.404 -2.0528 -2.6248 -0.9194
12838TIP3   OH259928   6.427   0.417  10.573  0.2945  0.3276  0.3748
12838TIP3    H159929   6.438   0.361  10.650 -1.0806  1.9374  1.8374
12838TIP3    H259930   6.335   0.405  10.548  0.5054  0.4798 -0.5010
12839TIP3   OH259931   3.519   5.890   0.667  0.1031 -0.3836 -0.2937
12839TIP3    H159932   3.457   5.952   0.705  0.8077  0.2210 -0.0914
12839TIP3    H259933   3.571   5.859   0.742  1.9518  1.3228 -0.7873
12840TIP3   OH259934   6.100   3.592   3.857 -0.3448 -0.4527  0.0133
12840TIP3    H159935   6.089   3.531   3.930 -3.0037  3.0231  2.8612
12840TIP3    H259936   6.029   3.570   3.797 -1.2661 -0.1916  0.9941
12841TIP3   OH259937   4.040   3.123   5.634  0.4726  0.6090  0.4261
12841TIP3    H159938   4.020   3.084   5.549  1.9695  0.9114 -0.1022
12841TIP3    H259939   4.085   3.205   5.613  0.9045  0.6731  1.5056
12842TIP3   OH259940   3.644   1.017  11.412 -0.2141  0.0181 -0.2746
12842TIP3    H159941   3.664   0.945  11.353 -2.7079 -0.4754 -0.6219
12842TIP3    H259942   3.549   1.026  11.408 -0.2187  1.6586  1.7244
12843TIP3   OH259943   4.340   4.137   2.750  0.4687 -0.1985 -0.1082
12843TIP3    H159944   4.404   4.142   2.679  0.7871  1.1996  0.2537
12843TIP3    H259945   4.387   4.169   2.827 -0.0780 -1.0640  0.5959
12844TIP3   OH259946   4.193   2.590   6.339 -0.1333  0.2654 -0.2930
12844TIP3    H159947   4.129   2.585   6.268 -0.6939  2.1546  0.0298
12844TIP3    H259948   4.149   2.639   6.409  0.8649 -0.4062  0.8602
12845TIP3   OH259949   0.081   5.451  14.182 -0.0865 -0.4378  0.1517
12845TIP3    H159950  -0.003   5.496  14.176 -0.7747 -1.1996  2.8513
12845TIP3    H259951   0.142   5.518  14.213  0.1937 -0.0492 -1.1800
12846TIP3   OH259952   6.566   0.253   6.759  0.4537  0.7816  0.3591
12846TIP3    H159953   6.591   0.342   6.781  0.4974  1.2899 -1.5384
12846TIP3    H259954   6.628   0.198   6.806  1.9556  1.8518 -0.2855
12847TIP3   OH259955   6.183   6.347   2.496 -0.1108  0.0383 -0.8456
12847TIP3    H159956   6.184   6.390   2.581  2.3561 -0.6081 -0.4522
12847TIP3    H259957   6.252   6.391   2.446 -0.4615 -0.6208 -1.9451
12848TIP3   OH259958   3.938   1.956  10.958 -0.1309  0.4244 -0.4131
12848TIP3    H159959   3.892   2.034  10.926  1.4582  1.6832  0.2449
12848TIP3    H259960   3.875   1.914  11.017 -0.3945  2.2247  0.6445
12849TIP3   OH259961   5.351   3.667   6.367  0.3421 -0.3052 -0.8702
12849TIP3    H159962   5.298   3.744   6.347  0.7635 -0.4550 -2.8692
12849TIP3    H259963   5.288   3.596   6.379 -0.1388  0.5578  2.4989
12850TIP3   OH259964   1.710   3.759   2.829  0.0150  0.3701 -0.0095
12850TIP3    H159965   1.635   3.700   2.835 -0.0220  0.3908 -0.2638
12850TIP3    H259966   1.699   3.818   2.904 -0.0321  0.1540  0.1560
12851TIP3   OH259967   2.689   2.999   0.365  0.6427  0.0437 -0.3645
12851TIP3    H159968   2.620   2.949   0.320 -0.0784  0.7114 -0.0211
12851TIP3    H259969   2.722   2.939   0.431  1.5015 -0.8453 -1.5554
12852TIP3   OH259970   1.306   0.969   0.871 -0.4625  0.2618 -0.2817
12852TIP3    H159971   1.214   0.942   0.883  0.0099 -2.1466 -1.4459
12852TIP3    H259972   1.332   0.927   0.789  0.9937  2.9970 -1.3527
12853TIP3   OH259973   5.526   1.352   1.297 -0.1222  0.8239 -0.2747
12853TIP3    H159974   5.548   1.423   1.358 -0.3086 -0.4238  1.3225
12853TIP3    H259975   5.433   1.363   1.280 -0.2926  0.6241  0.4733
12854TIP3   OH259976   1.513   5.536   5.529 -0.4410 -0.1242  0.1714
12854TIP3    H159977   1.549   5.624   5.520 -0.1267 -0.1658  0.9708
12854TIP3    H259978   1.425   5.550   5.563 -0.7632 -0.0801 -0.6538
12855TIP3   OH259979   2.314   1.629  11.738  0.5416 -0.3852 -0.2519
12855TIP3    H159980   2.251   1.673  11.794 -1.9483 -0.7888 -2.5507
12855TIP3    H259981   2.349   1.699  11.682  1.2910 -0.3727  0.2087
12856TIP3   OH259982   6.786   4.954  14.767  0.5526 -0.0190  0.5389
12856TIP3    H159983   6.717   4.920  14.824 -0.9852  0.3574 -1.0093
12856TIP3    H259984   6.741   4.976  14.686  2.1367  2.2778  0.2035
12857TIP3   OH259985   0.181   6.403   4.197 -0.0136  0.0528 -0.3818
12857TIP3    H159986   0.219   6.317   4.217  1.3888  0.9986  1.3064
12857TIP3    H259987   0.089   6.394   4.220 -0.0124 -1.1489 -0.7614
12858TIP3   OH259988   4.711   0.004  15.288  0.3609 -0.6210 -0.2229
12858TIP3    H159989   4.691  -0.089  15.277  1.5144 -0.9805  0.5944
12858TIP3    H259990   4.805   0.007  15.303  0.5112  0.7830 -1.2637
12859TIP3   OH259991   5.180   5.056   0.260 -0.5329  0.0014  0.1783
12859TIP3    H159992   5.239   5.009   0.202 -0.3004 -0.3522  0.6911
12859TIP3    H259993   5.238   5.100   0.322 -0.7113  1.4892 -0.6663
12860TIP3   OH259994   3.655   5.285   1.240 -0.3366  0.2193  0.5655
12860TIP3    H159995   3.577   5.283   1.186 -0.4318 -1.8040  0.6810
12860TIP3    H259996   3.650   5.367   1.289 -2.6118 -0.0580  0.8913
12861TIP3   OH259997   6.777   0.466  13.668  0.2878  0.0306 -0.0956
12861TIP3    H159998   6.742   0.431  13.750 -1.9798  0.7797 -0.6709
12861TIP3    H259999   6.817   0.550  13.692 -0.4022  0.2637  0.2349
12862TIP3   OH260000   4.524   6.734   1.151 -0.1679  0.0544 -0.6980
12862TIP3    H160001   4.538   6.828   1.142  0.7651 -0.1472 -1.5436
12862TIP3    H260002   4.489   6.706   1.067  0.6375 -0.5240 -0.8501
12863TIP3   OH260003   0.147   4.497   1.334 -0.2251  0.6835 -0.6919
12863TIP3    H160004   0.059   4.463   1.352 -0.3358  1.3445  0.0799
12863TIP3    H260005   0.163   4.475   1.242 -0.9548  0.0301 -0.6760
12864TIP3   OH260006   3.572   1.117   4.883 -0.1609 -0.2496  0.6889
12864TIP3    H160007   3.656   1.146   4.847 -0.9712  0.7696 -0.4420
12864TIP3    H260008   3.595   1.043   4.940  1.4010 -0.5396 -0.2594
12865TIP3   OH260009   3.453   0.666  15.954  0.4461  0.2123  0.8485
12865TIP3    H160010   3.411   0.663  15.868 -2.0515 -0.9359  2.0061
12865TIP3    H260011   3.382   0.683  16.015  1.7513 -1.1741  2.8933
12866TIP3   OH260012   2.621   5.086   2.708  0.4044 -0.5995 -0.2127
12866TIP3    H160013   2.563   5.139   2.654 -1.6817 -1.1557  1.3900
12866TIP3    H260014   2.629   5.003   2.660  0.3498 -0.3176 -0.7169
12867TIP3   OH260015   2.476   5.901   5.021  0.1635 -0.2899 -0.5026
12867TIP3    H160016   2.522   5.882   5.103 -2.9214  0.4191  1.5455
12867TIP3    H260017   2.546   5.906   4.956  2.9218  0.2640  2.2463
12868TIP3   OH260018   5.969   6.210   4.890 -0.0597  0.1014  0.1443
12868TIP3    H160019   6.011   6.132   4.855  0.6993  0.6188 -0.1290
12868TIP3    H260020   5.993   6.280   4.829 -0.6816  0.5620  0.4105
12869TIP3   OH260021   3.169   4.016   3.522 -0.2281 -0.5030 -0.3890
12869TIP3    H160022   3.204   4.099   3.554 -0.8765 -0.2221 -0.4063
12869TIP3    H260023   3.160   4.028   3.427 -0.7228 -0.4433 -0.3359
12870TIP3   OH260024   1.398   6.318  11.835 -0.3488 -0.4402  0.7246
12870TIP3    H160025   1.456   6.321  11.912 -0.2657 -1.5155  0.7249
12870TIP3    H260026   1.456   6.337  11.761 -0.4168  0.5398  0.9172
12871TIP3   OH260027   3.555   2.456  16.221 -0.5990  0.5786 -0.0533
12871TIP3    H160028   3.478   2.400  16.228 -0.7734  0.9254  1.1558
12871TIP3    H260029   3.606   2.437  16.300  0.6861  0.1828 -0.9528
12872TIP3   OH260030   2.340   4.088   2.024 -0.0052 -0.3043  1.0632
12872TIP3    H160031   2.401   4.048   2.086  0.2523  2.7343  2.9867
12872TIP3    H260032   2.382   4.171   1.999 -1.5559  0.0172 -0.7661
12873TIP3   OH260033   6.434   4.357   4.695 -0.0222  0.0208 -0.0389
12873TIP3    H160034   6.355   4.324   4.737  1.2805 -0.5657  2.1105
12873TIP3    H260035   6.505   4.332   4.754  1.8055  0.4278 -1.9394
12874TIP3   OH260036   2.491   1.504  13.971 -0.1714 -0.3660 -0.4378
12874TIP3    H160037   2.564   1.555  14.006 -0.1250  0.1940 -1.3057
12874TIP3    H260038   2.440   1.479  14.047 -0.8713  2.0269 -0.0536
12875TIP3   OH260039   5.955   0.290   5.546  0.0208  0.2404  0.2601
12875TIP3    H160040   5.892   0.224   5.573  1.4549 -3.3154 -3.8580
12875TIP3    H260041   5.902   0.361   5.508 -1.5693 -1.0474  0.0022
12876TIP3   OH260042   3.979   2.200  14.865 -0.1957  0.4241 -0.1772
12876TIP3    H160043   4.048   2.193  14.798  0.3840 -0.1732  0.4612
12876TIP3    H260044   3.926   2.274  14.837  0.5975  0.7811 -0.7924
12877TIP3   OH260045   4.947   1.715  13.139  0.8486 -0.0116 -0.2695
12877TIP3    H160046   4.989   1.767  13.071  1.3140 -1.0423 -0.7988
12877TIP3    H260047   4.872   1.674  13.096 -1.0850  2.1979  0.7867
12878TIP3   OH260048   6.383   2.710  14.248 -0.0029 -0.4366  0.0249
12878TIP3    H160049   6.461   2.687  14.299  0.3947 -1.9665 -1.1921
12878TIP3    H260050   6.310   2.691  14.306  0.4811 -0.6533  0.5708
12879TIP3   OH260051   3.284   6.509   1.393 -0.7955  0.0317  0.3660
12879TIP3    H160052   3.360   6.501   1.450 -0.1904  0.4088 -0.3731
12879TIP3    H260053   3.262   6.419   1.369  0.0751 -0.0327 -0.2508
12880TIP3   OH260054   0.178   2.864   3.122  0.2809  0.5083 -0.7038
12880TIP3    H160055   0.216   2.910   3.196  0.8130  1.4271 -1.5188
12880TIP3    H260056   0.144   2.782   3.159  0.7901  0.8138  0.4852
12881TIP3   OH260057   5.620   4.222   0.723  0.5026 -0.0606 -0.7792
12881TIP3    H160058   5.660   4.135   0.727  1.1596  0.2486  2.7268
12881TIP3    H260059   5.687   4.277   0.683  2.8951 -0.0380  2.8053
12882TIP3   OH260060   6.682   1.112  17.185  0.4470 -0.0093 -0.2855
12882TIP3    H160061   6.700   1.206  17.194  0.2237  0.0467 -0.4116
12882TIP3    H260062   6.752   1.069  17.233 -1.7219  0.3150  3.6164
12883TIP3   OH260063   0.305   5.855  14.028  0.3473 -0.0328 -0.0951
12883TIP3    H160064   0.225   5.842  13.977  0.4200 -1.5858  0.1530
12883TIP3    H260065   0.367   5.891  13.965 -0.2100  0.1300 -0.5647
12884TIP3   OH260066   3.067   2.943  13.476  0.4873  0.0645 -0.5341
12884TIP3    H160067   3.024   2.912  13.556 -2.3815  0.1776 -1.9134
12884TIP3    H260068   3.153   2.974  13.506  0.3463 -1.7553  2.1367
12885TIP3   OH260069   6.337   4.857   1.449 -0.9818 -0.3642  0.0131
12885TIP3    H160070   6.399   4.901   1.391  1.5715  1.6028  3.8285
12885TIP3    H260071   6.252   4.872   1.408  0.5899  0.6484 -3.2427
12886TIP3   OH260072   2.772   6.259  12.089 -0.0827  0.7832 -0.5526
12886TIP3    H160073   2.857   6.285  12.125  0.6460  0.4839 -1.9779
12886TIP3    H260074   2.710   6.272  12.161  1.3491 -0.1299  0.8955
12887TIP3   OH260075   5.195   5.304   5.945  0.4772  0.4427  0.4778
12887TIP3    H160076   5.129   5.316   6.013  0.9693 -0.1048  1.0641
12887TIP3    H260077   5.243   5.387   5.942 -0.1688  0.8052  0.1206
12888TIP3   OH260078   2.095   5.549   4.296 -0.2114 -0.1580 -0.1462
12888TIP3    H160079   2.157   5.622   4.303 -1.5479  1.0711 -0.5592
12888TIP3    H260080   2.080   5.522   4.387  1.1566 -0.7036 -0.0581
12889TIP3   OH260081   0.853   6.394  14.429 -0.4138 -0.0879  0.2300
12889TIP3    H160082   0.901   6.345  14.496  0.7039 -0.8470 -1.0780
12889TIP3    H260083   0.919   6.448  14.387 -1.3541  1.4237  0.5954
12890TIP3   OH260084   4.971   0.280  16.457  0.2387 -0.2030 -0.7681
12890TIP3    H160085   4.922   0.199  16.472 -0.4199  0.2649 -0.2635
12890TIP3    H260086   4.970   0.324  16.543 -0.1551  0.7202 -1.2282
12891TIP3   OH260087   3.894   1.649  14.522  0.0199 -0.0066 -0.7159
12891TIP3    H160088   3.912   1.563  14.559  0.0843  0.5934  0.7298
12891TIP3    H260089   3.951   1.709  14.571 -2.1921  1.2543  0.5125
12892TIP3   OH260090   2.156   4.617   5.361  0.3486 -0.5148 -0.2572
12892TIP3    H160091   2.106   4.684   5.313  2.4179  0.2637 -1.4902
12892TIP3    H260092   2.227   4.667   5.402  1.2101 -1.7961 -0.1576
12893TIP3   OH260093   3.157   3.413   3.154  0.5304  0.0644  0.2113
12893TIP3    H160094   3.112   3.362   3.222 -0.3159  0.4582 -0.0416
12893TIP3    H260095   3.192   3.489   3.200  1.4929 -0.5461  0.5248
12894TIP3   OH260096   5.271   1.478   1.632 -0.0648  0.6614 -0.3840
12894TIP3    H160097   5.347   1.510   1.584 -1.1239  2.3976 -1.0141
12894TIP3    H260098   5.247   1.396   1.588  0.6371  0.7858 -1.0180
12895TIP3   OH260099   0.125   3.346   3.121  0.1691 -0.4599  0.2148
12895TIP3    H160100   0.102   3.323   3.031 -0.7476 -0.0782  0.3428
12895TIP3    H260101   0.212   3.308   3.133 -0.3926 -1.9808 -0.2734
12896TIP3   OH260102   1.555   6.557  13.912 -0.3575  0.1940  0.4037
12896TIP3    H160103   1.465   6.572  13.883  0.2758  1.4144 -1.0956
12896TIP3    H260104   1.596   6.644  13.908  0.7492 -0.2408  1.6042
12897TIP3   OH260105   0.120   1.569  17.036 -0.1765 -0.4350 -0.2295
12897TIP3    H160106   0.047   1.627  17.012 -1.3055 -0.8096  2.0826
12897TIP3    H260107   0.098   1.485  16.995 -2.2222 -1.1474  2.1381
12898TIP3   OH260108   0.169   2.400  13.114  0.0052  0.4348 -0.2104
12898TIP3    H160109   0.106   2.336  13.147 -2.3710  1.4629 -2.4209
12898TIP3    H260110   0.218   2.354  13.046 -1.3273  0.7272 -1.4171
12899TIP3   OH260111   2.164   3.345   3.506 -0.0065  0.0409 -0.4149
12899TIP3    H160112   2.171   3.299   3.422  0.3663  1.3981 -1.1657
12899TIP3    H260113   2.155   3.437   3.482  1.5061  0.6381  1.0490
12900TIP3   OH260114   1.067   6.041   5.375  0.0772 -0.1869 -0.3066
12900TIP3    H160115   1.055   5.962   5.323 -1.7920  0.9761 -1.7572
12900TIP3    H260116   1.117   6.100   5.319 -0.8204  0.6008 -0.3056
12901TIP3   OH260117   2.707   0.896   3.468 -0.0574 -0.7343  0.1433
12901TIP3    H160118   2.619   0.868   3.492  0.1624 -0.5068  1.2594
12901TIP3    H260119   2.765   0.831   3.508  0.3212 -0.4416  0.0813
12902TIP3   OH260120   1.452   6.386   2.591  0.2839 -0.6717 -0.1737
12902TIP3    H160121   1.426   6.478   2.590  1.3596 -0.3432  0.3830
12902TIP3    H260122   1.489   6.370   2.504  0.9228 -0.3203  0.0284
12903TIP3   OH260123   4.851   5.010  12.942 -0.4181  0.0691 -0.2740
12903TIP3    H160124   4.837   5.085  12.883 -0.5693  1.5240  1.5327
12903TIP3    H260125   4.765   4.992  12.978 -0.1076  0.0140  0.4452
12904TIP3   OH260126   0.317   6.744  12.644  0.3290  0.2155 -0.7070
12904TIP3    H160127   0.311   6.806  12.717 -0.1606 -0.0297 -0.5323
12904TIP3    H260128   0.248   6.680  12.662  0.2768  0.0925 -1.3300
12905TIP3   OH260129   1.399   3.714  15.126  0.6453 -0.3872 -0.2440
12905TIP3    H160130   1.459   3.788  15.117  0.6409 -0.2958  0.4143
12905TIP3    H260131   1.314   3.748  15.100  0.9777 -0.6995 -1.8553
12906TIP3   OH260132   4.349   5.282   3.552 -0.2783  0.1751  0.0477
12906TIP3    H160133   4.439   5.269   3.525 -0.5730 -0.9520 -0.4506
12906TIP3    H260134   4.314   5.347   3.491 -0.1868 -0.4076 -0.6355
12907TIP3   OH260135   2.360   1.589  13.698 -0.2537 -0.3553  0.2541
12907TIP3    H160136   2.309   1.646  13.756  2.8124  1.6916  1.1822
12907TIP3    H260137   2.395   1.521  13.755  2.5259  1.4944  0.9490
12908TIP3   OH260138   3.037   1.220   2.568  0.3426 -0.5572 -0.2325
12908TIP3    H160139   3.059   1.285   2.635 -0.2590 -1.1446  0.5558
12908TIP3    H260140   3.068   1.259   2.486  1.0261  0.2118  0.3683
12909TIP3   OH260141   1.531   3.552   0.737 -0.8675 -0.3932  0.1433
12909TIP3    H160142   1.610   3.553   0.790 -0.7546  2.8840  0.1235
12909TIP3    H260143   1.557   3.506   0.657  1.0700  0.5264  0.1639
12910TIP3   OH260144   6.228   0.850   6.064  0.6475 -0.1754  0.1347
12910TIP3    H160145   6.299   0.909   6.090 -0.1448  1.0219 -0.3086
12910TIP3    H260146   6.151   0.885   6.108 -0.0235 -0.2872 -0.9044
12911TIP3   OH260147   0.163   4.327  13.696  0.2302 -0.1403 -0.3579
12911TIP3    H160148   0.210   4.341  13.614  1.0705  0.2851  0.1838
12911TIP3    H260149   0.218   4.267  13.746 -2.1128 -3.6562 -1.6103
12912TIP3   OH260150   6.277   3.332  17.138  0.1399 -0.9321  0.0102
12912TIP3    H160151   6.184   3.320  17.118  0.2551 -1.4862 -0.2245
12912TIP3    H260152   6.319   3.331  17.052  0.2794  0.1725  0.0506
12913TIP3   OH260153   5.697   1.218  15.716  0.3991  0.2525  0.3460
12913TIP3    H160154   5.703   1.125  15.699 -0.0931  0.3519 -0.3981
12913TIP3    H260155   5.693   1.259  15.630 -0.6936  0.8661  0.6612
12914TIP3   OH260156   5.622   3.118   5.217  0.3998 -0.2410 -0.3698
12914TIP3    H160157   5.715   3.117   5.195  0.3413 -1.1530 -0.5969
12914TIP3    H260158   5.583   3.052   5.159 -0.6538  1.2366 -1.4075
12915TIP3   OH260159   5.060   6.272   3.312 -0.5562 -0.7175 -0.3913
12915TIP3    H160160   5.150   6.257   3.340 -0.6799 -0.2315  0.2979
12915TIP3    H260161   5.019   6.317   3.387 -0.7524  1.1087 -1.5295
12916TIP3   OH260162   2.936   3.002   6.334 -0.5816  0.1060  0.3998
12916TIP3    H160163   2.902   2.969   6.417  0.4353  0.9057  1.1489
12916TIP3    H260164   2.935   3.097   6.343 -1.8884  0.2842 -1.0967
12917TIP3   OH260165   1.426   1.165   5.340 -0.0945  0.0144  0.0668
12917TIP3    H160166   1.399   1.197   5.426  0.4119  0.7739 -0.0462
12917TIP3    H260167   1.438   1.071   5.352  0.1312  0.1387  0.8727
12918TIP3   OH260168   3.363   6.333   0.200 -0.7398 -0.4978  0.1258
12918TIP3    H160169   3.309   6.377   0.133 -0.1802  0.3565  0.2227
12918TIP3    H260170   3.421   6.276   0.150  0.5033  1.0188 -0.2579
12919TIP3   OH260171   1.320   3.279  16.886  0.1694 -0.1314 -0.1166
12919TIP3    H160172   1.343   3.327  16.966 -0.7334  0.1447 -0.0115
12919TIP3    H260173   1.358   3.192  16.898  0.5591  0.0933  0.3378
12920TIP3   OH260174   6.525   2.335  14.308  0.0073  0.0262  0.2771
12920TIP3    H160175   6.453   2.343  14.246  0.3489 -0.2366 -0.1612
12920TIP3    H260176   6.522   2.416  14.359 -0.0049  0.4497 -0.3784
12921TIP3   OH260177   4.363   4.452   3.064 -0.0308 -0.2861  0.3670
12921TIP3    H160178   4.367   4.475   2.971 -0.7168 -1.2061  0.0991
12921TIP3    H260179   4.293   4.505   3.099  1.2027  1.1790  0.7114
12922TIP3   OH260180   3.141   6.403   2.897 -0.2214  0.5945 -0.4042
12922TIP3    H160181   3.046   6.399   2.908 -0.0175 -1.7463  1.2921
12922TIP3    H260182   3.163   6.327   2.843  0.6630  1.4420 -1.2728
12923TIP3   OH260183   1.867   2.153   0.055  0.2549  0.0895  0.7833
12923TIP3    H160184   1.908   2.067   0.045  0.5918  0.4137 -0.8480
12923TIP3    H260185   1.870   2.192  -0.032  0.2397  1.8275  1.5164
12924TIP3   OH260186   4.295   5.723   1.310  0.2552 -0.4855  0.0781
12924TIP3    H160187   4.264   5.747   1.397  0.3904  1.4901 -0.3764
12924TIP3    H260188   4.226   5.667   1.274 -2.2161  2.5738 -0.3352
12925TIP3   OH260189   5.894   1.088  15.978  0.8257 -0.5321  0.6498
12925TIP3    H160190   5.939   1.167  15.950  1.4834 -1.6568 -1.7465
12925TIP3    H260191   5.962   1.020  15.976 -0.4249 -1.8279 -0.8759
12926TIP3   OH260192   5.689   5.213  11.866 -0.1219  0.3095  0.9027
12926TIP3    H160193   5.691   5.148  11.795  1.1640  1.2423  0.0314
12926TIP3    H260194   5.778   5.210  11.903 -0.1023  1.4181  0.9774
12927TIP3   OH260195   5.732   4.128   5.844  0.1799 -0.2085 -0.7471
12927TIP3    H160196   5.803   4.123   5.907  0.7859  0.7743 -1.3174
12927TIP3    H260197   5.776   4.130   5.759 -0.3826  2.2803 -1.0607
12928TIP3   OH260198   2.505   1.059  15.820  0.1342  0.5611  0.0123
12928TIP3    H160199   2.553   1.098  15.893 -1.1478  1.7996  0.2314
12928TIP3    H260200   2.564   0.991  15.787  1.4386  1.0852  1.1386
12929TIP3   OH260201   5.822   5.456   0.660  0.2088 -0.2123  0.1126
12929TIP3    H160202   5.843   5.549   0.650 -1.8683  0.2417 -0.3476
12929TIP3    H260203   5.757   5.439   0.592 -0.1094 -1.7864  0.7869
12930TIP3   OH260204   6.508   3.258   1.436 -0.4311  0.3884 -0.0089
12930TIP3    H160205   6.461   3.307   1.369 -2.0904 -0.3760  0.5586
12930TIP3    H260206   6.577   3.212   1.388  1.1243  3.0913 -0.5747
12931TIP3   OH260207   1.592   0.738  15.279 -0.4196 -0.2574  0.3677
12931TIP3    H160208   1.529   0.749  15.208 -1.0887  1.7907  1.2147
12931TIP3    H260209   1.539   0.738  15.358  0.4675 -0.8828  0.9823
12932TIP3   OH260210   0.864   1.145   2.743  0.3146  0.1681 -0.8254
12932TIP3    H160211   0.813   1.136   2.662 -0.1434  0.5181 -0.5829
12932TIP3    H260212   0.847   1.064   2.791 -2.0733  1.2683  0.3882
12933TIP3   OH260213   5.986   4.652   1.160  0.0116 -0.5926 -0.4581
12933TIP3    H160214   5.907   4.604   1.136 -0.7675 -0.6085  1.8469
12933TIP3    H260215   6.038   4.589   1.210  0.3667  0.0941  0.0547
12934TIP3   OH260216   3.867   4.553  13.335  0.0887 -0.4104  0.7966
12934TIP3    H160217   3.923   4.480  13.362  0.9283 -0.2963 -0.5189
12934TIP3    H260218   3.870   4.551  13.239 -1.3087  0.2782  0.7041
12935TIP3   OH260219   6.406   1.705  15.966  0.3029 -0.2358  0.5618
12935TIP3    H160220   6.469   1.635  15.948  2.0614  1.5776 -0.7611
12935TIP3    H260221   6.335   1.689  15.904  0.2509 -1.3077  0.8699
12936TIP3   OH260222   2.865   6.217   4.946 -0.1186  0.0666 -0.0619
12936TIP3    H160223   2.865   6.157   4.871 -0.5001 -0.3788  0.2917
12936TIP3    H260224   2.948   6.264   4.938 -0.0368 -0.1582 -0.6206
12937TIP3   OH260225   1.070   3.727   5.354  0.1032  0.1891 -0.5578
12937TIP3    H160226   1.158   3.694   5.334 -0.0543  0.0406 -1.0197
12937TIP3    H260227   1.011   3.667   5.308 -0.2273  0.4714 -0.5035
12938TIP3   OH260228   3.457   6.091   2.406 -0.4683  0.0286  0.6555
12938TIP3    H160229   3.525   6.143   2.363  0.0647 -0.8304  0.4321
12938TIP3    H260230   3.376   6.140   2.391 -0.5702 -0.8715 -2.5774
12939TIP3   OH260231   4.663   6.362   0.674 -0.4714 -0.5347  0.0468
12939TIP3    H160232   4.642   6.326   0.588  0.3473 -0.3419 -0.2394
12939TIP3    H260233   4.734   6.424   0.658 -0.8000  0.0487  0.7572
12940TIP3   OH260234   2.854   6.458   3.656  0.1285  0.0197  0.4673
12940TIP3    H160235   2.932   6.429   3.704  2.5625 -0.3606 -3.3195
12940TIP3    H260236   2.880   6.454   3.564 -4.4832 -0.2893 -1.0552
12941TIP3   OH260237   3.125   0.130  12.298 -0.2885  0.0744  0.1898
12941TIP3    H160238   3.149   0.191  12.228 -1.5469  1.7687  1.1587
12941TIP3    H260239   3.048   0.084  12.264  0.4261 -0.7511 -0.3804
12942TIP3   OH260240   3.822   5.224   5.607 -0.2414 -0.2634  0.3381
12942TIP3    H160241   3.820   5.299   5.666  0.2312 -0.5269  0.6931
12942TIP3    H260242   3.754   5.243   5.543 -1.0990 -0.2088  1.2453
12943TIP3   OH260243   1.843   1.828   1.246  0.4620  0.0015  0.0903
12943TIP3    H160244   1.864   1.839   1.154  1.0675  1.3530  0.3779
12943TIP3    H260245   1.911   1.876   1.293 -1.6658  2.2440  1.1210
12944TIP3   OH260246   1.141   3.019   2.177  0.3045  0.4224  0.5500
12944TIP3    H160247   1.080   2.967   2.124  0.0901  1.4313 -0.2124
12944TIP3    H260248   1.208   2.956   2.204 -0.3909 -0.4297  0.3424
12945TIP3   OH260249   5.521   2.485   4.214 -0.5977 -0.2759  0.7316
12945TIP3    H160250   5.521   2.467   4.308  2.4883  0.7968  1.0758
12945TIP3    H260251   5.575   2.563   4.205  0.7839 -1.4051 -2.0732
12946TIP3   OH260252   2.012   2.308  13.229  0.1721  0.1538 -0.0151
12946TIP3    H160253   2.023   2.403  13.219 -0.9538  0.1876 -1.2428
12946TIP3    H260254   1.917   2.295  13.231  0.2725 -1.0826 -1.5035
12947TIP3   OH260255   4.298   1.552  14.454  0.4577 -0.0538 -0.3724
12947TIP3    H160256   4.210   1.562  14.417 -1.1079 -0.6772  2.7974
12947TIP3    H260257   4.294   1.599  14.537  2.4814 -1.6979  0.7536
12948TIP3   OH260258   0.241   1.750   3.105  0.5051 -0.3086  0.4992
12948TIP3    H160259   0.202   1.720   3.023  0.5298 -4.4141  1.7496
12948TIP3    H260260   0.181   1.719   3.173  1.2849  1.5744  2.1342
12949TIP3   OH260261   5.144   6.665  14.285  0.2106 -0.2186  0.3045
12949TIP3    H160262   5.105   6.591  14.239  1.6821 -0.0156 -1.3794
12949TIP3    H260263   5.075   6.696  14.343 -0.9408 -1.9693 -0.0461
12950TIP3   OH260264   5.582   0.512   4.265  0.0361 -0.4637 -0.4157
12950TIP3    H160265   5.620   0.579   4.208  0.7794 -1.0325 -0.6021
12950TIP3    H260266   5.493   0.499   4.230 -0.3479  0.8448  0.0028
12951TIP3   OH260267   0.662   5.753  13.291 -0.4146 -0.2841  0.5098
12951TIP3    H160268   0.667   5.754  13.196  1.0433  1.2011  0.5603
12951TIP3    H260269   0.716   5.678  13.317  1.0310  0.6216  0.2083
12952TIP3   OH260270   4.910   6.471   3.485 -0.2457  0.3640  0.5130
12952TIP3    H160271   4.866   6.441   3.565  1.1076  3.5218  2.6430
12952TIP3    H260272   5.003   6.470   3.507  0.3223 -0.3687 -1.7147
12953TIP3   OH260273   5.929   4.417  10.951  0.0373 -0.7236 -0.0223
12953TIP3    H160274   5.929   4.501  10.997  1.6446 -0.9986  0.5481
12953TIP3    H260275   5.922   4.440  10.858  0.9452  0.0795  0.0960
12954TIP3   OH260276   6.102   4.764  16.248  0.3749 -0.1215  0.4243
12954TIP3    H160277   6.138   4.780  16.161  0.6146  0.7880  0.6761
12954TIP3    H260278   6.048   4.686  16.238  1.0411 -0.4888 -0.3550
12955TIP3   OH260279   5.012   5.155  13.140  0.3644 -0.2116  0.8287
12955TIP3    H160280   4.976   5.133  13.055  1.8732  0.5734 -0.0566
12955TIP3    H260281   5.012   5.073  13.189  2.0806 -1.3414 -0.9414
12956TIP3   OH260282   6.486   5.752   6.286 -0.0530  0.0506  0.0940
12956TIP3    H160283   6.565   5.701   6.305  0.0667 -0.4238 -1.4767
12956TIP3    H260284   6.434   5.695   6.229 -0.9108  0.8716  0.0316
12957TIP3   OH260285   6.351   0.680   3.997 -0.4077  0.2971 -0.0630
12957TIP3    H160286   6.276   0.621   3.995 -1.8182  2.0091 -0.9543
12957TIP3    H260287   6.328   0.744   4.065 -1.2564  2.5864 -2.3629
12958TIP3   OH260288   0.790   1.981  12.145  0.5115  0.0754 -0.2086
12958TIP3    H160289   0.787   1.922  12.070 -0.6103  0.0640 -0.1764
12958TIP3    H260290   0.706   1.968  12.189  0.1469  1.8046 -0.2969
12959TIP3   OH260291   2.375   6.365   2.153  0.2484  1.0751 -0.0581
12959TIP3    H160292   2.359   6.383   2.061 -1.4699  0.2670  0.0478
12959TIP3    H260293   2.471   6.366   2.161  0.4061  2.2262 -1.5999
12960TIP3   OH260294   6.518   4.637   1.621 -0.0978 -0.6082  0.0500
12960TIP3    H160295   6.478   4.653   1.706 -0.2215 -1.0412  0.0768
12960TIP3    H260296   6.451   4.663   1.558 -0.0525 -0.4016  0.0878
12961TIP3   OH260297   5.425   4.224   0.941  0.2237  0.6887  0.0839
12961TIP3    H160298   5.499   4.193   0.889  0.4369  0.7515  0.3465
12961TIP3    H260299   5.352   4.166   0.917  0.7347 -0.3252  0.9096
12962TIP3   OH260300   4.628   5.951   1.085  0.6085  0.4058 -0.3802
12962TIP3    H160301   4.622   5.976   0.993  0.8353 -0.8878 -0.7556
12962TIP3    H260302   4.637   6.035   1.132 -1.2475  1.2192 -1.3630
12963TIP3   OH260303   3.398   4.976   2.593  0.2588  0.5113 -0.1250
12963TIP3    H160304   3.315   5.015   2.621  1.1050  1.9833  0.5054
12963TIP3    H260305   3.399   4.987   2.498 -0.7995 -0.6846 -0.3003
12964TIP3   OH260306   1.927   3.272   1.145 -0.0700 -0.4985 -0.5880
12964TIP3    H160307   1.961   3.297   1.231  0.3910 -0.3376 -0.8134
12964TIP3    H260308   1.842   3.315   1.140 -0.2125 -0.7125 -0.1127
12965TIP3   OH260309   4.225   5.578  13.189 -0.0146 -0.1422  0.0762
12965TIP3    H160310   4.263   5.572  13.277 -1.2787  0.2574  0.6773
12965TIP3    H260311   4.295   5.615  13.136  0.5738  0.2298  1.0682
12966TIP3   OH260312   2.469   5.575   3.043 -0.0417 -0.2679  0.5002
12966TIP3    H160313   2.448   5.620   2.961  2.3957  0.8289  0.3983
12966TIP3    H260314   2.478   5.646   3.107  1.4386 -0.8037  0.9126
12967TIP3   OH260315   3.962   2.729  15.316 -0.0228  0.2206  0.6901
12967TIP3    H160316   3.932   2.638  15.324  1.9010 -0.6164 -0.9264
12967TIP3    H260317   4.033   2.726  15.252  0.2671  2.8494  0.7742
12968TIP3   OH260318   5.366   1.837  12.681  0.1200  0.3882 -0.9649
12968TIP3    H160319   5.271   1.845  12.669 -0.2468 -0.4355  1.0656
12968TIP3    H260320   5.385   1.745  12.662  0.5420  0.5630 -1.4159
12969TIP3   OH260321   4.245   4.447  12.135 -0.4481  0.3525 -0.0981
12969TIP3    H160322   4.247   4.428  12.042  0.2663  0.7369 -0.1687
12969TIP3    H260323   4.325   4.407  12.170 -0.9499 -0.2211  0.4449
12970TIP3   OH260324   5.659   6.172   1.795  0.1921  0.5280 -0.2566
12970TIP3    H160325   5.649   6.230   1.870  1.5847 -0.4239  0.7209
12970TIP3    H260326   5.752   6.177   1.773  0.2515 -0.9173 -0.4574
12971TIP3   OH260327   1.519   2.559   4.705 -0.8704  0.6443 -0.0242
12971TIP3    H160328   1.456   2.491   4.730 -1.1648  0.7593 -0.4334
12971TIP3    H260329   1.546   2.599   4.787 -1.5326  0.7630  0.1413
12972TIP3   OH260330   5.381   0.998  12.980  0.0391 -0.2320 -0.2001
12972TIP3    H160331   5.399   1.092  12.986  2.4206 -0.7040  1.0926
12972TIP3    H260332   5.288   0.990  13.000  0.2225  1.6882  1.7501
12973TIP3   OH260333   5.453   0.948   0.398 -0.3347  0.0352 -0.4991
12973TIP3    H160334   5.394   0.875   0.419 -0.1998  0.0528 -0.0551
12973TIP3    H260335   5.532   0.929   0.447  0.2564 -0.2912 -1.5416
12974TIP3   OH260336   1.743   0.392   2.348 -0.1836  0.5955 -0.2323
12974TIP3    H160337   1.730   0.428   2.436 -2.2192  3.4630 -1.5407
12974TIP3    H260338   1.759   0.469   2.293  0.7836 -1.0816 -2.4394
12975TIP3   OH260339   1.743   1.857   3.086  0.2866  0.0606 -0.0295
12975TIP3    H160340   1.749   1.798   3.011 -0.0207  0.0535 -0.0480
12975TIP3    H260341   1.775   1.941   3.053  0.9724 -0.1561  0.0670
12976TIP3   OH260342   6.626   5.470   2.413 -0.3009  0.0294  0.1120
12976TIP3    H160343   6.616   5.502   2.323  0.6326  0.7759  0.2532
12976TIP3    H260344   6.538   5.477   2.450 -0.3914  1.2766 -0.2598
12977TIP3   OH260345   2.797   0.889   3.101  0.0450 -0.1347 -0.2896
12977TIP3    H160346   2.870   0.881   3.162  0.3879 -1.3650 -0.8169
12977TIP3    H260347   2.719   0.892   3.157  0.5115  2.1049  0.3167
12978TIP3   OH260348   3.240   0.922  16.633  0.2279  0.2281 -0.2586
12978TIP3    H160349   3.215   1.007  16.595  0.1525  0.1710 -0.3366
12978TIP3    H260350   3.157   0.879  16.652  0.2586 -0.2889 -1.2337
12979TIP3   OH260351   6.183   6.629  12.046  0.0018  0.4354  0.7679
12979TIP3    H160352   6.136   6.571  12.107  2.1512 -0.1944  1.9494
12979TIP3    H260353   6.238   6.569  11.994  0.1003  1.1908 -0.0188
12980TIP3   OH260354   0.555   1.517  12.581 -0.1944 -0.0293  0.2363
12980TIP3    H160355   0.582   1.431  12.550 -1.3939 -0.3826  0.1390
12980TIP3    H260356   0.626   1.544  12.640  0.4875 -0.8036 -0.2097
12981TIP3   OH260357   3.761   4.050  12.950  0.6352 -0.2712  0.2762
12981TIP3    H160358   3.685   3.991  12.949  2.1348 -2.3325  1.3364
12981TIP3    H260359   3.742   4.112  13.020 -0.8291  0.3889 -0.6399
12982TIP3   OH260360   5.862   3.615  14.139 -0.7226 -0.6949  0.3551
12982TIP3    H160361   5.859   3.673  14.215  1.4854 -0.9150  0.6905
12982TIP3    H260362   5.933   3.553  14.158  0.0250 -0.6577 -1.8993
12983TIP3   OH260363   1.297   5.859  11.341 -0.7794 -0.3483  0.0202
12983TIP3    H160364   1.344   5.928  11.295  0.2513 -0.8632  0.2788
12983TIP3    H260365   1.306   5.882  11.434  0.4196 -1.3311  0.1714
12984TIP3   OH260366   2.029   5.789  13.391 -0.2624 -0.2060  0.1763
12984TIP3    H160367   1.974   5.821  13.463  0.0573  1.5264 -0.2999
12984TIP3    H260368   2.118   5.792  13.425 -0.0782  0.8933 -0.3359
12985TIP3   OH260369   5.616   0.312   0.620  0.8539  0.0144 -0.0201
12985TIP3    H160370   5.539   0.363   0.594  0.6730  0.0269  0.5144
12985TIP3    H260371   5.663   0.295   0.539 -0.1255 -0.6776 -0.4529
12986TIP3   OH260372   4.174   5.979  15.935  0.4065 -0.1412  0.6026
12986TIP3    H160373   4.188   5.972  16.030  0.4746 -1.1220  0.5328
12986TIP3    H260374   4.089   6.024  15.927  0.0278 -0.7435  1.1436
12987TIP3   OH260375   3.063   2.701   5.270  0.3996  0.6793  0.1420
12987TIP3    H160376   3.144   2.652   5.281  0.2765  0.4298 -0.0581
12987TIP3    H260377   3.060   2.761   5.345 -0.9107 -1.6466  2.0658
12988TIP3   OH260378   0.413   0.947   5.185  0.1370 -0.0732  0.1313
12988TIP3    H160379   0.362   0.911   5.258  0.8314 -0.7170  0.3055
12988TIP3    H260380   0.401   1.041   5.191 -2.1089 -0.2415 -0.5986
12989TIP3   OH260381   4.110   2.758   1.124 -0.5250  0.0369 -0.0151
12989TIP3    H160382   4.022   2.729   1.098 -0.9062 -0.6731  1.8943
12989TIP3    H260383   4.118   2.731   1.216  2.6218 -2.1383 -0.7778
12990TIP3   OH260384   0.531   5.997  13.888 -0.2449 -0.1579 -0.0358
12990TIP3    H160385   0.609   6.003  13.834 -0.3032 -0.3943 -0.1485
12990TIP3    H260386   0.545   6.062  13.958  0.1357 -0.3352  0.0552
12991TIP3   OH260387   3.076   0.702   2.681  0.3532 -0.1285  0.4176
12991TIP3    H160388   3.150   0.653   2.717 -0.2960 -1.2685  0.2675
12991TIP3    H260389   3.106   0.732   2.595  0.5141 -0.9808  0.1590
12992TIP3   OH260390   2.500   1.494  12.472  0.1220  0.4798  0.2693
12992TIP3    H160391   2.579   1.473  12.522  0.4969 -0.6028 -0.7471
12992TIP3    H260392   2.513   1.452  12.387 -0.8102  1.6999 -0.5122
12993TIP3   OH260393   6.283   3.480  16.193  0.1537  0.1414 -0.2178
12993TIP3    H160394   6.192   3.498  16.220  0.2724 -0.6163  0.7559
12993TIP3    H260395   6.295   3.532  16.114 -1.0445  0.4765 -0.2062
12994TIP3   OH260396   5.303   4.841  15.384  0.0567  0.1186 -0.2818
12994TIP3    H160397   5.210   4.825  15.373  0.3120 -0.3248 -2.1763
12994TIP3    H260398   5.342   4.753  15.391  0.3910  0.2826 -0.0304
12995TIP3   OH260399   0.407   6.316  12.656 -0.1954  0.4712  0.6944
12995TIP3    H160400   0.352   6.362  12.593  0.4854  1.1266  0.5548
12995TIP3    H260401   0.358   6.320  12.738 -0.8503  0.0697  0.3293
12996TIP3   OH260402   3.154   2.259  13.189 -0.3718 -0.9395 -0.1530
12996TIP3    H160403   3.162   2.349  13.221 -0.6261 -0.3324 -1.7064
12996TIP3    H260404   3.062   2.249  13.169 -0.2376 -1.3343 -0.5851
12997TIP3   OH260405   3.354   1.928  16.096  0.1454  0.0997 -0.2733
12997TIP3    H160406   3.272   1.886  16.123  0.3587  1.0504  2.0558
12997TIP3    H260407   3.331   1.975  16.015 -1.7747  0.8111  0.6328
12998TIP3   OH260408   3.906   5.553  16.031 -0.7301 -0.2256  0.3963
12998TIP3    H160409   3.837   5.557  16.097 -0.1721 -0.4720  1.0088
12998TIP3    H260410   3.921   5.459  16.018 -2.5508 -0.2891 -1.9374
12999TIP3   OH260411   4.122   0.517   2.884  0.3423 -0.0101 -0.0095
12999TIP3    H160412   4.164   0.436   2.912 -0.6254 -0.7106 -0.5506
12999TIP3    H260413   4.163   0.537   2.799 -0.6497 -0.8957 -0.7180
13000TIP3   OH260414   1.267   2.095  15.061 -0.6594 -0.4695 -0.1000
13000TIP3    H160415   1.238   2.124  14.974 -0.5040 -0.4847 -0.1570
13000TIP3    H260416   1.186   2.073  15.107 -0.8323  0.5482  0.1241
13001TIP3   OH260417   3.283   4.101  13.919  0.2705 -0.7448  0.2367
13001TIP3    H160418   3.313   4.011  13.910 -1.7653 -1.5127  0.4774
13001TIP3    H260419   3.270   4.132  13.829  2.0856 -0.2389  0.1109
13002TIP3   OH260420   4.961   4.363   2.546 -0.2972  0.2703  0.4513
13002TIP3    H160421   4.990   4.454   2.551 -0.0318  0.2365 -0.3465
13002TIP3    H260422   4.879   4.361   2.595 -1.8280  1.5766 -1.8940
13003TIP3   OH260423   4.930   2.101  15.674  0.0400  0.1445 -0.0563
13003TIP3    H160424   4.928   2.014  15.715 -1.4542  0.1666 -0.0241
13003TIP3    H260425   5.003   2.146  15.716  0.2603 -0.7812  0.5794
13004TIP3   OH260426   6.111   4.547  14.970  0.2280  0.1291  0.0668
13004TIP3    H160427   6.090   4.591  15.052 -1.8015  2.2741 -1.4646
13004TIP3    H260428   6.140   4.617  14.912 -0.6180 -0.9284 -1.7292
13005TIP3   OH260429   5.706   1.536   3.188  0.5362 -0.0212  0.0736
13005TIP3    H160430   5.624   1.552   3.235  1.5828  0.7956  1.7109
13005TIP3    H260431   5.740   1.623   3.169  0.8528 -0.3537 -0.9563
13006TIP3   OH260432   3.823   4.133  15.181 -0.2880  0.3132  0.2091
13006TIP3    H160433   3.874   4.162  15.256 -1.7547 -0.8133  1.7062
13006TIP3    H260434   3.747   4.089  15.219 -1.8727  1.0188 -1.9186
13007TIP3   OH260435   1.392   0.576  14.499 -0.1583  0.3957 -0.1935
13007TIP3    H160436   1.370   0.603  14.588  0.4870  0.7586 -0.1326
13007TIP3    H260437   1.344   0.637  14.443 -1.5665 -0.6243 -0.1293
13008TIP3   OH260438   1.849   0.245  10.496 -0.4241  0.1022  0.6089
13008TIP3    H160439   1.792   0.178  10.458  0.1882  0.5561 -1.1794
13008TIP3    H260440   1.926   0.196  10.526  0.0492 -0.0096 -0.7453
13009TIP3   OH260441   5.326   0.879   6.080  0.4595 -0.4035 -0.2076
13009TIP3    H160442   5.411   0.868   6.123  0.0402  2.6429  1.7316
13009TIP3    H260443   5.265   0.828   6.132  0.8951 -1.9969 -1.1721
13010TIP3   OH260444   0.232   5.192   1.492 -0.0779 -0.1871  0.3580
13010TIP3    H160445   0.247   5.133   1.566 -1.1538  0.7738  1.4003
13010TIP3    H260446   0.295   5.263   1.505 -0.6387  0.2605  0.6874
13011TIP3   OH260447   1.863   4.182  11.824 -0.1018  0.3923  0.3426
13011TIP3    H160448   1.814   4.161  11.744  1.9454 -0.0150 -0.8790
13011TIP3    H260449   1.880   4.097  11.864  2.2166  0.1756 -0.9267
13012TIP3   OH260450   3.714   5.809  11.609  0.4827  0.6223  0.7220
13012TIP3    H160451   3.730   5.903  11.615  1.7635  0.4656  0.0579
13012TIP3    H260452   3.686   5.796  11.518  0.9577  0.2840  0.6191
13013TIP3   OH260453   0.763   3.194  10.959 -0.2187 -0.1864  0.0803
13013TIP3    H160454   0.676   3.179  10.921 -1.0187 -0.3706  1.8770
13013TIP3    H260455   0.821   3.137  10.909 -1.0893  0.0227 -1.2353
13014TIP3   OH260456   3.093   1.940   5.272 -0.8019  0.3196  0.4076
13014TIP3    H160457   3.035   1.920   5.199 -1.2376 -1.2084  1.1327
13014TIP3    H260458   3.074   1.873   5.337  0.7393  0.6690  1.2705
13015TIP3   OH260459   4.022   6.425  11.553  0.0590 -0.5161 -0.2499
13015TIP3    H160460   3.993   6.394  11.467  1.8167  2.6755 -2.2089
13015TIP3    H260461   3.973   6.372  11.616 -2.2805 -2.1707 -3.2081
13016TIP3   OH260462   5.509   0.178   5.926  0.2226 -0.0985  0.1207
13016TIP3    H160463   5.480   0.263   5.894  1.6731  0.6706  0.7696
13016TIP3    H260464   5.540   0.195   6.015  0.7034 -1.2662  0.1938
13017TIP3   OH260465   5.225   0.025  14.793 -0.3801  0.2268  0.2701
13017TIP3    H160466   5.249  -0.054  14.743 -0.6520 -0.5638  1.3502
13017TIP3    H260467   5.131   0.017  14.808 -0.2936  0.4148  0.9533
13018TIP3   OH260468   4.953   1.645  12.594  0.4605  0.1688 -0.5901
13018TIP3    H160469   4.885   1.673  12.656  0.6158 -1.3536  0.3246
13018TIP3    H260470   5.005   1.724  12.579 -0.9527  1.1352 -0.5934
13019TIP3   OH260471   2.561   0.401   5.414 -0.1682 -0.1100 -0.2224
13019TIP3    H160472   2.518   0.472   5.366 -0.2885 -0.4980 -0.7025
13019TIP3    H260473   2.544   0.420   5.506 -1.0801 -0.0671 -0.3914
13020TIP3   OH260474   1.538   3.675   2.436  0.7421 -0.0417 -0.5832
13020TIP3    H160475   1.557   3.755   2.387 -0.7904 -0.7177 -2.4093
13020TIP3    H260476   1.623   3.645   2.467  1.4714  1.7039 -0.7836
13021TIP3   OH260477   2.924   3.501   3.522 -0.2697 -0.1744 -0.1164
13021TIP3    H160478   2.956   3.540   3.603 -0.6602  1.8080 -0.8523
13021TIP3    H260479   2.867   3.430   3.550 -1.8308  1.5899  1.4408
13022TIP3   OH260480   3.366   1.657   2.978 -0.5575 -0.1270  0.1973
13022TIP3    H160481   3.302   1.647   3.048 -1.2465  0.0159 -0.4022
13022TIP3    H260482   3.382   1.752   2.973  0.2934 -0.2270  0.8618
13023TIP3   OH260483   1.332   4.464   1.965 -0.0071 -0.2503  0.0306
13023TIP3    H160484   1.319   4.395   2.030 -0.8852 -1.2360 -1.1478
13023TIP3    H260485   1.256   4.522   1.975  0.5834  0.4004  0.8256
13024TIP3   OH260486   4.265   5.330  12.553  0.3833 -0.5823  0.1451
13024TIP3    H160487   4.325   5.279  12.499  1.2957  0.2072  0.3708
13024TIP3    H260488   4.288   5.421  12.534 -1.6479 -0.2056 -0.7409
13025TIP3   OH260489   1.295   2.290  13.845 -0.4481 -0.2545  0.1192
13025TIP3    H160490   1.335   2.225  13.903 -0.1190  0.3810  0.6211
13025TIP3    H260491   1.217   2.246  13.811 -0.9000 -0.5047  1.3980
13026TIP3   OH260492   4.401   5.513  14.641 -0.1500  0.2402  0.3162
13026TIP3    H160493   4.466   5.452  14.676 -0.4076  0.1937  0.7120
13026TIP3    H260494   4.319   5.465  14.642  0.0123 -0.1252 -1.3342
13027TIP3   OH260495   2.465   4.648  13.158  0.2669 -0.0408  0.1263
13027TIP3    H160496   2.465   4.669  13.064  2.2697 -0.0375  0.0979
13027TIP3    H260497   2.552   4.672  13.188  0.3665 -1.9462  1.5589
13028TIP3   OH260498   2.907   5.182  10.930 -0.2275 -0.1176 -0.0506
13028TIP3    H160499   2.920   5.245  10.859 -1.3491 -0.9312 -1.0060
13028TIP3    H260500   2.992   5.180  10.975  0.3906  0.7028 -1.1146
13029TIP3   OH260501   4.034   0.374  16.588  0.3299 -0.4914  0.3946
13029TIP3    H160502   4.037   0.333  16.675  0.8826 -1.0772  0.1050
13029TIP3    H260503   4.019   0.301  16.528 -0.0373 -0.0871 -0.0110
13030TIP3   OH260504   0.860   1.513   1.301 -0.5150 -0.0112  0.3958
13030TIP3    H160505   0.938   1.562   1.276 -1.0181  0.7937  0.3644
13030TIP3    H260506   0.876   1.424   1.269  0.4230  0.1210  0.4712
13031TIP3   OH260507   6.521   5.443   0.838  0.2353  0.0603  0.4896
13031TIP3    H160508   6.610   5.472   0.854 -0.0819  0.3919  1.7661
13031TIP3    H260509   6.467   5.499   0.893 -0.7240 -0.4210  0.0647
13032TIP3   OH260510   3.451   1.266   4.657 -0.0155 -0.0450 -0.2112
13032TIP3    H160511   3.436   1.236   4.747 -0.9867 -0.6484 -0.5526
13032TIP3    H260512   3.493   1.191   4.614 -1.8614 -0.7578 -0.8975
13033TIP3   OH260513   2.517   4.204  13.988 -0.1259  0.5058 -0.2881
13033TIP3    H160514   2.523   4.294  13.955 -0.6071  0.6105 -0.0947
13033TIP3    H260515   2.572   4.203  14.066  0.3710  0.4689 -0.6361
13034TIP3   OH260516   2.580   4.756  17.095 -0.0194  0.3495  0.1650
13034TIP3    H160517   2.651   4.775  17.156 -0.1493  1.1695  0.0768
13034TIP3    H260518   2.521   4.831  17.102  1.0692  1.6282 -2.5545
13035TIP3   OH260519   6.192   0.267  14.265 -0.5523 -0.3665 -0.8892
13035TIP3    H160520   6.271   0.242  14.217 -0.0683 -1.5870  0.4445
13035TIP3    H260521   6.223   0.280  14.355 -1.5223  1.2330 -0.7485
13036TIP3   OH260522   5.290   0.237  15.019 -0.2370  0.8095  0.0649
13036TIP3    H160523   5.259   0.164  14.965 -0.4498  0.7534  0.2616
13036TIP3    H260524   5.335   0.195  15.092  1.3582  0.8989 -0.8234
13037TIP3   OH260525   1.258   6.020   4.530 -0.3483 -0.6514  0.4629
13037TIP3    H160526   1.216   5.969   4.461 -1.4777  1.2400 -0.3182
13037TIP3    H260527   1.341   6.048   4.493 -1.0569  0.5593 -0.2615
13038TIP3   OH260528   3.228   0.782  11.641 -0.7821 -0.3362 -0.3038
13038TIP3    H160529   3.241   0.697  11.683  1.6995 -0.3962 -1.0308
13038TIP3    H260530   3.153   0.820  11.686  0.0445 -1.5558  2.3011
13039TIP3   OH260531   0.990   5.302  15.552 -0.6936 -0.0647 -0.1350
13039TIP3    H160532   1.064   5.309  15.493  0.0124  0.4126  0.7751
13039TIP3    H260533   0.914   5.293  15.495 -0.0391  0.3882 -1.1016
13040TIP3   OH260534   4.585   1.168  11.467 -0.3700 -0.0224 -0.1029
13040TIP3    H160535   4.581   1.221  11.547  1.5066  1.3197 -0.8132
13040TIP3    H260536   4.498   1.175  11.430 -0.9232  0.3607  1.1980
13041TIP3   OH260537   5.347   6.212   5.023 -0.4702  0.3592 -0.3538
13041TIP3    H160538   5.392   6.267   5.087  0.1855 -0.5480 -0.0046
13041TIP3    H260539   5.255   6.213   5.051 -0.2373  0.1975  0.4379
13042TIP3   OH260540   5.328   6.130  13.862  0.5412  0.3081 -0.5405
13042TIP3    H160541   5.339   6.087  13.947  0.3537 -0.1484 -0.7459
13042TIP3    H260542   5.290   6.063  13.806  0.1782  0.7637 -0.8487
13043TIP3   OH260543   0.332   5.374   5.259  0.4313  0.7524  0.4257
13043TIP3    H160544   0.426   5.356   5.250  0.4207  1.1499 -0.5300
13043TIP3    H260545   0.301   5.307   5.321  0.9703 -0.6276 -0.7398
13044TIP3   OH260546   5.662   3.508  13.887  0.0344  0.0811  0.0559
13044TIP3    H160547   5.607   3.436  13.854 -0.3706  0.3794  0.0685
13044TIP3    H260548   5.615   3.541  13.964  0.9251 -0.5492  0.9025
13045TIP3   OH260549   5.386   0.378   2.200 -0.4723 -0.2695  0.3143
13045TIP3    H160550   5.479   0.358   2.202 -0.2131  0.4358 -1.7920
13045TIP3    H260551   5.342   0.296   2.223  0.6466 -0.9949 -0.0743
13046TIP3   OH260552   6.501   2.649  11.327  0.0316 -0.1428  0.1235
13046TIP3    H160553   6.453   2.581  11.279  0.6182 -0.6108  0.1761
13046TIP3    H260554   6.593   2.630  11.308  0.2041  0.5721  0.2378
13047TIP3   OH260555   2.794   0.532   1.949 -0.0298  0.3092 -0.1054
13047TIP3    H160556   2.802   0.440   1.975  2.8345  0.6059  0.3140
13047TIP3    H260557   2.875   0.551   1.903 -1.0459  2.3759 -1.1638
13048TIP3   OH260558   0.627   5.318  12.283 -0.0617  0.4842 -0.1338
13048TIP3    H160559   0.721   5.309  12.275 -0.0116  1.7121 -1.1991
13048TIP3    H260560   0.591   5.269  12.209 -0.2311  0.5909 -0.1238
13049TIP3   OH260561   2.762   0.275  11.580 -1.3156 -0.1802  0.1488
13049TIP3    H160562   2.780   0.244  11.669  0.2298  0.9552  0.2706
13049TIP3    H260563   2.714   0.202  11.539  0.8576 -2.1653  0.8769
13050TIP3   OH260564   2.732   1.182  13.205  0.0388  0.3264 -0.6904
13050TIP3    H160565   2.685   1.180  13.288  2.0268  0.4504  0.5132
13050TIP3    H260566   2.796   1.253  13.216  0.6478  0.0403 -2.1562
13051TIP3   OH260567   0.993   3.274  16.708 -0.2039 -0.1767 -0.2213
13051TIP3    H160568   0.951   3.201  16.661 -2.0718  0.6178  0.1343
13051TIP3    H260569   0.936   3.290  16.783 -0.5819  2.5087 -1.0062
13052TIP3   OH260570   4.397   2.418  14.543 -0.5464 -0.7605  0.1683
13052TIP3    H160571   4.470   2.357  14.552  0.1505  0.0640  0.2349
13052TIP3    H260572   4.378   2.418  14.449  1.2348  0.8833 -0.2765
13053TIP3   OH260573   1.444   3.568   3.938 -0.3983 -0.3080  0.3728
13053TIP3    H160574   1.411   3.521   3.862 -0.7759 -0.6900  0.7644
13053TIP3    H260575   1.367   3.612   3.975 -0.6008 -1.5788  1.5635
13054TIP3   OH260576   6.001   1.957  15.215  0.1037 -0.3224  0.2094
13054TIP3    H160577   5.927   1.938  15.272 -0.1707  1.1329  0.3804
13054TIP3    H260578   6.075   1.971  15.275 -0.1529  1.0657  0.2461
13055TIP3   OH260579   1.771   5.783   2.716 -0.3440  0.4516 -0.6449
13055TIP3    H160580   1.838   5.767   2.649 -0.0595  1.4708 -0.6238
13055TIP3    H260581   1.691   5.798   2.666  0.0729  2.2132 -0.8317
13056TIP3   OH260582   3.167   3.870  17.187  0.1715 -0.4302 -0.2330
13056TIP3    H160583   3.078   3.895  17.212 -0.1333  0.3570 -1.9555
13056TIP3    H260584   3.185   3.919  17.107  2.7442  0.5644  0.8446
13057TIP3   OH260585   1.126   6.465   5.108  0.2102 -0.7456  0.4266
13057TIP3    H160586   1.163   6.517   5.037  0.4052 -2.4080 -0.7508
13057TIP3    H260587   1.036   6.447   5.081  0.2497 -1.2942  0.6401
13058TIP3   OH260588   0.517   3.863   2.735 -0.2340  0.0610  0.0393
13058TIP3    H160589   0.424   3.853   2.758  0.0349 -1.3861  0.6124
13058TIP3    H260590   0.517   3.879   2.641 -1.1137  1.1984  0.2092
13059TIP3   OH260591   1.059   1.220  12.333  0.5630 -0.1739 -0.0070
13059TIP3    H160592   0.982   1.251  12.379 -0.8098  0.2241 -2.3976
13059TIP3    H260593   1.093   1.150  12.389 -1.7308 -0.6130  0.9790
13060TIP3   OH260594   4.899   4.541  12.472  0.2531  0.7057  0.2573
13060TIP3    H160595   4.890   4.479  12.545 -0.4878 -0.4971 -0.8213
13060TIP3    H260596   4.994   4.547  12.457  0.3615  0.2544  0.7276
13061TIP3   OH260597   2.478   0.156  12.185  0.5102 -0.1401 -0.3595
13061TIP3    H160598   2.505   0.235  12.138 -0.3670 -0.3863 -1.3312
13061TIP3    H260599   2.464   0.185  12.275 -0.1230  0.9050 -0.7696
13062TIP3   OH260600   3.547   3.768   1.293 -0.1498 -0.2703 -0.0638
13062TIP3    H160601   3.630   3.722   1.304  0.8529  1.1439 -1.3199
13062TIP3    H260602   3.507   3.767   1.380  0.5454 -2.1250  0.2694
13063TIP3   OH260603   1.264   2.823   0.768 -0.5329  0.2114 -0.3957
13063TIP3    H160604   1.230   2.758   0.829  1.3940 -1.4463 -0.9709
13063TIP3    H260605   1.199   2.894   0.769 -0.8697 -0.0110  3.0437
13064TIP3   OH260606   5.346   3.647   6.098 -0.2703 -0.3177 -0.3158
13064TIP3    H160607   5.350   3.655   6.193 -1.3351  0.7477 -0.3429
13064TIP3    H260608   5.297   3.724   6.069  0.8978 -0.0979 -1.8165
13065TIP3   OH260609   6.349   1.028   1.797  0.0920  0.0500 -0.7183
13065TIP3    H160610   6.390   0.951   1.835 -0.8209 -0.1380 -0.0817
13065TIP3    H260611   6.263   1.033   1.839  1.0531  2.8240  1.1333
13066TIP3   OH260612   3.656   2.490   1.639  0.2332 -0.2565  0.5944
13066TIP3    H160613   3.678   2.464   1.729 -0.8781 -0.3439  0.8620
13066TIP3    H260614   3.668   2.410   1.588  1.2393 -0.1107  0.5842
13067TIP3   OH260615   4.445   2.601  15.284  0.1736  0.0240 -0.5507
13067TIP3    H160616   4.473   2.560  15.202  1.7658  0.5012 -0.2726
13067TIP3    H260617   4.429   2.527  15.344 -0.5869 -0.3073 -1.1423
13068TIP3   OH260618   6.547   0.725  15.833 -0.0687  0.0171  0.8793
13068TIP3    H160619   6.642   0.728  15.819 -0.4003 -0.9320 -2.4166
13068TIP3    H260620   6.524   0.633  15.822 -1.6277  0.5824 -1.5309
13069TIP3   OH260621   4.302   1.805  15.814  0.3804 -0.0748 -0.2478
13069TIP3    H160622   4.313   1.900  15.823 -1.4804  0.0177  1.9878
13069TIP3    H260623   4.388   1.768  15.836  0.6000  1.0372  0.8461
13070TIP3   OH260624   6.297   6.475  13.157  0.2005  0.1793 -0.5732
13070TIP3    H160625   6.207   6.470  13.189 -0.1575 -0.3954 -1.6140
13070TIP3    H260626   6.309   6.567  13.135  0.0077  0.3315 -0.0701
13071TIP3   OH260627   2.209   1.995   1.006  0.1119  0.8237  0.6695
13071TIP3    H160628   2.207   2.036   0.919 -0.7305  1.4757  0.9769
13071TIP3    H260629   2.119   1.964   1.019 -0.3118  2.4755  2.0915
13072TIP3   OH260630   4.347   3.740   2.346  0.6030 -0.5808  0.5693
13072TIP3    H160631   4.364   3.723   2.439  0.7206 -1.2243  0.4362
13072TIP3    H260632   4.329   3.653   2.309 -0.2236 -0.2408  0.1467
13073TIP3   OH260633   0.291   6.359  15.594 -0.8169 -0.6133  0.7171
13073TIP3    H160634   0.308   6.363  15.688  1.9741 -2.1617  0.3700
13073TIP3    H260635   0.235   6.282  15.583 -0.5218 -0.8807  1.0595
13074TIP3   OH260636   3.148   3.922  15.024  0.4234  0.4688  0.2904
13074TIP3    H160637   3.189   3.861  14.962 -1.2150  1.3612 -1.8106
13074TIP3    H260638   3.221   3.971  15.062  1.4359  1.2548 -2.4638
13075TIP3   OH260639   5.590   2.378  16.437  0.0947  0.2359  0.4157
13075TIP3    H160640   5.510   2.417  16.474 -0.3466  2.4620 -2.5000
13075TIP3    H260641   5.646   2.453  16.417  2.3759 -1.2005  1.0633
13076TIP3   OH260642   4.720   4.663  13.712  0.0641  0.1951 -0.1636
13076TIP3    H160643   4.695   4.591  13.653 -0.3616 -0.5964  0.9550
13076TIP3    H260644   4.807   4.639  13.743 -0.0069  0.2567  0.0793
13077TIP3   OH260645   0.440   6.585   3.782  0.5097 -0.2715  0.3322
13077TIP3    H160646   0.395   6.653   3.833 -0.5869 -1.7771  1.4433
13077TIP3    H260647   0.370   6.538   3.737  1.1540 -1.2392  0.3069
13078TIP3   OH260648   5.800   1.344   3.482 -0.9822 -0.4105  0.5497
13078TIP3    H160649   5.766   1.433   3.496  0.0428 -0.1938  1.9716
13078TIP3    H260650   5.831   1.317   3.569 -0.7411 -1.9341  0.0149
13079TIP3   OH260651   3.412   0.983   0.273  0.2034  0.8162 -0.1142
13079TIP3    H160652   3.455   1.065   0.299  0.6220 -0.0301  2.0383
13079TIP3    H260653   3.338   0.975   0.332  0.3415 -0.5045 -0.0999
13080TIP3   OH260654   6.026   1.491  14.098  0.5456  0.1405  0.3624
13080TIP3    H160655   6.028   1.395  14.095 -2.0213  0.0065  0.9370
13080TIP3    H260656   5.955   1.512  14.158 -0.2596  2.3970 -1.2261
13081TIP3   OH260657   2.438   3.239  14.273  0.2669 -0.3054 -0.2307
13081TIP3    H160658   2.492   3.309  14.309  1.0468 -0.7902 -0.4526
13081TIP3    H260659   2.390   3.282  14.201  1.2635 -0.1568 -0.8219
13082TIP3   OH260660   1.174   4.903  13.929 -0.3813 -0.2601 -0.0845
13082TIP3    H160661   1.088   4.939  13.906 -1.1281 -1.4780  0.7135
13082TIP3    H260662   1.170   4.890  14.024 -0.0820 -2.2394 -0.3054
13083TIP3   OH260663   0.112   3.185  16.467 -0.2724 -0.6079 -0.4260
13083TIP3    H160664   0.112   3.167  16.373  0.5246 -1.8474 -0.2136
13083TIP3    H260665   0.199   3.159  16.496 -0.5549 -0.3466  0.6789
13084TIP3   OH260666   2.132   5.579  11.981 -0.2138 -0.0811 -0.1157
13084TIP3    H160667   2.165   5.555  12.068 -1.5872  2.9339  1.4193
13084TIP3    H260668   2.206   5.565  11.922  1.5940  0.0815  1.9846
13085TIP3   OH260669   4.304   3.198  11.514  0.0128  0.6002 -0.0067
13085TIP3    H160670   4.392   3.163  11.524 -0.2708 -0.0713  0.1574
13085TIP3    H260671   4.317   3.290  11.490  0.7461  0.7074  0.7791
13086TIP3   OH260672   0.878   2.619  15.237  0.2613 -0.2699  0.0640
13086TIP3    H160673   0.783   2.617  15.227  0.1535 -1.6513  1.0986
13086TIP3    H260674   0.909   2.546  15.185  0.9601  1.2146 -1.7209
13087TIP3   OH260675   6.636   0.787   0.656  0.4033  0.6078  0.1351
13087TIP3    H160676   6.575   0.803   0.728 -1.7337 -0.9024 -1.1971
13087TIP3    H260677   6.710   0.741   0.696  0.0357  1.2623  1.5964
13088TIP3   OH260678   1.805   4.366   4.419 -0.5532  0.6980 -0.3969
13088TIP3    H160679   1.769   4.339   4.504 -0.5420 -0.1189 -0.6396
13088TIP3    H260680   1.897   4.386   4.437 -0.4492  0.1406 -0.2826
13089TIP3   OH260681   5.634   2.328  11.819 -0.2557  0.1152  0.1320
13089TIP3    H160682   5.721   2.349  11.852  1.1152  0.3745 -3.3005
13089TIP3    H260683   5.645   2.321  11.724 -4.1840  1.2113 -0.5742
13090TIP3   OH260684   1.883   0.222  17.181 -0.7319 -0.4137 -0.2278
13090TIP3    H160685   1.810   0.170  17.150  0.4535 -1.9942 -0.4786
13090TIP3    H260686   1.942   0.160  17.223  0.3375  0.8559  0.2404
13091TIP3   OH260687   0.461   2.981   1.310  0.0224 -0.1545  0.7682
13091TIP3    H160688   0.426   3.007   1.395 -0.2653 -3.3389  1.7447
13091TIP3    H260689   0.491   2.891   1.323  1.9136 -0.0386 -1.9764
13092TIP3   OH260690   2.626   2.668  12.480 -0.2083  0.0305 -0.6736
13092TIP3    H160691   2.622   2.717  12.562 -2.0674  0.3401 -0.9092
13092TIP3    H260692   2.557   2.602  12.487  1.5877 -1.9852 -0.7802
13093TIP3   OH260693   6.055   5.722  14.952  0.2429 -0.4361 -0.3373
13093TIP3    H160694   6.064   5.794  14.890  1.8385 -0.4091 -0.1178
13093TIP3    H260695   5.991   5.664  14.912  0.1222  0.3269 -1.2819
13094TIP3   OH260696   6.163   5.700  11.123 -0.4355 -0.7118  0.0028
13094TIP3    H160697   6.085   5.665  11.081  0.4521 -0.8787 -1.5859
13094TIP3    H260698   6.212   5.623  11.151 -1.9869 -0.6317  3.4140
13095TIP3   OH260699   3.851   2.081   4.521  0.4757 -0.3806 -0.2787
13095TIP3    H160700   3.858   2.060   4.614  0.7224  0.0470 -0.1959
13095TIP3    H260701   3.758   2.070   4.500 -0.1601  2.2540  0.7124
13096TIP3   OH260702   0.810   5.463   0.402  0.0979  1.1239 -0.2209
13096TIP3    H160703   0.880   5.460   0.467 -1.9972 -0.5017  2.1346
13096TIP3    H260704   0.772   5.550   0.412 -0.5667  0.6962  1.2044
13097TIP3   OH260705   1.612   2.851   3.108 -0.4731  0.5312  0.5507
13097TIP3    H160706   1.564   2.789   3.054 -1.2388  1.4867  0.1248
13097TIP3    H260707   1.703   2.840   3.082 -0.5454 -0.6257  0.7067
13098TIP3   OH260708   5.164   0.720  13.619  0.1060  0.5421 -0.1217
13098TIP3    H160709   5.110   0.788  13.578 -0.3022 -1.2697 -2.8312
13098TIP3    H260710   5.101   0.654  13.649  0.6185 -0.0463 -0.3189
13099TIP3   OH260711   1.693   0.807  12.341  0.6602 -0.1944  0.0657
13099TIP3    H160712   1.695   0.719  12.303  1.4644 -0.0701 -0.1802
13099TIP3    H260713   1.758   0.804  12.411  1.4520  0.5089 -0.6192
13100TIP3   OH260714   3.292   1.114  12.907 -0.2622  0.4604 -0.1596
13100TIP3    H160715   3.371   1.163  12.886  1.5933 -2.7157 -1.4389
13100TIP3    H260716   3.319   1.053  12.975 -1.3976 -1.0730 -1.0151
13101TIP3   OH260717   5.135   2.296  11.754 -0.6336  0.1981  0.4018
13101TIP3    H160718   5.138   2.331  11.665  0.7756  1.0447  0.7570
13101TIP3    H260719   5.158   2.204  11.744  1.8560  0.7777  0.0750
13102TIP3   OH260720   0.873   5.783  16.424  0.2213  0.4393 -0.3993
13102TIP3    H160721   0.900   5.694  16.403 -0.4441  0.2741 -0.5710
13102TIP3    H260722   0.838   5.776  16.514 -0.2996  0.4206 -0.5987
13103TIP3   OH260723   5.431   6.036  10.401  0.4350 -0.4052  0.0006
13103TIP3    H160724   5.396   6.092  10.331 -0.3307 -0.2725  0.4706
13103TIP3    H260725   5.355   6.018  10.456  1.1048 -0.1476  1.0360
13104TIP3   OH260726   2.442   2.173  16.643 -0.0060  0.1180  0.5947
13104TIP3    H160727   2.390   2.253  16.653 -0.8914 -0.2222 -0.9847
13104TIP3    H260728   2.379   2.106  16.618  1.2659  0.1101 -3.3917
13105TIP3   OH260729   2.840   1.072  11.032  0.3760  0.0359 -0.2521
13105TIP3    H160730   2.748   1.083  11.010  0.3144 -0.9422 -0.5194
13105TIP3    H260731   2.840   1.042  11.123  0.4012 -0.4917 -0.4242
13106TIP3   OH260732   6.786   0.788  15.711  0.3010 -0.1120 -0.2421
13106TIP3    H160733   6.847   0.860  15.728 -0.8825  0.7716  0.3782
13106TIP3    H260734   6.766   0.795  15.618  0.4075  0.1893 -0.2434
13107TIP3   OH260735   3.271   1.810  13.756  0.4717  0.1081 -0.7459
13107TIP3    H160736   3.346   1.765  13.795  0.6415  0.2916 -0.8571
13107TIP3    H260737   3.196   1.782  13.808  0.5696 -0.3388 -0.8436
13108TIP3   OH260738   4.160   1.333   0.927  0.3381  0.1738 -0.2263
13108TIP3    H160739   4.170   1.239   0.917  1.8994  0.3140 -0.2530
13108TIP3    H260740   4.111   1.344   1.008  3.5451 -0.6264  1.9999
13109TIP3   OH260741   0.450   1.644  16.785  0.1598 -0.0936 -0.2058
13109TIP3    H160742   0.544   1.628  16.796  0.1747  0.9409  1.5101
13109TIP3    H260743   0.412   1.622  16.871 -0.7604  2.0996 -0.0016
13110TIP3   OH260744   6.764   1.214   5.352 -0.2820 -0.2132 -0.0562
13110TIP3    H160745   6.821   1.281   5.315  1.2889 -1.7354 -0.5461
13110TIP3    H260746   6.679   1.227   5.309  0.7217 -0.1625 -2.1194
13111TIP3   OH260747   3.927   2.049   0.729  0.2413 -0.0583  0.2719
13111TIP3    H160748   3.976   1.975   0.693  1.3481  1.2424 -1.0503
13111TIP3    H260749   3.926   2.113   0.658 -1.2092  0.9608  1.1730
13112TIP3   OH260750   0.704   4.191   3.975 -0.5171  0.0040 -0.7186
13112TIP3    H160751   0.718   4.104   4.013 -0.6287 -1.1340 -3.1498
13112TIP3    H260752   0.608   4.200   3.970 -0.4998 -0.3391 -1.7630
13113TIP3   OH260753   3.443   0.720   4.349 -0.2135  0.2196 -0.4290
13113TIP3    H160754   3.416   0.676   4.430 -3.1716 -1.3801 -2.0958
13113TIP3    H260755   3.480   0.649   4.296 -0.8494  0.6551 -1.4703
13114TIP3   OH260756   6.677   1.078  10.846 -0.1155 -0.3915  0.2899
13114TIP3    H160757   6.680   1.164  10.804 -1.2885 -0.5003 -0.0697
13114TIP3    H260758   6.674   1.017  10.772  0.1554 -0.7088  0.5442
13115TIP3   OH260759   3.459   5.316   3.213  0.3752  0.1857 -0.1993
13115TIP3    H160760   3.446   5.274   3.128 -1.2355  0.6028 -0.1846
13115TIP3    H260761   3.537   5.273   3.249  0.8405 -0.2867 -1.6915
13116TIP3   OH260762   0.085   3.606  15.600  0.0626 -0.0680  0.4762
13116TIP3    H160763   0.156   3.670  15.602 -1.9965  2.3946  0.1409
13116TIP3    H260764   0.103   3.547  15.673  2.5351  0.2856  0.2389
13117TIP3   OH260765   1.891   3.992  16.934 -0.1770 -0.0051  0.2282
13117TIP3    H160766   1.946   4.051  16.882 -1.8987  0.9514 -0.5679
13117TIP3    H260767   1.951   3.922  16.960  1.7620  1.6675  0.5841
13118TIP3   OH260768   5.863   4.204   6.126  0.0451 -0.5783  0.0310
13118TIP3    H160769   5.948   4.160   6.127  0.1502 -0.3990 -0.6137
13118TIP3    H260770   5.884   4.295   6.108 -0.2034 -0.3208  0.9897
13119TIP3   OH260771   1.656   0.819  11.684  0.4653 -0.0208 -0.2096
13119TIP3    H160772   1.684   0.728  11.676  1.6620  0.2610  0.4722
13119TIP3    H260773   1.690   0.861  11.605  1.4295  0.1797  0.2971
13120TIP3   OH260774   6.193   1.447  12.614  0.1177  0.6809 -0.1719
13120TIP3    H160775   6.225   1.496  12.539 -0.7152  2.0419  0.3370
13120TIP3    H260776   6.271   1.433  12.668  0.6452  0.0377 -1.0739
13121TIP3   OH260777   3.748   3.768   2.195  0.0390 -0.1309 -0.6492
13121TIP3    H160778   3.830   3.818   2.202  0.3459 -0.6750 -0.2985
13121TIP3    H260779   3.704   3.804   2.118  0.2859  0.6347 -0.4451
13122TIP3   OH260780   2.363   4.486  13.996 -0.2940 -0.1961 -0.0040
13122TIP3    H160781   2.362   4.482  14.091 -1.1977  1.9791  0.1443
13122TIP3    H260782   2.442   4.536  13.974 -0.4191 -0.1478 -0.3589
13123TIP3   OH260783   2.324   4.050   0.725  0.3409  0.0790  0.4406
13123TIP3    H160784   2.329   4.146   0.729  0.1947  0.1285 -0.3731
13123TIP3    H260785   2.358   4.028   0.639 -0.3857 -0.5475  0.2999
13124TIP3   OH260786   6.627   5.006  11.294 -0.4189 -0.5098 -0.4936
13124TIP3    H160787   6.649   4.944  11.364  0.9954  1.3382  0.8210
13124TIP3    H260788   6.578   4.954  11.230 -0.4059 -2.6546  1.1124
13125TIP3   OH260789   3.344   4.746   1.828  0.1413  0.0242  0.3798
13125TIP3    H160790   3.279   4.815   1.835  1.0831  0.8397  1.4452
13125TIP3    H260791   3.310   4.675   1.883 -0.4580 -0.0873 -0.1154
13126TIP3   OH260792   3.938   3.944   4.089  0.8260  0.1890 -0.2926
13126TIP3    H160793   4.025   3.937   4.129  0.0097  1.6221  1.9225
13126TIP3    H260794   3.943   4.022   4.034  0.4125  1.5194  1.4754
13127TIP3   OH260795   5.802   0.402   3.673  0.2408  0.1781 -0.5358
13127TIP3    H160796   5.756   0.333   3.625  0.0814  1.5621 -2.4495
13127TIP3    H260797   5.756   0.405   3.757 -0.4400 -1.2973 -0.8047
13128TIP3   OH260798   6.522   3.466  13.857 -0.2163 -0.5757 -0.0105
13128TIP3    H160799   6.534   3.380  13.816  3.2757 -0.8191  1.1938
13128TIP3    H260800   6.532   3.528  13.785 -0.8160 -1.1028 -0.5677
13129TIP3   OH260801   5.335   4.144   6.636  0.4424  0.2862  0.1216
13129TIP3    H160802   5.375   4.067   6.595  0.2670  0.9087 -1.2635
13129TIP3    H260803   5.379   4.151   6.721  0.0964 -1.6350  0.5169
13130TIP3   OH260804   4.544   3.100  11.593  0.1298  0.5446 -0.0133
13130TIP3    H160805   4.607   3.112  11.664 -0.4085 -1.0239  0.7819
13130TIP3    H260806   4.589   3.043  11.530 -0.1389  0.2086  0.0940
13131TIP3   OH260807   2.006   0.684  11.903 -0.0511 -0.1376  0.3042
13131TIP3    H160808   1.939   0.646  11.958 -0.9900  0.2414 -0.5460
13131TIP3    H260809   1.984   0.777  11.899  0.8676  0.0988  0.4863
13132TIP3   OH260810   3.023   3.034  14.849 -0.3837  0.1969  0.5226
13132TIP3    H160811   3.044   3.057  14.940 -0.8229 -0.6055  0.8366
13132TIP3    H260812   3.107   3.016  14.808 -0.1818  0.5595  0.7719
13133TIP3   OH260813   2.153   3.124   1.123  0.2575 -0.3019  0.0920
13133TIP3    H160814   2.197   3.145   1.040 -1.3800 -0.4480 -0.8509
13133TIP3    H260815   2.075   3.179   1.122  0.7232  0.4623  2.0490
13134TIP3   OH260816   4.367   4.153   3.147  0.6113 -0.2535  0.1662
13134TIP3    H160817   4.367   4.184   3.237  2.3553  1.1779 -0.2732
13134TIP3    H260818   4.378   4.232   3.094  1.0799 -1.2047 -1.2181
13135TIP3   OH260819   5.011   4.576  16.216 -0.1291  0.3283  0.0390
13135TIP3    H160820   4.947   4.610  16.278 -0.5113  0.4794 -0.4358
13135TIP3    H260821   4.966   4.578  16.131  1.0738  2.0036 -0.5901
13136TIP3   OH260822   0.992   2.710   1.208 -0.0851  0.5040  0.0591
13136TIP3    H160823   1.043   2.674   1.281  1.7622  1.5831 -0.6154
13136TIP3    H260824   0.987   2.804   1.228  0.2536  0.7735 -1.0738
13137TIP3   OH260825   4.633   6.026  13.589 -0.3893 -0.1741 -0.2118
13137TIP3    H160826   4.659   5.968  13.517 -1.1076 -1.4687  0.5255
13137TIP3    H260827   4.617   6.111  13.548  1.1800 -0.3505 -1.2580
13138TIP3   OH260828   6.796   5.199  14.154  0.3085  1.1218 -0.3375
13138TIP3    H160829   6.853   5.276  14.151  0.5306  1.2349  3.1524
13138TIP3    H260830   6.719   5.227  14.202 -1.3910  0.0885 -2.2822
13139TIP3   OH260831   1.317   0.952  16.469  0.4277  0.6112 -0.1319
13139TIP3    H160832   1.398   0.910  16.499  0.2795 -0.5720 -1.3003
13139TIP3    H260833   1.247   0.897  16.504  0.2261 -0.0670 -1.5391
13140TIP3   OH260834   6.708   2.571   6.059  0.1916  0.5761 -0.3270
13140TIP3    H160835   6.664   2.571   5.974  0.1136  0.0041 -0.2873
13140TIP3    H260836   6.651   2.521   6.116  1.5299 -1.4307 -0.6217
13141TIP3   OH260837   0.882   3.552   2.150  0.3201 -0.2184  0.4677
13141TIP3    H160838   0.823   3.588   2.216  0.0448 -1.2553  0.8205
13141TIP3    H260839   0.937   3.491   2.199  0.7990 -0.2397 -0.0918
13142TIP3   OH260840   3.579   6.603   0.647 -0.1504  0.8450  0.6572
13142TIP3    H160841   3.571   6.670   0.580  0.3078  0.4840  0.2335
13142TIP3    H260842   3.491   6.593   0.683 -0.5791  0.4414 -0.4828
13143TIP3   OH260843   2.334   5.258   2.614 -0.5718 -0.3479 -0.4883
13143TIP3    H160844   2.328   5.224   2.704 -0.0491 -2.1460 -1.0902
13143TIP3    H260845   2.279   5.199   2.563 -0.8223  0.6316 -1.3794
13144TIP3   OH260846   5.129   4.711   0.395  0.0004  0.0644 -0.0668
13144TIP3    H160847   5.095   4.690   0.482 -0.3210 -0.1053 -0.2333
13144TIP3    H260848   5.075   4.784   0.364  0.3938  0.4112  0.0509
13145TIP3   OH260849   5.120   5.370  11.136  0.0546 -0.0104 -0.2426
13145TIP3    H160850   5.129   5.306  11.065 -0.0651  0.7681 -0.9723
13145TIP3    H260851   5.059   5.328  11.197  1.2947 -1.3167  0.1482
13146TIP3   OH260852   1.534   4.981   1.006  0.0445  0.2347  0.0917
13146TIP3    H160853   1.462   4.933   0.966 -1.6055  0.9381  2.0392
13146TIP3    H260854   1.612   4.949   0.962 -1.3676 -1.1817 -1.5123
13147TIP3   OH260855   1.322   3.880  12.619  0.0032 -0.8911 -0.0041
13147TIP3    H160856   1.277   3.805  12.658  1.8058 -1.9757  0.1058
13147TIP3    H260857   1.316   3.864  12.524  1.1818 -1.7060  0.0379
13148TIP3   OH260858   5.277   6.572   5.130  0.3231  0.1846 -0.3268
13148TIP3    H160859   5.220   6.518   5.186  1.3227  0.0882  0.6267
13148TIP3    H260860   5.216   6.619   5.074 -0.7730  0.7629  1.2555
13149TIP3   OH260861   1.473   0.324  16.638 -0.6240  0.2324 -0.0277
13149TIP3    H160862   1.568   0.314  16.645 -0.7024 -0.4240  0.1085
13149TIP3    H260863   1.447   0.263  16.569 -0.9086  0.6548 -0.3034
13150TIP3   OH260864   0.490   0.377  17.106  0.0743 -0.4630  0.0069
13150TIP3    H160865   0.521   0.375  17.015 -0.1238 -1.1087 -0.0501
13150TIP3    H260866   0.527   0.458  17.142 -0.7121  0.3473 -0.9433
13151TIP3   OH260867   6.045   3.448  12.628  0.2652 -0.2348 -0.2595
13151TIP3    H160868   5.996   3.528  12.646  0.7966 -0.2066  1.1935
13151TIP3    H260869   6.083   3.462  12.541 -2.9871 -0.6529 -1.9060
13152TIP3   OH260870   1.640   0.136   0.542  0.0467  0.1042 -0.0424
13152TIP3    H160871   1.704   0.155   0.474  1.4523  1.5666  1.6016
13152TIP3    H260872   1.685   0.074   0.600  0.1241  1.3659  1.2840
13153TIP3   OH260873   2.945   4.033  12.163  0.4301 -0.0815  0.5474
13153TIP3    H160874   3.034   4.031  12.200  1.5099  1.4118 -1.7083
13153TIP3    H260875   2.958   4.008  12.071 -1.5224  0.0456  0.2088
13154TIP3   OH260876   2.486   3.004   1.010 -0.8048 -0.9131  0.0939
13154TIP3    H160877   2.533   2.940   0.956 -1.1280  0.3622 -1.7727
13154TIP3    H260878   2.396   2.970   1.013 -0.7065 -1.1744  0.1289
13155TIP3   OH260879   1.842   5.438  14.071 -0.2260 -0.0021  0.5315
13155TIP3    H160880   1.782   5.458  14.143 -0.2679 -1.4217  0.9250
13155TIP3    H260881   1.927   5.470  14.101 -0.3950  0.1336  0.8695
13156TIP3   OH260882   0.464   6.291  16.544 -0.2618  0.5167  0.1710
13156TIP3    H160883   0.371   6.301  16.567 -0.5320 -1.4575  0.0976
13156TIP3    H260884   0.472   6.335  16.459 -1.3077  0.0978 -0.1639
13157TIP3   OH260885   4.141   1.596   5.437 -0.1449  0.0926 -0.0254
13157TIP3    H160886   4.141   1.508   5.401 -1.3333  0.6297 -1.4164
13157TIP3    H260887   4.180   1.650   5.369  0.7516  0.6390  0.8914
13158TIP3   OH260888   1.849   5.811   0.662 -0.6702  0.3598 -0.1987
13158TIP3    H160889   1.912   5.883   0.664 -0.8671  0.5560 -0.6936
13158TIP3    H260890   1.900   5.735   0.633 -0.5848  0.4363 -0.2498
13159TIP3   OH260891   5.026   4.163   4.786  0.4337 -0.2521 -0.0523
13159TIP3    H160892   4.939   4.196   4.763  0.4849  1.4373  1.8372
13159TIP3    H260893   5.083   4.196   4.717 -0.2209 -0.2902 -0.6266
13160TIP3   OH260894   5.837   2.073   1.715  0.0011 -1.0589  0.3803
13160TIP3    H160895   5.784   2.097   1.792  0.1945 -0.3977  0.3141
13160TIP3    H260896   5.783   2.010   1.668 -0.8905 -0.1384  0.1358
13161TIP3   OH260897   6.143   2.031   0.008 -0.4178  0.0674  0.1179
13161TIP3    H160898   6.185   2.063   0.087  0.5177  1.0914 -0.7634
13161TIP3    H260899   6.214   1.992  -0.043 -0.4877  1.7211 -1.3440
13162TIP3   OH260900   4.944   5.117   3.384 -0.3128  0.0504 -0.6477
13162TIP3    H160901   4.996   5.038   3.366  0.5681  0.7987 -1.5084
13162TIP3    H260902   4.931   5.115   3.479  1.9471  0.1973 -0.2742
13163TIP3   OH260903   2.029   4.397  15.312 -0.0162  0.0242  0.0790
13163TIP3    H160904   2.074   4.329  15.262  0.7647  0.8030 -0.3011
13163TIP3    H260905   2.040   4.476  15.261  0.7058  0.8277  1.4161
13164TIP3   OH260906   2.081   1.804   3.000  0.4290  0.0961  0.0312
13164TIP3    H160907   2.092   1.732   3.062 -0.8875  1.6580  2.2509
13164TIP3    H260908   2.167   1.847   2.998  0.4996  0.0006  0.7599
13165TIP3   OH260909   2.665   0.169  14.101  0.1640  0.1656  0.3591
13165TIP3    H160910   2.700   0.257  14.111  0.7430  0.4104 -2.8559
13165TIP3    H260911   2.741   0.112  14.114  1.0498  0.5027 -2.5860
13166TIP3   OH260912   5.578   1.853   2.863  0.7654  0.0670  0.1867
13166TIP3    H160913   5.530   1.813   2.936  0.2146  0.2887 -0.0527
13166TIP3    H260914   5.533   1.822   2.785 -1.2553  3.0310  0.0058
13167TIP3   OH260915   1.584   0.308  12.608  0.0642  0.2240  0.5691
13167TIP3    H160916   1.578   0.402  12.625 -0.4312  0.7533 -2.1153
13167TIP3    H260917   1.607   0.270  12.693  1.1556  2.8388  1.5461
13168TIP3   OH260918   3.319   0.572   2.670  0.4242 -0.3813 -0.1635
13168TIP3    H160919   3.362   0.505   2.722  1.2819  1.9333  2.3297
13168TIP3    H260920   3.372   0.650   2.682 -1.2496  1.1207 -1.8263
13169TIP3   OH260921   3.398   2.847   2.649 -0.2464  0.1273  0.6227
13169TIP3    H160922   3.396   2.939   2.677  2.2484  1.0537 -1.7866
13169TIP3    H260923   3.425   2.851   2.557  0.6039 -3.0656  0.6296
13170TIP3   OH260924   6.217   5.152  15.409  0.4658 -0.8613 -0.0708
13170TIP3    H160925   6.144   5.097  15.437 -0.8868  0.4552 -0.8573
13170TIP3    H260926   6.224   5.219  15.477  0.3405 -0.4693 -0.4380
13171TIP3   OH260927   3.158   3.115  15.130  0.2168 -0.0400 -0.0187
13171TIP3    H160928   3.194   3.062  15.201 -0.9636 -0.7364  0.0872
13171TIP3    H260929   3.222   3.186  15.118  1.0817 -0.6456  0.8389
13172TIP3   OH260930   4.748   3.140  11.780  0.0697 -0.7151  0.3201
13172TIP3    H160931   4.673   3.155  11.838  0.0747 -0.5917  0.2959
13172TIP3    H260932   4.794   3.065  11.819  0.5453 -0.1123  0.9597
13173TIP3   OH260933   6.105   6.327   3.930  0.3862  0.1309  0.1564
13173TIP3    H160934   6.061   6.348   4.012 -0.2373 -0.9117  0.1053
13173TIP3    H260935   6.131   6.236   3.940  0.7453  0.1427 -0.6203
13174TIP3   OH260936   0.715   5.702  12.080  0.0863  0.6481 -0.0920
13174TIP3    H160937   0.661   5.666  12.010  0.8199  1.3436 -1.0431
13174TIP3    H260938   0.805   5.697  12.046  0.7997 -1.4718  1.8711
13175TIP3   OH260939   1.369   0.078   1.596  0.0228 -0.3781 -0.3655
13175TIP3    H160940   1.426   0.047   1.666 -0.0363  0.2763 -0.0209
13175TIP3    H260941   1.405   0.163   1.571 -0.9522  0.1749  0.0497
13176TIP3   OH260942   6.527   4.423  14.827 -0.2526 -0.9835  0.1699
13176TIP3    H160943   6.511   4.498  14.769  0.2265 -1.9424 -1.2461
13176TIP3    H260944   6.559   4.463  14.908  0.4234  0.3279 -0.6982
13177TIP3   OH260945   2.631   3.683  12.320 -0.6282  0.4608  0.1656
13177TIP3    H160946   2.693   3.755  12.330 -1.9431  1.6058  0.5113
13177TIP3    H260947   2.656   3.641  12.238  1.9427 -0.5202  1.3752
13178TIP3   OH260948   3.816   2.566  13.088 -0.3595  0.3316  0.3432
13178TIP3    H160949   3.838   2.516  13.166 -0.3626  1.2315  0.9305
13178TIP3    H260950   3.841   2.509  13.015 -0.5809 -0.6166  0.9927
13179TIP3   OH260951   6.260   3.183   5.585 -0.7529  0.5633 -0.2584
13179TIP3    H160952   6.254   3.088   5.574 -0.9809  0.8408 -3.1321
13179TIP3    H260953   6.279   3.195   5.679  0.4071 -2.3392 -0.0240
13180TIP3   OH260954   6.370   3.786   2.702  0.7173  0.4161  0.3361
13180TIP3    H160955   6.458   3.767   2.670  0.0628 -1.5309 -0.4493
13180TIP3    H260956   6.312   3.734   2.647 -0.5949 -1.8823  3.6022
13181TIP3   OH260957   5.147   1.250   0.517  0.0847 -0.4916  1.0725
13181TIP3    H160958   5.131   1.343   0.537  0.1496  0.1557 -1.4828
13181TIP3    H260959   5.069   1.205   0.549 -0.4866  0.6233  1.3038
13182TIP3   OH260960   6.415   3.612   1.978  0.1434  0.3225 -0.2946
13182TIP3    H160961   6.488   3.653   1.931  0.4305  0.4960  0.2947
13182TIP3    H260962   6.342   3.616   1.916  1.4495 -3.0541 -2.3498
13183TIP3   OH260963   5.537   4.005  15.952  0.3626 -0.3752 -0.7584
13183TIP3    H160964   5.573   3.918  15.973 -0.1915 -0.2147  1.0227
13183TIP3    H260965   5.580   4.064  16.014  0.8379  0.6887 -2.0358
13184TIP3   OH260966   3.024   1.265  16.829 -0.7958 -0.3857  0.0286
13184TIP3    H160967   3.064   1.347  16.856  0.2082 -1.1563  0.9453
13184TIP3    H260968   2.937   1.290  16.796 -0.8718  0.9310  1.1720
13185TIP3   OH260969   5.347   0.160   1.660 -0.2503  0.0535  0.1802
13185TIP3    H160970   5.275   0.126   1.713  0.7923 -1.1308  0.8765
13185TIP3    H260971   5.355   0.098   1.587  0.0292  0.2010  0.0823
13186TIP3   OH260972   2.601   0.498  17.107  0.1694 -0.5677  0.5479
13186TIP3    H160973   2.643   0.536  17.184 -0.0799 -0.8328  0.8150
13186TIP3    H260974   2.547   0.427  17.142  0.7355 -1.2601  0.0379
13187TIP3   OH260975   3.253   5.524  15.820  0.1163 -0.2052 -0.3553
13187TIP3    H160976   3.249   5.453  15.885  0.2576  0.3216  0.2390
13187TIP3    H260977   3.228   5.602  15.869 -0.3483  0.1089 -1.0810
13188TIP3   OH260978   0.117   6.414  12.166 -0.1238 -0.6747  0.3318
13188TIP3    H160979   0.151   6.340  12.116 -0.5425 -0.6486 -0.0002
13188TIP3    H260980   0.023   6.415  12.147 -0.1736 -0.2427  0.5733
13189TIP3   OH260981   3.404   6.424  11.390  0.1735 -0.4350  0.7301
13189TIP3    H160982   3.411   6.516  11.416 -0.2508 -0.6044  1.4818
13189TIP3    H260983   3.371   6.379  11.468  0.3372 -1.2209  0.3617
13190TIP3   OH260984   1.520   1.069   4.177 -0.7396 -0.1779 -0.0717
13190TIP3    H160985   1.425   1.066   4.166 -0.4636 -1.7467 -2.9080
13190TIP3    H260986   1.546   0.977   4.189  0.5733 -0.0600 -1.6271
13191TIP3   OH260987   0.058   2.438   4.626 -0.0155  0.3253 -0.2254
13191TIP3    H160988  -0.005   2.473   4.563 -1.2307 -1.5483 -0.1504
13191TIP3    H260989   0.029   2.348   4.640  0.9473  0.3202  2.1064
13192TIP3   OH260990   6.286   4.447  16.473  0.7865  0.4137 -0.0324
13192TIP3    H160991   6.315   4.392  16.400  0.6883  1.5474 -0.9514
13192TIP3    H260992   6.343   4.524  16.469  0.6266  0.5893  0.9521
13193TIP3   OH260993   6.173   6.784   1.732  0.2958 -0.3177 -0.8103
13193TIP3    H160994   6.200   6.728   1.660 -1.3537 -1.2028 -0.7962
13193TIP3    H260995   6.082   6.758   1.750  0.0930  1.0874  0.4261
13194TIP3   OH260996   6.046   1.241  14.651 -0.5538 -0.1703 -0.1010
13194TIP3    H160997   5.952   1.257  14.651 -0.3934  0.8716 -1.0413
13194TIP3    H260998   6.084   1.320  14.613  0.5950 -1.1904 -1.1703
13195TIP3   OH260999   5.462   5.730   5.597  0.6607 -0.2306  0.2752
13195TIP3    H161000   5.524   5.782   5.545  1.4344 -0.7607  0.6429
13195TIP3    H261001   5.486   5.639   5.578  0.5559 -0.4306  1.0798
13196TIP3   OH261002   5.555   3.393  13.578 -0.1780  0.1417  0.0275
13196TIP3    H161003   5.608   3.441  13.514  3.3805 -0.1958  2.4148
13196TIP3    H261004   5.595   3.307  13.582 -1.0399 -0.2170  1.8294
13197TIP3   OH261005   5.059   5.530  12.426  0.2562 -0.3490  0.2073
13197TIP3    H161006   4.989   5.526  12.361 -0.4794 -0.5638  1.0016
13197TIP3    H261007   5.112   5.605  12.400  0.2267 -0.6857 -0.8884
13198TIP3   OH261008   5.141   5.392   4.744 -0.0397  0.1124 -0.0693
13198TIP3    H161009   5.079   5.323   4.718  0.9083 -0.7469 -0.1084
13198TIP3    H261010   5.168   5.432   4.661 -0.0315  0.0340 -0.1046
13199TIP3   OH261011   2.096   3.956  13.396  0.6167 -0.4041  0.2235
13199TIP3    H161012   2.086   4.035  13.449  0.9613 -0.3789  0.2561
13199TIP3    H261013   2.046   3.889  13.443  0.4271 -0.2355  0.2620
13200TIP3   OH261014   3.827   4.514   5.453  0.0577 -0.0003  0.0078
13200TIP3    H161015   3.850   4.424   5.476  0.6225 -0.4972 -2.2598
13200TIP3    H261016   3.903   4.565   5.480  0.4733 -0.4679 -0.2557
13201TIP3   OH261017   5.996   0.698   0.707 -0.1951  0.0527 -0.1365
13201TIP3    H161018   6.081   0.697   0.751 -0.0380 -1.2244 -0.4138
13201TIP3    H261019   6.003   0.630   0.640 -1.1310  0.5529 -0.7718
13202TIP3   OH261020   1.433   2.962  13.860  0.0963 -0.3349  0.0259
13202TIP3    H161021   1.408   3.019  13.787 -0.9759 -1.2229 -0.3274
13202TIP3    H261022   1.416   3.014  13.939  0.1979  0.2273 -0.3187
13203TIP3   OH261023   6.393   5.567   5.665  0.3019  0.0939  0.3763
13203TIP3    H161024   6.430   5.580   5.752  1.0659 -2.7118  0.5708
13203TIP3    H261025   6.362   5.476   5.665 -0.5735  0.3082 -1.9676
13204TIP3   OH261026   5.286   4.899   3.602  0.3443  0.1227  0.2460
13204TIP3    H161027   5.243   4.822   3.639 -0.5682  0.7634  0.5769
13204TIP3    H261028   5.351   4.924   3.668  1.6669 -1.1822 -0.5091
13205TIP3   OH261029   4.130   0.995  13.356 -0.4690  0.1585 -0.2479
13205TIP3    H161030   4.095   1.058  13.293  1.5604  0.1787 -1.4365
13205TIP3    H261031   4.215   1.031  13.382  0.5640 -1.8490 -0.6473
13206TIP3   OH261032   0.162   2.895  13.156 -0.0135  0.0249 -0.2474
13206TIP3    H161033   0.102   2.937  13.095 -0.4169  0.6030  0.5326
13206TIP3    H261034   0.119   2.812  13.180  0.3355 -0.3956 -1.0448
13207TIP3   OH261035   1.031   1.322  16.197  0.5022  0.2877  1.1142
13207TIP3    H161036   1.083   1.270  16.135  0.9744 -0.7921  2.3889
13207TIP3    H261037   0.942   1.289  16.187  0.3398  0.9694  0.1506
13208TIP3   OH261038   6.461   5.239  11.332 -0.1763  0.2243 -0.0496
13208TIP3    H161039   6.513   5.168  11.293 -0.1851  0.2025 -0.0211
13208TIP3    H261040   6.386   5.195  11.372  0.4012  0.1185  0.9614
13209TIP3   OH261041   5.483   6.381  13.703 -0.2484  0.4986 -0.0629
13209TIP3    H161042   5.499   6.343  13.789  1.8200 -1.2391 -1.1062
13209TIP3    H261043   5.398   6.348  13.676  0.1680 -0.9646  0.3404
13210TIP3   OH261044   6.016   4.143   1.927  0.0156 -0.3083  0.1210
13210TIP3    H161045   5.942   4.201   1.908 -1.5295 -1.3802  2.3687
13210TIP3    H261046   6.091   4.185   1.885 -1.6350  1.4923 -1.2022
13211TIP3   OH261047   4.502   0.146  12.707 -0.3180 -0.5925  0.4142
13211TIP3    H161048   4.411   0.140  12.679 -0.3648 -0.0872  0.4536
13211TIP3    H261049   4.526   0.056  12.730 -1.0929 -0.5827  1.2981
13212TIP3   OH261050   1.470   3.459  15.187  0.0371 -0.3788 -0.7308
13212TIP3    H161051   1.449   3.552  15.177  0.7701  0.3798  3.1272
13212TIP3    H261052   1.565   3.455  15.178  0.3821 -0.1202  2.0921
13213TIP3   OH261053   6.474   3.097  17.069  0.2958  0.1218  0.7356
13213TIP3    H161054   6.412   3.121  17.000  0.7909  0.0688  0.2679
13213TIP3    H261055   6.421   3.052  17.135 -0.1696  0.1248  0.3643
13214TIP3   OH261056   1.187   6.370   4.327  0.2301 -0.0873 -0.7208
13214TIP3    H161057   1.227   6.344   4.410  1.1088  0.1798 -1.0427
13214TIP3    H261058   1.148   6.290   4.293 -2.8670  0.3540  1.3480
13215TIP3   OH261059   1.736   2.789   0.549  0.2022  0.2175  0.0427
13215TIP3    H161060   1.820   2.819   0.515  0.0712 -1.0994 -1.5811
13215TIP3    H261061   1.678   2.788   0.473 -0.1670 -2.6587  0.2391
13216TIP3   OH261062   3.537   2.508  16.841  0.0332 -0.0837  0.0737
13216TIP3    H161063   3.597   2.514  16.916  0.2623 -0.1551 -0.1034
13216TIP3    H261064   3.482   2.586  16.848  1.5209  1.1137 -0.9448
13217TIP3   OH261065   3.618   0.171   6.294  0.4257 -0.2084  0.6049
13217TIP3    H161066   3.618   0.105   6.224 -0.2380 -0.3372  0.7203
13217TIP3    H261067   3.631   0.254   6.248  2.5782 -0.5047  0.5736
13218TIP3   OH261068   0.981   5.591   5.678 -0.4699 -0.1371  0.4247
13218TIP3    H161069   0.911   5.648   5.708 -0.9494  0.1772 -1.1809
13218TIP3    H261070   0.961   5.505   5.715 -1.6260 -0.0085  0.1279
13219TIP3   OH261071   3.254   1.593  16.244  0.1666 -0.0966  0.0632
13219TIP3    H161072   3.165   1.597  16.278  0.9839  0.2997  2.3160
13219TIP3    H261073   3.306   1.558  16.316  2.2092  1.8552 -0.3425
13220TIP3   OH261074   2.140   1.977   0.250 -0.1590 -0.3088  0.3514
13220TIP3    H161075   2.204   1.930   0.304  0.7630 -0.4376 -0.8045
13220TIP3    H261076   2.154   1.942   0.162 -2.0854 -0.5983  0.1247
13221TIP3   OH261077   3.468   3.856   5.044  0.3188  1.0867  0.0670
13221TIP3    H161078   3.436   3.765   5.045 -1.6478  1.7346  0.0695
13221TIP3    H261079   3.515   3.863   4.961  1.1742 -0.1271  0.4141
13222TIP3   OH261080   1.951   3.214  12.417 -0.4033  0.8175  0.0793
13222TIP3    H161081   1.873   3.241  12.466 -0.4635  1.4717 -0.3562
13222TIP3    H261082   1.983   3.295  12.378  0.6720  0.6097  0.4906
13223TIP3   OH261083   4.487   2.003  15.970  0.4145  0.1590  0.6988
13223TIP3    H161084   4.563   2.060  15.979  1.0395 -0.9288  3.2934
13223TIP3    H261085   4.417   2.060  15.939  1.7262  1.6652  0.3923
13224TIP3   OH261086   3.941   1.282   3.427  0.5767  0.2175 -0.2670
13224TIP3    H161087   3.952   1.376   3.421  0.3769  0.2629  0.0685
13224TIP3    H261088   3.980   1.258   3.511 -0.9670  0.2495  0.4859
13225TIP3   OH261089   0.886   0.089   3.499 -0.4928  0.0808  0.2994
13225TIP3    H161090   0.871   0.057   3.587  1.7750 -2.4378 -0.0906
13225TIP3    H261091   0.977   0.119   3.500 -0.5748  0.4556 -1.0745
13226TIP3   OH261092   3.297   4.981   0.337 -0.1484 -0.1005  0.6268
13226TIP3    H161093   3.338   4.905   0.297  0.7697  0.0888  1.1723
13226TIP3    H261094   3.272   4.952   0.425  0.2680  0.2403  0.8625
13227TIP3   OH261095   2.658   0.960  16.823  0.0753  0.0030 -0.5254
13227TIP3    H161096   2.594   0.903  16.780  1.1642 -0.9979 -0.8634
13227TIP3    H261097   2.689   0.909  16.897 -0.5066  1.0362  0.4572
13228TIP3   OH261098   0.309   3.400   2.572  0.2753 -0.1214  0.2792
13228TIP3    H161099   0.401   3.404   2.544  0.2165 -2.1542 -0.3826
13228TIP3    H261100   0.311   3.420   2.665  1.4086 -0.3249  0.3113
13229TIP3   OH261101   2.500   0.336  14.961 -0.4994 -0.4106  0.5232
13229TIP3    H161102   2.523   0.255  14.916 -0.6992  0.1238 -0.5646
13229TIP3    H261103   2.443   0.309  15.033 -1.9466 -1.0845 -0.8398
13230TIP3   OH261104   3.217   5.116   1.543  0.3276 -0.3734  0.4892
13230TIP3    H161105   3.253   5.203   1.558 -1.9306  0.7726 -0.2385
13230TIP3    H261106   3.286   5.069   1.496  1.0614  1.5216 -0.4326
13231TIP3   OH261107   3.131   2.688   4.633 -0.1800 -0.0893 -0.0900
13231TIP3    H161108   3.091   2.602   4.646  0.5676 -0.2262  1.5744
13231TIP3    H261109   3.057   2.748   4.621 -0.7325 -0.8261 -0.4336
13232TIP3   OH261110   5.927   6.186  11.746  0.0533 -0.4361  0.2971
13232TIP3    H161111   6.006   6.159  11.793  1.3587 -0.6498 -1.8753
13232TIP3    H261112   5.953   6.264  11.698 -0.8674 -0.8171 -0.8845
13233TIP3   OH261113   5.863   2.331  16.129 -0.3240 -0.7963  0.2222
13233TIP3    H161114   5.806   2.406  16.111  0.0638 -0.4870  0.2701
13233TIP3    H261115   5.804   2.263  16.160 -0.7223 -0.6225 -0.1470
13234TIP3   OH261116   1.509   0.774  11.918 -0.7112 -0.1112 -0.6353
13234TIP3    H161117   1.566   0.779  11.842  2.0274  0.3032  1.3041
13234TIP3    H261118   1.524   0.687  11.954 -1.5065 -0.0835 -0.2041
13235TIP3   OH261119   2.438   6.539   1.726  0.1716 -0.6077 -0.4905
13235TIP3    H161120   2.530   6.516   1.709 -0.2710 -2.6004 -0.3950
13235TIP3    H261121   2.442   6.628   1.762  2.0323 -0.5533 -0.7216
13236TIP3   OH261122   5.709   4.954  11.706  0.1337 -0.0949 -0.3573
13236TIP3    H161123   5.672   4.984  11.623 -0.4632 -0.1467 -0.1125
13236TIP3    H261124   5.710   4.858  11.699 -2.3029 -0.2656  0.6676
13237TIP3   OH261125   0.851   4.358  11.074 -0.6259 -0.2865  0.0793
13237TIP3    H161126   0.875   4.444  11.038  1.9257 -0.7428  0.5237
13237TIP3    H261127   0.756   4.363  11.086 -0.6665  2.1471 -0.7353
13238TIP3   OH261128   6.246   5.172   5.716 -0.0153 -0.0352  0.2075
13238TIP3    H161129   6.235   5.103   5.651 -0.8207 -1.1761  1.5008
13238TIP3    H261130   6.339   5.172   5.737 -0.1573 -1.4784  0.9497
13239TIP3   OH261131   1.125   3.144  10.932 -0.2173  0.5294 -0.3307
13239TIP3    H161132   1.122   3.211  10.864 -0.0131  1.2076  0.3055
13239TIP3    H261133   1.161   3.190  11.008  0.7642 -0.5220 -0.1307
13240TIP3   OH261134   3.849   1.230  11.519 -0.0443 -0.2769 -0.0376
13240TIP3    H161135   3.899   1.240  11.600 -1.5891 -0.3668  0.9617
13240TIP3    H261136   3.806   1.145  11.527 -0.8055  0.0390 -0.6004
13241TIP3   OH261137   3.313   4.362  16.922  0.0296 -0.4206 -0.3165
13241TIP3    H161138   3.408   4.357  16.915  0.1850  0.7928  0.4842
13241TIP3    H261139   3.284   4.402  16.840  0.2423 -0.5197 -0.4396
13242TIP3   OH261140   0.288   0.156  13.211  0.2337 -0.3117 -0.5931
13242TIP3    H161141   0.334   0.218  13.268  0.1355 -0.8933  0.1375
13242TIP3    H261142   0.242   0.098  13.272  1.4759 -2.0196 -1.1999
13243TIP3   OH261143   4.816   4.619  15.440 -0.1960 -0.4816 -0.3666
13243TIP3    H161144   4.732   4.600  15.399  0.5782 -1.4972 -1.5505
13243TIP3    H261145   4.839   4.539  15.487  0.7488 -0.7496 -1.2309
13244TIP3   OH261146   4.247   3.411   1.679  0.0605 -0.0400 -0.1826
13244TIP3    H161147   4.165   3.409   1.729 -0.7861 -1.1792 -1.5306
13244TIP3    H261148   4.228   3.360   1.600  1.9695 -0.0102 -0.7109
13245TIP3   OH261149   4.026   0.025  10.420  0.1889  0.0624  0.2827
13245TIP3    H161150   4.024   0.047  10.327  1.7106 -0.0649  0.1854
13245TIP3    H261151   3.952  -0.035  10.432 -1.1254  1.4828 -0.4353
13246TIP3   OH261152   4.459   3.207  14.966 -0.4328 -0.2208  0.8111
13246TIP3    H161153   4.444   3.295  14.999 -0.2167  0.3638 -0.5925
13246TIP3    H261154   4.548   3.185  14.995 -0.7818 -0.3336  1.8647
13247TIP3   OH261155   5.126   3.776  15.078  0.5555  0.0620  0.4613
13247TIP3    H161156   5.104   3.855  15.128 -0.6744  1.2382 -1.7459
13247TIP3    H261157   5.222   3.771  15.082  0.5033 -0.2112  3.2445
13248TIP3   OH261158   5.535   6.663  15.821 -0.2206  1.6348 -0.0162
13248TIP3    H161159   5.534   6.743  15.768  0.1370  0.7936 -1.3531
13248TIP3    H261160   5.499   6.595  15.763 -1.4129  0.9897  1.3954
13249TIP3   OH261161   3.462   4.367   0.933 -0.1753 -0.0426  0.1295
13249TIP3    H161162   3.538   4.404   0.889 -0.3891  0.9628  0.5751
13249TIP3    H261163   3.402   4.345   0.863  0.6337 -1.1406 -0.2504
13250TIP3   OH261164   3.840   4.689  12.540  0.2067  0.0684 -0.0946
13250TIP3    H161165   3.827   4.783  12.535 -1.8080 -0.2323 -2.0960
13250TIP3    H261166   3.915   4.671  12.483  1.3575  0.5143  1.2117
13251TIP3   OH261167   3.501   1.082  11.123 -0.0423 -0.6058 -0.1447
13251TIP3    H161168   3.418   1.063  11.168 -0.4680 -0.8916 -1.0159
13251TIP3    H261169   3.543   0.997  11.113 -0.5084 -0.7269 -1.3125
13252TIP3   OH261170   1.784   2.503  13.489 -0.2126 -0.5364  0.2096
13252TIP3    H161171   1.827   2.582  13.523  1.8608 -0.9697 -1.1971
13252TIP3    H261172   1.731   2.534  13.416 -0.6545 -0.2656  0.6370
13253TIP3   OH261173   0.915   1.768  16.432  0.4604  0.1834  0.0265
13253TIP3    H161174   0.895   1.677  16.451 -0.1123  0.1232 -0.8252
13253TIP3    H261175   0.904   1.776  16.338  1.8428  0.8119 -0.0981
13254TIP3   OH261176   1.422   5.476  13.251  0.6887 -0.0437  0.0482
13254TIP3    H161177   1.517   5.482  13.266  1.2279 -2.9458 -1.2952
13254TIP3    H261178   1.414   5.470  13.155 -0.9063  0.6605  0.1182
13255TIP3   OH261179   4.302   2.326   3.403 -0.3690  0.2505 -0.0416
13255TIP3    H161180   4.304   2.324   3.498 -1.9659  2.6220  0.1292
13255TIP3    H261181   4.248   2.251   3.378 -0.9667  0.3264  0.9842
13256TIP3   OH261182   0.458   1.914   2.436  0.0323 -0.6814  0.6125
13256TIP3    H161183   0.467   1.824   2.404  0.5693 -0.9197  1.3787
13256TIP3    H261184   0.366   1.921   2.461 -0.5420 -0.2845 -1.4999
13257TIP3   OH261185   5.436   2.418   2.464  0.0092  0.0023  0.2823
13257TIP3    H161186   5.384   2.353   2.416 -0.7150  0.6619  0.1530
13257TIP3    H261187   5.505   2.443   2.403 -0.2695  0.0414 -0.0258
13258TIP3   OH261188   0.290   5.692  11.915 -0.2175 -0.5592  0.2141
13258TIP3    H161189   0.226   5.621  11.918  0.8317 -1.5423  0.1347
13258TIP3    H261190   0.336   5.686  11.999  0.0010 -0.0984  0.1314
13259TIP3   OH261191   6.718   6.146   5.157 -0.0625  0.1751  0.7783
13259TIP3    H161192   6.771   6.200   5.098 -1.7910  0.2344 -0.8129
13259TIP3    H261193   6.690   6.205   5.226 -2.0420  1.4393 -1.0097
13260TIP3   OH261194   2.857   0.501   3.685  0.2553  0.4687 -0.1000
13260TIP3    H161195   2.774   0.477   3.644 -0.0676  0.3153  0.6195
13260TIP3    H261196   2.892   0.418   3.717  0.5730  0.5673 -0.1865
13261TIP3   OH261197   3.863   4.648   1.825 -0.0978 -0.2880 -0.3647
13261TIP3    H161198   3.797   4.713   1.803  0.8555  0.6873 -0.4024
13261TIP3    H261199   3.929   4.696   1.874 -0.4361 -1.6971  1.5872
13262TIP3   OH261200   0.529   2.153  14.611 -0.2177 -0.6966  0.2635
13262TIP3    H161201   0.481   2.218  14.559  1.6137  0.8406  0.3787
13262TIP3    H261202   0.491   2.159  14.698 -1.1092 -0.9136 -0.1016
13263TIP3   OH261203   0.796   2.514   1.339 -0.6174  0.3471  0.2119
13263TIP3    H161204   0.851   2.440   1.365 -0.3377  0.6375  0.4492
13263TIP3    H261205   0.776   2.497   1.247  1.1263  0.9986 -0.3253
13264TIP3   OH261206   6.267   5.815  16.320 -0.4045  0.1751 -0.5351
13264TIP3    H161207   6.334   5.876  16.288 -0.5540 -0.4969 -2.2039
13264TIP3    H261208   6.278   5.815  16.415  1.1936  0.9585 -0.6942
13265TIP3   OH261209   0.951   6.626   2.087 -0.5181 -0.1040  0.0012
13265TIP3    H161210   0.960   6.611   2.181  0.4257  0.2674 -0.0215
13265TIP3    H261211   0.860   6.603   2.068 -1.1285  1.1183  1.2568
13266TIP3   OH261212   2.341   6.363   3.600 -0.4299 -0.1077 -0.1439
13266TIP3    H161213   2.303   6.367   3.513  0.0504 -0.7293 -0.3891
13266TIP3    H261214   2.413   6.301   3.592 -0.2730 -0.0405  0.6553
13267TIP3   OH261215   3.566   0.661   0.093  0.6007 -0.5848  0.5678
13267TIP3    H161216   3.592   0.706   0.174 -0.1052  0.4589  0.2371
13267TIP3    H261217   3.637   0.599   0.077  1.4604  0.1853  1.2334
13268TIP3   OH261218   5.162   2.647   6.569  0.3786 -0.1886 -0.4111
13268TIP3    H161219   5.196   2.621   6.483  0.6209  1.4114 -0.8460
13268TIP3    H261220   5.240   2.671   6.619  0.1277  0.5400 -0.3548
13269TIP3   OH261221   1.889   5.872  11.327 -0.5676  0.0749 -0.1759
13269TIP3    H161222   1.947   5.853  11.401  0.1493  0.0147 -0.7438
13269TIP3    H261223   1.866   5.964  11.338 -1.3985 -0.2289  0.7571
13270TIP3   OH261224   3.418   4.018  13.155 -0.0263 -0.0393  0.2093
13270TIP3    H161225   3.484   4.075  13.196 -0.3354 -0.7986  1.8690
13270TIP3    H261226   3.467   3.967  13.090  0.1006  2.6546 -1.9768
13271TIP3   OH261227   0.676   0.280   3.464 -0.2226 -0.4994  0.2867
13271TIP3    H161228   0.733   0.216   3.505  0.3000  0.6416  1.4161
13271TIP3    H261229   0.735   0.337   3.415 -0.6874 -0.9038 -0.7690
13272TIP3   OH261230   5.257   2.291  11.233 -0.6008  0.2300 -0.0159
13272TIP3    H161231   5.320   2.305  11.162  1.0939 -1.1065  1.1277
13272TIP3    H261232   5.239   2.378  11.267 -0.3923  0.7542 -1.2069
13273TIP3   OH261233   4.811   3.694  16.838 -0.0712  0.1027 -0.3574
13273TIP3    H161234   4.848   3.605  16.839  0.6583  0.3862  1.1756
13273TIP3    H261235   4.879   3.748  16.799 -0.7991 -0.0832 -1.9723
13274TIP3   OH261236   2.300   6.756  16.788  0.0464 -0.2233 -0.5249
13274TIP3    H161237   2.270   6.831  16.736  0.7905  0.2619 -0.2629
13274TIP3    H261238   2.291   6.682  16.729  1.7279  0.4402 -1.7104
13275TIP3   OH261239   0.771   2.247  16.022  0.3436  0.7333 -0.1301
13275TIP3    H161240   0.787   2.191  15.946  1.4551 -1.2855  1.4751
13275TIP3    H261241   0.676   2.259  16.024  0.1932 -0.1295 -1.2010
13276TIP3   OH261242   3.052   4.817  16.115  0.1642 -0.1597  0.0855
13276TIP3    H161243   3.143   4.829  16.088  0.0458 -1.1767 -0.8126
13276TIP3    H261244   3.059   4.769  16.198  0.4466  0.3472  0.3666
13277TIP3   OH261245   5.953   5.381   3.193  0.2102 -0.0365  0.2690
13277TIP3    H161246   5.867   5.344   3.213 -0.0228 -0.4624 -1.4126
13277TIP3    H261247   5.940   5.432   3.113  0.8203  2.6574  1.7475
13278TIP3   OH261248   6.128   4.949   4.215 -0.2480  0.1836  0.1859
13278TIP3    H161249   6.151   4.903   4.135 -0.9741 -0.7476  0.4908
13278TIP3    H261250   6.056   5.007   4.189  0.2837  0.7356 -0.0744
13279TIP3   OH261251   4.529   4.509   3.676 -0.0097 -0.7458 -0.5661
13279TIP3    H161252   4.570   4.458   3.746  1.7340 -0.0441 -1.0373
13279TIP3    H261253   4.592   4.508   3.605 -1.0506 -0.0530 -1.5421
13280TIP3   OH261254   1.559   6.498   5.008  0.0409  0.0435 -0.0783
13280TIP3    H161255   1.511   6.491   5.090  0.2554 -1.5197 -0.0570
13280TIP3    H261256   1.619   6.571   5.021 -0.5786  0.4019  0.8091
13281TIP3   OH261257   4.747   2.205  16.307 -0.4009 -0.6080  0.0892
13281TIP3    H161258   4.757   2.111  16.293  1.5219 -0.1390 -2.2493
13281TIP3    H261259   4.733   2.214  16.401 -0.9423 -3.2331  0.3194
13282TIP3   OH261260   5.410   3.244   4.746 -0.2525 -0.1133  0.3189
13282TIP3    H161261   5.442   3.313   4.688 -1.0730  0.0906  0.0933
13282TIP3    H261262   5.438   3.272   4.834 -1.3007  0.9628  0.3392
13283TIP3   OH261263   5.427   5.852   3.297  0.7196  0.1161  0.3849
13283TIP3    H161264   5.500   5.793   3.282  0.4463  0.1191 -1.0659
13283TIP3    H261265   5.434   5.918   3.228  0.0295  0.8027  0.9455
13284TIP3   OH261266   4.086   0.055   0.103 -0.1585 -0.0693  0.3826
13284TIP3    H161267   4.026   0.123   0.072 -0.6222 -0.3597  0.6333
13284TIP3    H261268   4.119   0.089   0.187  0.5017  0.3653 -0.0445
13285TIP3   OH261269   5.360   3.202  16.743  0.4287  0.3000 -0.1251
13285TIP3    H161270   5.412   3.144  16.798  0.0860  0.0166 -0.0950
13285TIP3    H261271   5.386   3.181  16.653  2.5635  2.2473 -0.0398
13286TIP3   OH261272   3.138   5.312  15.309 -0.1901  0.0827 -0.0551
13286TIP3    H161273   3.116   5.309  15.402 -0.8207 -1.4573 -0.2144
13286TIP3    H261274   3.218   5.260  15.301  2.7112  4.0441  0.2238
13287TIP3   OH261275   3.042   0.687  12.018  0.2093 -0.9491  0.2145
13287TIP3    H161276   3.135   0.684  12.040  0.0670 -0.3358  0.9294
13287TIP3    H261277   3.007   0.604  12.052 -0.2548  0.4817  3.5901
13288TIP3   OH261278   4.435   3.514  16.823 -0.3497 -0.0211 -0.2081
13288TIP3    H161279   4.504   3.549  16.767 -0.2948  2.6664  1.3963
13288TIP3    H261280   4.478   3.500  16.907 -1.2061 -0.7571  0.1233
13289TIP3   OH261281   6.549   2.408  15.217  0.1446  0.0811  0.0182
13289TIP3    H161282   6.475   2.376  15.268 -0.2531 -0.8400 -1.1058
13289TIP3    H261283   6.511   2.436  15.134  1.2135 -1.7804 -1.1504
13290TIP3   OH261284   6.405   3.841   0.757 -0.2428 -0.2399  0.3804
13290TIP3    H161285   6.417   3.805   0.845  1.3678 -0.1881  0.2171
13290TIP3    H261286   6.488   3.824   0.713 -0.5470  0.9328 -0.7071
13291TIP3   OH261287   3.593   3.253  13.566  0.1751 -0.2367 -0.4178
13291TIP3    H161288   3.662   3.258  13.633 -0.5613 -1.5011  0.4953
13291TIP3    H261289   3.556   3.165  13.578 -0.7475 -0.0427 -1.7364
13292TIP3   OH261290   2.698   0.713   6.136  0.2055  0.2405 -0.2689
13292TIP3    H161291   2.748   0.637   6.166 -1.3252 -0.2760  1.1638
13292TIP3    H261292   2.641   0.735   6.210 -1.2039  1.1944 -1.5712
13293TIP3   OH261293   2.967   5.489   1.059  0.1106 -0.0972  0.9261
13293TIP3    H161294   2.891   5.480   1.003 -0.5238 -0.3731  1.8026
13293TIP3    H261295   2.945   5.561   1.118  2.1013  2.4933 -1.2171
13294TIP3   OH261296   4.638   2.291   6.582  0.3702  0.0942  0.0156
13294TIP3    H161297   4.586   2.363   6.619 -1.8499 -0.8231 -1.1380
13294TIP3    H261298   4.627   2.219   6.645  1.2895  0.2441  0.3701
13295TIP3   OH261299   5.215   0.034   0.619 -0.1716 -0.1285  0.2295
13295TIP3    H161300   5.294   0.076   0.653 -0.4794 -0.3345  1.2506
13295TIP3    H261301   5.175   0.100   0.562  0.5531  0.1004 -0.0242
13296TIP3   OH261302   0.918   3.084   6.434 -0.1956 -0.0010 -0.1297
13296TIP3    H161303   0.990   3.134   6.475  0.5725  0.0450 -1.4800
13296TIP3    H261304   0.913   3.003   6.486  1.0386 -0.1308 -0.1712
13297TIP3   OH261305   6.242   5.045   1.006  0.6425 -0.1862  0.3117
13297TIP3    H161306   6.172   5.102   0.973  0.5968 -0.5520 -0.2320
13297TIP3    H261307   6.321   5.077   0.964  1.0976  1.2544  2.1451
13298TIP3   OH261308   2.756   0.189  11.865 -0.1265  0.6134  0.4810
13298TIP3    H161309   2.810   0.112  11.882 -0.3332  0.4232  0.2763
13298TIP3    H261310   2.801   0.261  11.910 -0.4216  0.2045  1.4489
13299TIP3   OH261311   5.684   5.762   0.500 -0.3615 -0.4138  0.6685
13299TIP3    H161312   5.730   5.825   0.444 -2.0846  0.1999 -0.1597
13299TIP3    H261313   5.679   5.683   0.447 -0.5547 -0.3612  0.6064
13300TIP3   OH261314   0.747   1.468  15.714  0.1180 -0.6127  0.0117
13300TIP3    H161315   0.747   1.375  15.690  0.0560 -0.5529 -0.2217
13300TIP3    H261316   0.654   1.493  15.713  0.2242 -0.2202 -1.2091
13301TIP3   OH261317   3.618   4.034  16.999  0.1894  0.0560  0.1978
13301TIP3    H161318   3.598   4.060  16.909 -0.5791  2.0831  0.8902
13301TIP3    H261319   3.660   3.948  16.990 -1.8898 -0.8687 -1.9098
13302TIP3   OH261320   3.166   0.571   5.221  0.4181 -0.3967 -0.7159
13302TIP3    H161321   3.231   0.527   5.276  0.0419 -0.3769 -0.2426
13302TIP3    H261322   3.102   0.606   5.284  2.3186  3.6809 -0.7100
13303TIP3   OH261323   3.461   1.384   6.451  0.0291  0.0157 -0.2269
13303TIP3    H161324   3.468   1.289   6.447  1.1797  0.1011 -0.7826
13303TIP3    H261325   3.529   1.415   6.391 -1.7991  1.1586 -1.8207
13304TIP3   OH261326   1.955   2.741  13.499 -0.1969 -0.4217 -0.2666
13304TIP3    H161327   2.021   2.804  13.528 -0.3026  0.3244 -1.5591
13304TIP3    H261328   1.890   2.794  13.452 -0.9096 -1.3472 -0.3649
13305TIP3   OH261329   0.737   3.215   5.321 -0.5701  0.3445 -0.4724
13305TIP3    H161330   0.818   3.165   5.324 -0.9082 -0.1701  0.5708
13305TIP3    H261331   0.669   3.150   5.308 -0.8071  0.8111 -1.7339
13306TIP3   OH261332   1.921   4.017  12.669 -0.1929  0.1677 -0.0892
13306TIP3    H161333   1.832   4.052  12.670  0.1363  1.2336 -2.1330
13306TIP3    H261334   1.974   4.088  12.631  1.6725 -0.1701  1.7299
13307TIP3   OH261335   3.298   6.788  10.714  0.7095 -0.5046 -0.1967
13307TIP3    H161336   3.353   6.779  10.636 -2.1446  1.0111 -2.5802
13307TIP3    H261337   3.286   6.882  10.724 -3.1954 -0.7192 -1.2831
13308TIP3   OH261338   6.559   5.979   0.199  0.7253  0.2116  0.5214
13308TIP3    H161339   6.570   5.961   0.105  1.3322 -0.4988  0.7191
13308TIP3    H261340   6.466   5.962   0.216  0.6310  0.2525  0.0758
13309TIP3   OH261341   6.254   2.911  15.702  0.1937 -0.0464  0.2241
13309TIP3    H161342   6.314   2.983  15.721 -0.1270  0.1469  0.5285
13309TIP3    H261343   6.255   2.901  15.607 -0.9930  1.4446  0.0193
13310TIP3   OH261344   0.505   3.680  15.254 -0.0421  0.1589 -0.0336
13310TIP3    H161345   0.521   3.613  15.320 -0.0346 -0.0061 -0.2007
13310TIP3    H261346   0.427   3.650  15.208  0.1703  0.0780 -0.3448
13311TIP3   OH261347   6.382   4.627   4.898 -0.3885  0.4027  0.3555
13311TIP3    H161348   6.317   4.619   4.828  0.4799  1.1490 -0.5661
13311TIP3    H261349   6.388   4.721   4.914  1.9457  0.5767 -1.0646
13312TIP3   OH261350   5.389   0.813   2.803  0.1811 -0.2409 -0.3121
13312TIP3    H161351   5.368   0.727   2.765 -0.8758 -0.1026 -0.0687
13312TIP3    H261352   5.468   0.797   2.853 -0.1703 -1.1615 -0.0189
13313TIP3   OH261353   5.634   5.177  17.166  0.0791 -0.0018 -0.0053
13313TIP3    H161354   5.644   5.238  17.092 -0.6438 -0.5123 -0.5376
13313TIP3    H261355   5.631   5.234  17.243  1.7009  0.4892 -0.2680
13314TIP3   OH261356   2.436   4.427   3.908 -0.1883  0.1518  0.4275
13314TIP3    H161357   2.464   4.516   3.888  1.2910 -0.2660  0.5163
13314TIP3    H261358   2.455   4.416   4.001 -0.4098 -0.2526  0.4290
13315TIP3   OH261359   1.896   6.488   0.116  0.3823 -0.1636  0.0552
13315TIP3    H161360   1.965   6.428   0.143  1.1128  0.6117 -0.0315
13315TIP3    H261361   1.913   6.568   0.168  1.3078  1.0650 -2.0173
13316TIP3   OH261362   5.635   1.352   3.785 -0.2952 -0.3718 -0.0003
13316TIP3    H161363   5.563   1.387   3.837 -0.2172  0.0521 -0.1680
13316TIP3    H261364   5.610   1.261   3.767 -1.2804  0.0514 -0.9059
13317TIP3   OH261365   4.130   4.680  10.608  0.0841  0.8547  0.8511
13317TIP3    H161366   4.170   4.765  10.591  1.2073  0.1506 -0.2356
13317TIP3    H261367   4.199   4.617  10.589 -0.6583 -0.2981  1.8583
13318TIP3   OH261368   2.283   4.008   4.460  0.0199 -0.4360  0.3466
13318TIP3    H161369   2.312   4.095   4.431 -0.0365  0.2079  2.0703
13318TIP3    H261370   2.356   3.950   4.439  0.0674  0.0107 -0.8128
13319TIP3   OH261371   2.000   0.488   4.252  0.1220  0.1600 -0.3079
13319TIP3    H161372   1.943   0.448   4.317  1.4069 -0.6627  0.3610
13319TIP3    H261373   2.056   0.416   4.222  0.5002  0.8403 -1.2608
13320TIP3   OH261374   1.860   6.717   0.289  0.2863  0.2326  0.4683
13320TIP3    H161375   1.770   6.746   0.270  0.1302  0.8694  2.0288
13320TIP3    H261376   1.859   6.696   0.382  1.1662 -2.0863  0.0231
13321TIP3   OH261377   0.413   1.661  14.885  0.1108 -0.0493  0.3997
13321TIP3    H161378   0.341   1.710  14.847 -0.8070 -0.2963  1.7214
13321TIP3    H261379   0.373   1.577  14.911  1.2490 -0.8182 -0.2865
13322TIP3   OH261380   4.595   0.618   2.125  0.0597 -0.0705  0.7563
13322TIP3    H161381   4.572   0.711   2.136  0.8423  0.1627  0.5008
13322TIP3    H261382   4.515   0.578   2.091  0.6079  1.1772 -2.4007
13323TIP3   OH261383   4.335   6.632   5.010  0.4296 -0.0733 -0.2362
13323TIP3    H161384   4.320   6.674   5.094  0.4802  1.2955 -0.8773
13323TIP3    H261385   4.295   6.692   4.946 -0.4249 -1.5288 -1.1213
13324TIP3   OH261386   0.235   5.936  10.778 -0.4205  0.0942  0.0544
13324TIP3    H161387   0.139   5.927  10.779 -0.5047  0.4099 -1.8642
13324TIP3    H261388   0.266   5.850  10.752 -0.2002  0.1650  0.0861
13325TIP3   OH261389   3.189   0.184   0.818 -0.2960 -0.1155  0.9670
13325TIP3    H161390   3.205   0.233   0.737 -1.7964  0.1755  0.8157
13325TIP3    H261391   3.162   0.250   0.882 -0.3282 -0.4948  1.3511
13326TIP3   OH261392   2.814   0.580  13.185  0.9387  0.5311  0.0212
13326TIP3    H161393   2.730   0.624  13.167  0.2164 -0.2257  1.3362
13326TIP3    H261394   2.871   0.606  13.113  0.0362  2.2908 -0.1184
13327TIP3   OH261395   0.077   5.288   5.127 -0.3075 -0.2740 -0.5230
13327TIP3    H161396   0.168   5.302   5.101  0.3564 -1.9143  0.7721
13327TIP3    H261397   0.072   5.323   5.216 -0.4749 -1.6911  0.0468
13328TIP3   OH261398   4.397   4.462   0.743 -0.4161 -0.1180 -0.1891
13328TIP3    H161399   4.423   4.476   0.834  2.5336 -0.6141 -0.8622
13328TIP3    H261400   4.353   4.377   0.744  0.9160 -0.8184  0.5634
13329TIP3   OH261401   4.219   0.910   2.360 -0.3003  0.2377 -0.2435
13329TIP3    H161402   4.134   0.944   2.331 -0.1641  0.2189 -0.6778
13329TIP3    H261403   4.252   0.976   2.421  0.9318  2.0549 -2.6732
13330TIP3   OH261404   5.694   4.625   5.209 -0.6918 -0.1877  0.2048
13330TIP3    H161405   5.680   4.634   5.303  0.1472  1.4707  0.2041
13330TIP3    H261406   5.729   4.536   5.198  0.1444 -0.0565  1.5879
13331TIP3   OH261407   6.208   5.155   0.313  0.8767 -0.0068 -0.4132
13331TIP3    H161408   6.169   5.068   0.323 -0.7123  0.5498 -1.5142
13331TIP3    H261409   6.261   5.149   0.234  2.2566 -0.4514  0.4996
13332TIP3   OH261410   4.066   5.312   0.769 -0.1156 -0.3906 -0.0638
13332TIP3    H161411   4.106   5.250   0.831  0.3638 -0.6504 -0.6174
13332TIP3    H261412   4.050   5.391   0.820  2.6229  0.3266 -0.1583
13333TIP3   OH261413   3.259   2.450  14.124 -0.3987  0.0455 -0.0675
13333TIP3    H161414   3.233   2.398  14.047 -2.5305  0.3399  0.3875
13333TIP3    H261415   3.348   2.420  14.144 -0.7290 -1.8398 -1.1419
13334TIP3   OH261416   0.130   1.065   1.481  0.7160 -0.6017 -0.2132
13334TIP3    H161417   0.036   1.078   1.467  0.1781 -0.5317  2.8598
13334TIP3    H261418   0.172   1.128   1.422 -1.2600  1.1843  0.2029
13335TIP3   OH261419   4.288   2.300   4.959  0.0225  0.2358  0.5497
13335TIP3    H161420   4.205   2.325   4.919  0.5913  0.6842 -0.3729
13335TIP3    H261421   4.352   2.360   4.921  1.1350 -1.4412 -0.3348
13336TIP3   OH261422   6.753   3.005  15.924 -0.5294  0.0399  0.4981
13336TIP3    H161423   6.757   2.910  15.916 -2.0356 -0.1841  1.9852
13336TIP3    H261424   6.682   3.021  15.985 -1.6471  2.2049 -1.2460
13337TIP3   OH261425   5.233   1.977   0.861  0.3484 -0.0001  0.0098
13337TIP3    H161426   5.215   2.068   0.838  0.1199 -0.0679 -0.0815
13337TIP3    H261427   5.324   1.963   0.833 -0.2403 -0.3988 -1.8762
13338TIP3   OH261428   2.975   3.769   4.019  0.6746  0.4338  0.4150
13338TIP3    H161429   2.970   3.706   4.090 -0.0064  0.7260  0.6374
13338TIP3    H261430   2.896   3.822   4.028  1.2953  1.4157  0.3294
13339TIP3   OH261431   6.634   2.048   6.549  0.3278 -0.1410 -0.1724
13339TIP3    H161432   6.626   2.115   6.481  1.3466 -0.4715 -0.6416
13339TIP3    H261433   6.729   2.041   6.565  0.3462 -2.2918 -0.9868
13340TIP3   OH261434   5.152   0.388  14.486  0.2319 -0.7545  0.4257
13340TIP3    H161435   5.164   0.298  14.456  1.8086 -0.5265  0.2920
13340TIP3    H261436   5.191   0.442  14.417  1.7907 -0.1040  1.7466
13341TIP3   OH261437   5.328   6.297  14.942  0.1148 -0.1950  0.0934
13341TIP3    H161438   5.372   6.216  14.967 -1.7008 -1.3440 -0.2224
13341TIP3    H261439   5.391   6.342  14.886  1.6906 -0.6999  1.3662
13342TIP3   OH261440   4.898   6.688   3.875  0.0808 -0.9871  0.0677
13342TIP3    H161441   4.982   6.706   3.917 -0.9979 -0.5188  2.1715
13342TIP3    H261442   4.837   6.676   3.948 -1.9136 -0.1667 -1.3710
13343TIP3   OH261443   2.780   4.645  16.207 -0.2207  0.2168  0.0141
13343TIP3    H161444   2.853   4.691  16.249  0.3826  0.9710 -1.7325
13343TIP3    H261445   2.714   4.636  16.275  1.1029  0.4275  1.3778
13344TIP3   OH261446   6.532   5.177  13.669  0.1077 -0.1049 -0.3901
13344TIP3    H161447   6.446   5.152  13.703 -0.2467 -0.1558 -1.2943
13344TIP3    H261448   6.594   5.122  13.718 -0.5116 -1.3192 -0.9334
13345TIP3   OH261449   3.720   5.973  14.981 -0.0668  0.6589  0.0890
13345TIP3    H161450   3.630   5.974  15.014  0.6777  2.7237  2.3765
13345TIP3    H261451   3.772   6.012  15.051  3.0398 -2.5357 -0.1482
13346TIP3   OH261452   4.500   6.233  16.895 -0.4669  0.4246 -0.2654
13346TIP3    H161453   4.488   6.148  16.936  0.9579 -0.6212 -1.9051
13346TIP3    H261454   4.531   6.289  16.967 -0.8334 -0.5759  0.7038
13347TIP3   OH261455   2.473   1.983  15.741  0.3999 -0.0049 -0.2080
13347TIP3    H161456   2.552   1.940  15.775 -0.0058 -1.4954 -1.0701
13347TIP3    H261457   2.483   1.980  15.646 -1.1493 -1.1989 -0.3816
13348TIP3   OH261458   0.814   1.177  15.418 -0.7243 -0.3047 -0.3100
13348TIP3    H161459   0.843   1.109  15.479 -0.0741 -0.4157 -0.7390
13348TIP3    H261460   0.895   1.211  15.380 -1.1849 -1.7166 -2.7368
13349TIP3   OH261461   3.968   1.567   2.290 -0.0633  0.7425  0.0587
13349TIP3    H161462   4.014   1.518   2.358  0.2783  1.5093  0.3965
13349TIP3    H261463   3.952   1.653   2.329 -0.9072  0.8123 -0.4156
13350TIP3   OH261464   5.580   6.745   2.659 -0.2676  0.6642  0.3710
13350TIP3    H161465   5.541   6.778   2.740 -1.5742 -1.2754  0.6022
13350TIP3    H261466   5.600   6.653   2.677  1.3558  0.7371 -0.8673
13351TIP3   OH261467   4.726   5.734   5.813 -0.0700  0.2709  0.1810
13351TIP3    H161468   4.709   5.824   5.784  1.7140  0.9970  1.1985
13351TIP3    H261469   4.791   5.744   5.883 -1.2748 -1.6947  1.6607
13352TIP3   OH261470   2.130   0.104   4.009 -0.5473  0.3485 -0.2826
13352TIP3    H161471   2.147   0.010   4.016 -1.4993  0.2000  0.2720
13352TIP3    H261472   2.139   0.124   3.916 -2.5683 -0.7659 -0.7718
13353TIP3   OH261473   2.194   2.626  14.602 -1.0459 -0.0678  0.2356
13353TIP3    H161474   2.210   2.550  14.658  0.4787 -0.5573 -0.8106
13353TIP3    H261475   2.103   2.651  14.621 -0.9809 -1.0004  1.9448
13354TIP3   OH261476   6.713   5.300  16.380 -0.1029 -0.7073  0.7340
13354TIP3    H161477   6.637   5.346  16.345  0.3883 -0.2139  0.2974
13354TIP3    H261478   6.788   5.348  16.346  0.4194  0.2936  3.1206
13355TIP3   OH261479   1.713   4.955  13.242 -0.5639  0.4784  0.3282
13355TIP3    H161480   1.676   5.037  13.275 -0.0186 -0.2014  2.9001
13355TIP3    H261481   1.784   4.934  13.304  1.8650 -0.0388 -2.4036
13356TIP3   OH261482   2.047   5.393  13.057  0.0745 -0.3326  0.1174
13356TIP3    H161483   1.967   5.444  13.073 -0.2892 -0.9112  0.1916
13356TIP3    H261484   2.019   5.302  13.067  0.7643 -0.5379  0.2037
13357TIP3   OH261485   4.184   2.996   1.210 -0.5388  0.3667 -0.3007
13357TIP3    H161486   4.163   2.911   1.171 -0.6230 -0.5311  1.5589
13357TIP3    H261487   4.191   2.978   1.304 -1.3817  2.5728  0.2555
13358TIP3   OH261488   4.709   1.936  10.509  0.4528  0.5206  0.0138
13358TIP3    H161489   4.744   1.919  10.422 -1.1123 -2.8905 -0.1422
13358TIP3    H261490   4.756   1.875  10.566 -1.0062  0.0910  0.8256
13359TIP3   OH261491   4.617   0.740  14.984  0.5826 -0.0711  0.0925
13359TIP3    H161492   4.665   0.746  15.067  0.2369  0.9730  0.2459
13359TIP3    H261493   4.683   0.720  14.918  0.8350 -1.1032  0.6416
13360TIP3   OH261494   6.032   2.462  15.088 -0.1439  0.0993  0.0663
13360TIP3    H161495   6.115   2.473  15.134  0.2985 -0.7049 -0.5265
13360TIP3    H261496   6.034   2.373  15.054 -1.4019 -0.0506  0.3300
13361TIP3   OH261497   5.457   1.460   4.798 -0.5120  0.1183 -0.7408
13361TIP3    H161498   5.508   1.382   4.820  0.2606  0.7718 -0.1605
13361TIP3    H261499   5.521   1.522   4.763 -0.9946  0.7598 -0.5089
13362TIP3   OH261500   4.263   0.269   1.668 -0.4158  0.5895 -0.1662
13362TIP3    H161501   4.263   0.349   1.721 -0.2730  0.9689 -0.7328
13362TIP3    H261502   4.312   0.206   1.720 -2.1369  0.2677  1.1587
13363TIP3   OH261503   2.895   0.534   1.227 -0.2287 -0.6016  0.0370
13363TIP3    H161504   2.876   0.444   1.202  3.5040 -2.0509  1.7023
13363TIP3    H261505   2.837   0.552   1.301 -1.8709 -1.1369 -1.0806
13364TIP3   OH261506   3.388   6.653  10.486 -0.3619 -0.1255 -0.2397
13364TIP3    H161507   3.389   6.565  10.449  2.8472 -1.2999  2.1718
13364TIP3    H261508   3.460   6.698  10.442 -0.2049  0.3520  0.4869
13365TIP3   OH261509   4.569   2.939   5.688 -0.0168 -0.4389  0.5135
13365TIP3    H161510   4.486   2.984   5.672  0.1993 -0.2108 -0.0165
13365TIP3    H261511   4.610   2.988   5.758 -0.0826 -0.2117  0.3942
13366TIP3   OH261512   5.167   6.780   4.973  0.1505 -0.8302  0.4456
13366TIP3    H161513   5.144   6.816   5.058  0.6594 -0.7105  0.5348
13366TIP3    H261514   5.093   6.801   4.917  0.9620  1.5073  0.1582
13367TIP3   OH261515   0.912   1.363   1.572  0.0352  0.7564  0.4225
13367TIP3    H161516   0.901   1.368   1.667  0.8747  2.1099  0.4617
13367TIP3    H261517   0.824   1.341   1.540 -0.1183 -0.4590  1.5318
13368TIP3   OH261518   4.821   6.079  16.577 -0.0256 -0.0760  0.3216
13368TIP3    H161519   4.852   6.027  16.651 -0.4324  1.1085  1.3483
13368TIP3    H261520   4.849   6.169  16.597  0.5980  0.1542 -1.3730
13369TIP3   OH261521   3.754   0.134   5.820  0.2139  0.0916  0.0564
13369TIP3    H161522   3.740   0.052   5.868  0.2105  0.2661  0.3624
13369TIP3    H261523   3.802   0.189   5.882  0.5740  0.1742 -0.3000
13370TIP3   OH261524   3.814   4.252   4.528  0.4200 -0.1003  0.2885
13370TIP3    H161525   3.852   4.330   4.569 -0.5002  0.4000  0.2123
13370TIP3    H261526   3.863   4.241   4.447 -0.7366  1.5849 -0.6956
13371TIP3   OH261527   0.965   3.880   3.378 -0.0817 -0.4389 -0.6819
13371TIP3    H161528   0.906   3.809   3.403 -0.9211  0.0430 -1.2361
13371TIP3    H261529   1.047   3.836   3.355 -1.0973 -1.4482 -2.6808
13372TIP3   OH261530   0.788   6.510   4.750 -0.1550 -0.0199 -0.1361
13372TIP3    H161531   0.797   6.417   4.771  0.1952  0.2073  0.7645
13372TIP3    H261532   0.695   6.522   4.732 -0.1150 -0.6502 -0.7900
13373TIP3   OH261533   3.678   0.796  14.660  0.3001 -0.1564 -0.1321
13373TIP3    H161534   3.592   0.819  14.695 -0.0933 -1.9512  0.1968
13373TIP3    H261535   3.739   0.813  14.732  0.2524  1.1154 -0.3643
13374TIP3   OH261536   3.011   2.846  17.068  0.2053  0.1762 -0.4021
13374TIP3    H161537   2.970   2.905  17.006 -1.0292  1.2357  1.3221
13374TIP3    H261538   3.069   2.902  17.120  0.2890 -0.4458  0.1932
13375TIP3   OH261539   2.968   0.641  12.943  0.1845 -0.1371  0.1083
13375TIP3    H161540   2.928   0.706  12.885 -0.5667 -1.6298 -1.1219
13375TIP3    H261541   3.056   0.674  12.960 -0.1597  1.1630 -0.5148
13376TIP3   OH261542   2.136   0.689   3.891  0.3209 -0.5134  0.1947
13376TIP3    H161543   2.090   0.605   3.892  2.1654 -1.5995  0.1539
13376TIP3    H261544   2.157   0.705   3.983  0.6205 -0.5111  0.1298
13377TIP3   OH261545   5.808   4.859   5.901  0.5524  0.4839  0.1274
13377TIP3    H161546   5.813   4.766   5.926 -1.1706  0.2642 -0.2702
13377TIP3    H261547   5.895   4.878   5.866  1.2032 -0.7481  0.9696
13378TIP3   OH261548   2.568   1.525  16.689 -0.4317  0.5198 -0.0484
13378TIP3    H161549   2.501   1.553  16.627 -0.0312  0.5758 -0.4637
13378TIP3    H261550   2.634   1.481  16.634 -0.1358  0.4573  0.3557
13379TIP3   OH261551   2.435   5.955  11.181  0.6158 -0.1151  0.2596
13379TIP3    H161552   2.527   5.977  11.174  0.5526  1.1172  2.4201
13379TIP3    H261553   2.402   5.957  11.091  2.3269  1.0667 -0.3774
13380TIP3   OH261554   5.402   4.672  12.293 -0.3705  0.4043  0.0267
13380TIP3    H161555   5.439   4.737  12.233 -3.4101  0.9557 -1.4765
13380TIP3    H261556   5.418   4.707  12.380  1.2182  1.3069 -0.5936
13381TIP3   OH261557   4.841   2.864  12.359 -0.2043  0.1049  0.4425
13381TIP3    H161558   4.874   2.781  12.324 -1.8426 -0.0376 -0.8612
13381TIP3    H261559   4.920   2.909  12.391  1.1502 -0.5714 -1.7251
13382TIP3   OH261560   5.551   0.041  11.402  0.2727  0.0335  0.0814
13382TIP3    H161561   5.471   0.067  11.449  0.0201  1.3633 -1.0078
13382TIP3    H261562   5.546  -0.054  11.397  0.9181 -0.3334  3.7638
13383TIP3   OH261563   3.937   0.891  16.235  0.3452 -0.2299  0.2727
13383TIP3    H161564   4.030   0.906  16.255  0.2347 -0.2560  0.8351
13383TIP3    H261565   3.938   0.813  16.180  0.6777 -0.0726  0.0478
13384TIP3   OH261566   4.093   4.091  16.104  0.3639  0.2868  0.0948
13384TIP3    H161567   4.041   4.012  16.089  0.2469  0.0476  1.6044
13384TIP3    H261568   4.126   4.115  16.018  0.2130 -1.2793 -0.4214
13385TIP3   OH261569   6.653   5.690  12.421 -0.5039 -0.2464 -0.1492
13385TIP3    H161570   6.622   5.777  12.394  1.5750  1.1515  1.5555
13385TIP3    H261571   6.716   5.666  12.353 -2.2510 -1.2591 -1.4963
13386TIP3   OH261572   4.948   5.829   0.589  0.2262  0.0414  0.7431
13386TIP3    H161573   4.872   5.843   0.647  0.8822 -1.0443  1.9158
13386TIP3    H261574   5.020   5.873   0.634  0.3338  1.0375 -0.3502
13387TIP3   OH261575   0.660   1.975  16.261 -0.3980  0.3454 -0.3626
13387TIP3    H161576   0.724   1.952  16.193 -1.1567 -0.3587 -0.8701
13387TIP3    H261577   0.712   1.990  16.340  0.5559  1.6450 -1.1886
13388TIP3   OH261578   2.488   0.868   2.466 -0.3228  0.7382 -0.4239
13388TIP3    H161579   2.434   0.789   2.476  0.2795  0.4781  1.0081
13388TIP3    H261580   2.478   0.914   2.549  2.1069  0.3824  0.1301
13389TIP3   OH261581   0.122   5.228  13.035 -0.8179  0.7066  0.4382
13389TIP3    H161582   0.212   5.239  13.004 -1.0630  0.0392 -0.5744
13389TIP3    H261583   0.119   5.276  13.118  0.4328  0.8374  0.4313
13390TIP3   OH261584   5.808   4.849   4.066 -0.3500  0.3823 -0.4056
13390TIP3    H161585   5.881   4.796   4.033  0.5474  0.3979  1.4651
13390TIP3    H261586   5.840   4.939   4.063 -0.1706  0.3623  0.6814
13391TIP3   OH261587   0.938   1.060  14.716  0.1758  0.0592 -0.2808
13391TIP3    H161588   0.949   1.091  14.806 -0.9528 -2.5035  0.8369
13391TIP3    H261589   0.927   1.140  14.665  0.9545  1.6078  1.8148
13392TIP3   OH261590   2.807   2.368  16.033  0.4834  0.1728  0.5769
13392TIP3    H161591   2.760   2.301  16.084 -0.7972  1.0414  0.5698
13392TIP3    H261592   2.801   2.447  16.086  1.2931  0.4912  0.2092
13393TIP3   OH261593   5.176   1.542  14.903  0.0452  0.1753  0.4634
13393TIP3    H161594   5.142   1.539  14.814 -1.2866  1.6875  0.8627
13393TIP3    H261595   5.182   1.635  14.923  1.2173 -0.1241  1.6446
13394TIP3   OH261596   3.921   3.869  16.049  0.1046  0.2473  0.3059
13394TIP3    H161597   3.862   3.838  16.117  0.5373 -0.2074  0.4867
13394TIP3    H261598   3.946   3.790  16.001  1.6209  0.2072  1.0881
13395TIP3   OH261599   0.232   5.539   3.428 -0.5206 -0.0202 -0.0821
13395TIP3    H161600   0.236   5.485   3.349 -1.2005 -0.3307  0.0901
13395TIP3    H261601   0.239   5.477   3.500 -1.8418  0.0509  0.1239
13396TIP3   OH261602   2.427   5.968   2.267 -0.1803  0.5789  0.0617
13396TIP3    H161603   2.475   5.887   2.249 -2.0105 -0.5640 -0.0154
13396TIP3    H261604   2.415   5.968   2.362 -1.9266 -0.3554 -0.1184
13397TIP3   OH261605   6.705   6.049  15.383 -0.2050 -0.1036  0.0308
13397TIP3    H161606   6.653   6.117  15.427 -1.3642 -0.0430 -1.3660
13397TIP3    H261607   6.711   6.078  15.293 -0.6408 -1.7974 -0.5863
13398TIP3   OH261608   6.089   1.009   1.920  0.5623 -0.4858 -0.7333
13398TIP3    H161609   6.056   0.919   1.921  0.6233 -0.5044 -0.5251
13398TIP3    H261610   6.011   1.062   1.900  0.6058 -0.6176 -1.2886
13399TIP3   OH261611   2.574   6.187  15.687  0.1342  0.0053  0.1336
13399TIP3    H161612   2.485   6.168  15.716  0.2871 -2.1989 -0.6376
13399TIP3    H261613   2.615   6.101  15.679  1.6908  0.8373 -1.5153
13400TIP3   OH261614   0.386   4.714   5.011 -0.0212 -0.0168 -0.0673
13400TIP3    H161615   0.295   4.739   4.994 -0.2545 -0.8685 -0.1538
13400TIP3    H261616   0.422   4.694   4.925  0.8326  2.0994 -0.2537
13401TIP3   OH261617   4.879   0.409   0.565  0.2231 -0.6812  0.5630
13401TIP3    H161618   4.883   0.504   0.568 -0.3917 -0.5013 -2.1090
13401TIP3    H261619   4.822   0.385   0.639 -0.7458  1.1092  0.4513
13402TIP3   OH261620   6.060   0.763   1.126  0.3629  0.5798  0.0435
13402TIP3    H161621   5.997   0.823   1.087  0.9695  0.4402 -1.1867
13402TIP3    H261622   6.036   0.677   1.091 -0.2045  0.1525  1.4128
13403TIP3   OH261623   3.477   1.373   2.957 -0.6926  0.1204 -0.1949
13403TIP3    H161624   3.529   1.359   3.036 -1.3369  0.5448  0.3150
13403TIP3    H261625   3.421   1.448   2.978 -2.5936 -1.2486 -0.1603
13404TIP3   OH261626   0.504   2.996   3.790 -0.4511 -0.2116 -0.0215
13404TIP3    H161627   0.414   3.011   3.762 -0.2177  2.8339  0.5029
13404TIP3    H261628   0.502   3.009   3.885  0.4299 -0.7981  0.0830
13405TIP3   OH261629   3.937   6.477  14.712 -0.6260 -0.1293  0.3920
13405TIP3    H161630   3.881   6.450  14.639  0.8368  1.5196 -1.4524
13405TIP3    H261631   3.990   6.548  14.677  0.0346  0.8777  3.1636
13406TIP3   OH261632   1.867   3.287   4.754  0.1814 -0.9713 -0.3328
13406TIP3    H161633   1.861   3.278   4.659  0.4491 -0.0424 -0.4526
13406TIP3    H261634   1.888   3.380   4.767 -0.3579 -0.9822  0.6537
13407TIP3   OH261635   2.348   3.810  12.499  0.3283  0.5726 -0.6174
13407TIP3    H161636   2.368   3.836  12.409  2.0461  1.3607 -0.0625
13407TIP3    H261637   2.253   3.822  12.507  0.5654  4.1580 -1.2667
13408TIP3   OH261638   0.366   2.270  15.200 -0.0798 -0.2519  0.4070
13408TIP3    H161639   0.328   2.267  15.288  1.0915 -3.4533  0.9435
13408TIP3    H261640   0.297   2.306  15.145 -1.1595  1.0230  2.4775
13409TIP3   OH261641   0.290   0.933  14.702  0.0392 -0.6692 -0.4992
13409TIP3    H161642   0.276   0.847  14.663 -0.7950 -0.0867 -1.5556
13409TIP3    H261643   0.313   0.916  14.793 -2.7118 -1.9577  0.0614
13410TIP3   OH261644   5.078   4.735   0.847  0.2465 -0.4634 -0.1416
13410TIP3    H161645   5.044   4.761   0.933 -1.0732 -3.1790  0.2719
13410TIP3    H261646   5.157   4.787   0.836 -1.1564  2.1940  1.3166
13411TIP3   OH261647   5.206   1.299  16.325 -0.3908 -0.5813  0.4178
13411TIP3    H161648   5.199   1.266  16.235  0.4457  0.6050 -0.1123
13411TIP3    H261649   5.244   1.226  16.373 -2.4999 -1.8767  0.2394
13412TIP3   OH261650   4.446   5.293   4.996  1.0135  0.1825 -0.7191
13412TIP3    H161651   4.472   5.383   5.015 -5.3176  2.4787 -0.4773
13412TIP3    H261652   4.469   5.245   5.076  0.0293  2.9379  1.4239
13413TIP3   OH261653   4.975   6.549  16.973 -0.1976  0.6146 -0.6466
13413TIP3    H161654   5.054   6.510  17.010 -0.3802 -0.5419 -1.4410
13413TIP3    H261655   4.954   6.494  16.898 -2.6268 -0.0358  0.4144
13414TIP3   OH261656   4.990   1.491   1.096  0.0956 -0.7069 -0.4408
13414TIP3    H161657   4.996   1.445   1.012 -1.6435 -0.4731 -0.7342
13414TIP3    H261658   4.960   1.579   1.073  0.3989 -0.3880  0.3637
13415TIP3   OH261659   4.777   6.288   1.070 -0.1218 -0.0662 -0.1281
13415TIP3    H161660   4.727   6.342   1.009  0.5661 -1.2650 -1.8474
13415TIP3    H261661   4.713   6.262   1.136 -0.0784  4.2659  1.9187
13416TIP3   OH261662   2.976   5.029   6.501 -0.4956 -0.1495  0.7441
13416TIP3    H161663   2.896   4.998   6.544 -1.0245  0.1908  0.0176
13416TIP3    H261664   3.006   5.101   6.555 -0.0115 -1.0255  1.6843
13417TIP3   OH261665   2.000   0.503   3.166  0.7075 -0.3167 -0.4001
13417TIP3    H161666   1.944   0.578   3.147  1.0568  0.4014  1.2506
13417TIP3    H261667   1.939   0.432   3.188  0.4169 -0.0985 -0.5073
13418TIP3   OH261668   2.892   0.393  12.888  0.4788  0.0362  0.1287
13418TIP3    H161669   2.919   0.476  12.928  1.3191 -0.3721  0.4357
13418TIP3    H261670   2.969   0.337  12.895  0.0795 -0.6137 -0.5225
13419TIP3   OH261671   5.356   2.303  11.954  0.5062 -0.0804  0.5059
13419TIP3    H161672   5.440   2.298  11.908  0.5735  1.9544  0.3177
13419TIP3    H261673   5.290   2.305  11.884  0.5309  1.5654  0.4740
13420TIP3   OH261674   3.088   6.406   5.849 -0.3034  0.2353 -0.5168
13420TIP3    H161675   3.030   6.483   5.857 -1.5889 -0.6395 -1.0753
13420TIP3    H261676   3.091   6.370   5.937 -1.8239 -0.5376 -0.7555
13421TIP3   OH261677   4.141   3.835  16.877 -0.8844 -0.4162  0.1728
13421TIP3    H161678   4.207   3.848  16.808 -0.6975  0.3525  0.4809
13421TIP3    H261679   4.104   3.749  16.859 -0.9802 -0.1408 -1.0032
13422TIP3   OH261680   5.533   1.409  16.521  0.0896  0.3851 -0.0900
13422TIP3    H161681   5.602   1.410  16.455  0.6017 -1.1723  0.3990
13422TIP3    H261682   5.454   1.433  16.473  0.5307 -0.2912 -1.1902
13423TIP3   OH261683   5.538   0.865  16.152  0.1502 -0.2615  0.0930
13423TIP3    H161684   5.513   0.793  16.094  2.7382 -0.8689 -0.3875
13423TIP3    H261685   5.563   0.935  16.093  1.3595 -0.3512  0.4802
13424TIP3   OH261686   5.310   1.663   1.118 -0.2010  0.4443  0.0315
13424TIP3    H161687   5.365   1.715   1.176 -0.3676  0.7273 -0.0612
13424TIP3    H261688   5.251   1.727   1.078 -1.6484 -0.0362  1.2827
13425TIP3   OH261689   4.815   2.987  13.458 -0.1351 -0.2456  0.0820
13425TIP3    H161690   4.887   2.947  13.506  0.5048  0.8132  0.0392
13425TIP3    H261691   4.812   3.078  13.489 -2.0694 -0.4852  0.7726
13426TIP3   OH261692   1.299   6.332   4.010  0.2397 -0.0918 -0.2312
13426TIP3    H161693   1.315   6.263   4.075  2.1430 -0.1863 -0.7236
13426TIP3    H261694   1.276   6.409   4.062 -0.9537 -0.8298  0.3787
13427TIP3   OH261695   2.234   5.643   3.262 -0.4501  0.6279  0.2055
13427TIP3    H161696   2.233   5.668   3.170  0.1944 -1.5783 -0.4532
13427TIP3    H261697   2.283   5.713   3.305  2.4408 -0.0558 -1.7325
13428TIP3   OH261698   5.603   4.314  10.344  0.6977 -0.5035 -0.3204
13428TIP3    H161699   5.527   4.275  10.302  1.0187  0.2260 -1.6402
13428TIP3    H261700   5.583   4.408  10.350  1.4296 -0.3187 -0.5733
13429TIP3   OH261701   3.917   0.039  13.658  0.3765 -0.2275  0.1747
13429TIP3    H161702   3.830   0.055  13.622  0.4261 -2.0087 -0.8418
13429TIP3    H261703   3.977   0.075  13.592  0.4185 -0.9097 -0.1727
13430TIP3   OH261704   4.089   3.125   2.073  0.0590 -0.0826  0.6917
13430TIP3    H161705   4.032   3.178   2.129 -0.1511 -0.6439  1.0176
13430TIP3    H261706   4.042   3.118   1.990  0.8659  1.6808  0.0289
13431TIP3   OH261707   6.780   3.642   5.561 -0.3753 -0.0713  0.0843
13431TIP3    H161708   6.691   3.618   5.536 -0.4375  0.2643 -0.0298
13431TIP3    H261709   6.809   3.571   5.618 -0.5322 -0.4341 -0.2854
13432TIP3   OH261710   4.218   5.147   0.116 -0.5030  0.0076  0.1702
13432TIP3    H161711   4.278   5.184   0.052  0.2206  1.0751  1.4010
13432TIP3    H261712   4.137   5.197   0.104 -1.1820 -1.3947 -1.4526
13433TIP3   OH261713   5.104   4.540  11.198  0.7384 -0.2952  0.4641
13433TIP3    H161714   5.175   4.600  11.174  0.5406 -0.7132 -1.3636
13433TIP3    H261715   5.025   4.594  11.193  0.9281  0.4982  3.7206
13434TIP3   OH261716   1.246   3.439   2.908  0.8162  0.0328  0.7544
13434TIP3    H161717   1.263   3.353   2.948 -0.3468  0.1073  1.4685
13434TIP3    H261718   1.216   3.494   2.981 -0.1388  0.5386  0.0116
13435TIP3   OH261719   2.749   5.534   2.276  0.2722  0.7155  0.3701
13435TIP3    H161720   2.798   5.487   2.343  1.1950 -0.1901 -0.8951
13435TIP3    H261721   2.669   5.482   2.263  1.0860 -0.3206 -0.7125
13436TIP3   OH261722   2.783   1.967   5.790  0.4503  0.4075  0.0483
13436TIP3    H161723   2.849   1.954   5.722  1.6803  1.0475  1.0770
13436TIP3    H261724   2.824   1.933   5.870 -0.4374  0.8832  0.7273
13437TIP3   OH261725   1.489   1.171   4.809 -0.0417 -0.0638  0.3074
13437TIP3    H161726   1.413   1.224   4.832 -1.0788 -0.3041 -2.2581
13437TIP3    H261727   1.551   1.185   4.881 -2.0649  0.9775  1.9372
13438TIP3   OH261728   2.229   1.981   5.458  0.6256 -0.3069 -0.1152
13438TIP3    H161729   2.242   2.053   5.519 -0.2935 -0.4665  0.2814
13438TIP3    H261730   2.313   1.973   5.413  0.8012  0.8779 -0.0354
13439TIP3   OH261731   5.666   5.251  16.268 -0.0240 -0.4395  0.2558
13439TIP3    H161732   5.596   5.317  16.273  0.1386 -0.2611  0.2074
13439TIP3    H261733   5.702   5.247  16.356 -0.0104 -0.4391  0.2500
13440TIP3   OH261734   5.403   1.584  14.301  0.0117  0.4397  0.1079
13440TIP3    H161735   5.466   1.655  14.290 -0.6648  0.9918 -0.2274
13440TIP3    H261736   5.339   1.618  14.364  1.3871 -1.0378  2.4663
13441TIP3   OH261737   4.815   2.047   3.449  0.2724 -0.0110  0.3712
13441TIP3    H161738   4.877   1.994   3.399  0.9712  0.7238  0.4170
13441TIP3    H261739   4.847   2.137   3.437 -0.6479  0.3547  0.6086
13442TIP3   OH261740   5.194   1.292   3.389  0.2604 -0.1541 -0.3536
13442TIP3    H161741   5.144   1.221   3.428  1.5056 -0.6372  0.4280
13442TIP3    H261742   5.135   1.368   3.393 -0.6744 -0.8711 -0.1715
13443TIP3   OH261743   1.603   0.510  14.986 -0.2146 -1.0118  0.3290
13443TIP3    H161744   1.696   0.498  15.006  0.1176 -1.1968 -1.1858
13443TIP3    H261745   1.602   0.564  14.907 -1.4088 -0.8487  0.4294
13444TIP3   OH261746   1.350   3.196   3.038 -0.2570  0.3564 -0.3975
13444TIP3    H161747   1.315   3.107   3.045  0.8028 -0.2744 -2.1999
13444TIP3    H261748   1.431   3.194   3.089 -0.0045  0.1176 -0.7927
13445TIP3   OH261749   6.013   6.077  14.559  0.7399 -0.2404  0.4788
13445TIP3    H161750   5.928   6.119  14.570  1.1816  0.5547  0.9363
13445TIP3    H261751   5.996   6.003  14.501  0.1895  1.3713 -1.5258
13446TIP3   OH261752   2.593   4.760   1.597 -0.1659 -0.8311 -0.4121
13446TIP3    H161753   2.528   4.823   1.630 -1.2389 -2.6720  1.1743
13446TIP3    H261754   2.541   4.691   1.557  0.9121 -1.5350 -0.6310
13447TIP3   OH261755   6.788   3.431   1.269 -0.0500 -0.3040 -0.0505
13447TIP3    H161756   6.830   3.346   1.255  0.3531 -0.0539 -0.4101
13447TIP3    H261757   6.855   3.495   1.243 -0.0689  0.1465  0.9571
13448TIP3   OH261758   2.433   4.871   2.065  0.6639  0.1007 -0.2468
13448TIP3    H161759   2.383   4.793   2.043  0.4268  0.5029 -1.1871
13448TIP3    H261760   2.521   4.854   2.030  0.6130  0.2450 -0.4494
13449TIP3   OH261761   1.588   5.495  15.950  0.4269  0.0644 -0.1290
13449TIP3    H161762   1.654   5.434  15.916  0.1383 -0.2307 -0.1687
13449TIP3    H261763   1.633   5.542  16.020 -0.2656 -2.6064  2.3419
13450TIP3   OH261764   3.351   4.800  13.394 -0.0029 -0.7280  0.0627
13450TIP3    H161765   3.431   4.792  13.445 -0.5218  0.3019  1.0720
13450TIP3    H261766   3.380   4.833  13.308  0.7594 -1.4740  0.0172
13451TIP3   OH261767   2.096   6.093   4.569  0.1883 -0.9996 -0.2741
13451TIP3    H161768   2.047   6.092   4.651  0.3888 -0.7602 -0.1512
13451TIP3    H261769   2.030   6.079   4.501 -0.0713 -0.5169 -0.1215
13452TIP3   OH261770   1.204   2.038  15.621 -0.1981  0.7261 -0.0579
13452TIP3    H161771   1.115   2.026  15.588 -1.0199  0.3164  2.1517
13452TIP3    H261772   1.199   2.017  15.714  2.1414  1.0850  0.2251
13453TIP3   OH261773   4.443   0.558  16.143  0.2417  0.3540  0.2059
13453TIP3    H161774   4.348   0.565  16.135  0.1250 -0.1704  1.0978
13453TIP3    H261775   4.459   0.466  16.165  0.9646  0.4131 -0.0485
13454TIP3   OH261776   0.551   0.986  15.924  0.0804 -0.1819 -0.2875
13454TIP3    H161777   0.476   0.933  15.897  1.2898 -2.0490 -0.1763
13454TIP3    H261778   0.513   1.058  15.975 -1.6754 -0.5968 -0.9352
13455TIP3   OH261779   4.158   0.809  13.147 -0.0779  0.1318 -0.1796
13455TIP3    H161780   4.179   0.873  13.215 -1.4395  0.5320 -0.1031
13455TIP3    H261781   4.144   0.862  13.068 -1.5718 -0.0026 -0.0355
13456TIP3   OH261782   3.188   5.231  16.970 -0.5639 -0.0260 -0.4475
13456TIP3    H161783   3.229   5.264  17.049 -1.4839  2.7295 -0.9966
13456TIP3    H261784   3.181   5.137  16.983  0.5754  0.1811  2.1121
13457TIP3   OH261785   3.180   3.107   3.008  0.9072 -0.3929  0.1853
13457TIP3    H161786   3.151   3.017   2.995  0.1651 -0.0969 -0.2936
13457TIP3    H261787   3.145   3.131   3.095  1.1508 -0.5832  0.3352
13458TIP3   OH261788   0.024   6.723  12.835 -0.3396  0.2815 -0.6922
13458TIP3    H161789   0.055   6.645  12.790 -1.8844 -0.5300 -0.4224
13458TIP3    H261790  -0.068   6.730  12.809 -0.5642  1.2665  0.3129
13459TIP3   OH261791   6.643   5.938  16.819  0.6320 -0.5421 -0.0952
13459TIP3    H161792   6.699   5.889  16.758 -0.3061 -0.8698 -0.7208
13459TIP3    H261793   6.627   6.021  16.774 -0.6130 -1.0456 -0.6378
13460TIP3   OH261794   3.850   6.754   5.625 -0.0059 -0.2257 -0.5147
13460TIP3    H161795   3.943   6.770   5.641 -0.2236 -0.2412  0.8642
13460TIP3    H261796   3.809   6.840   5.636 -0.3770 -0.5405  0.7752
13461TIP3   OH261797   1.639   0.814   3.374  0.7257  0.6817 -0.6746
13461TIP3    H161798   1.657   0.906   3.357  0.4820  1.2068  1.5338
13461TIP3    H261799   1.546   0.812   3.397  1.0205  0.1412  0.5787
13462TIP3   OH261800   4.644   6.502   4.314 -0.1122 -0.0431  0.0058
13462TIP3    H161801   4.553   6.485   4.338 -0.3259  0.0081 -0.7614
13462TIP3    H261802   4.668   6.581   4.363 -1.8450  2.5522 -2.9914
13463TIP3   OH261803   0.142   1.921   1.157  0.2815 -0.4196  0.3676
13463TIP3    H161804   0.167   1.836   1.120 -2.1653 -0.0452 -2.4725
13463TIP3    H261805   0.048   1.928   1.140  0.0627  2.1454  2.1057
13464TIP3   OH261806   3.763   3.317  13.801 -0.3844 -0.0722 -0.1743
13464TIP3    H161807   3.757   3.396  13.854  0.8860  1.1867 -1.7961
13464TIP3    H261808   3.857   3.298  13.795 -0.6009 -1.0660 -0.7014
13465TIP3   OH261809   0.442   3.532   0.216 -0.0348 -0.4259 -0.1192
13465TIP3    H161810   0.369   3.568   0.266  1.8841  1.4890  1.4855
13465TIP3    H261811   0.463   3.600   0.152  1.7646  0.0820  0.9630
13466TIP3   OH261812   5.330   4.859  14.737 -0.1145  0.0483  0.3100
13466TIP3    H161813   5.383   4.792  14.781  0.1466 -0.1392 -0.2843
13466TIP3    H261814   5.259   4.809  14.696 -0.4033  0.2337  0.5786
13467TIP3   OH261815   0.338   1.886   5.398 -0.5905  0.1909 -0.7670
13467TIP3    H161816   0.272   1.952   5.380  0.9197  1.8526 -0.4806
13467TIP3    H261817   0.416   1.917   5.352  0.5245 -0.7246  0.4398
13468TIP3   OH261818   6.738   0.465   4.583  0.5226  0.4001  0.2037
13468TIP3    H161819   6.720   0.406   4.655  0.4742  0.0630 -0.0815
13468TIP3    H261820   6.810   0.424   4.535  0.5014  0.5769  0.0150
13469TIP3   OH261821   3.306   2.721  11.791  0.2923  0.4660 -0.4300
13469TIP3    H161822   3.337   2.709  11.701  0.8741  3.3569 -0.6925
13469TIP3    H261823   3.213   2.743  11.781  0.5817  1.7375 -0.4232
13470TIP3   OH261824   1.222   5.144   5.019  0.0537  0.2026 -0.2892
13470TIP3    H161825   1.292   5.189   5.067  0.3530  0.2820 -0.7909
13470TIP3    H261826   1.186   5.210   4.961  2.5148 -0.8359 -3.2731
13471TIP3   OH261827   4.001   3.760  13.311  0.2868 -0.0740 -0.2345
13471TIP3    H161828   3.917   3.724  13.339  0.2811  0.3550  0.3180
13471TIP3    H261829   4.064   3.726  13.375  0.2297  1.1449  0.4915
13472TIP3   OH261830   0.994   6.433  15.849 -0.0622 -0.0778  0.0789
13472TIP3    H161831   1.057   6.473  15.789  0.9801 -1.4230  0.2393
13472TIP3    H261832   1.047   6.400  15.921 -1.1291  0.0968  0.9663
13473TIP3   OH261833   1.132   4.457  11.551 -0.3385 -0.5000 -0.0708
13473TIP3    H161834   1.136   4.467  11.456  1.4363 -2.9144 -0.3646
13473TIP3    H261835   1.051   4.502  11.577 -1.1136 -0.1657 -2.7641
13474TIP3   OH261836   6.647   4.631  11.265  0.1951 -0.0054 -0.0597
13474TIP3    H161837   6.581   4.562  11.256  1.2638 -1.1046  0.1537
13474TIP3    H261838   6.633   4.688  11.190 -0.7168 -0.4438 -0.2441
13475TIP3   OH261839   3.982   5.796   3.282 -0.2958  0.0945  0.2689
13475TIP3    H161840   4.012   5.828   3.367 -1.7064  1.1961  0.3957
13475TIP3    H261841   3.902   5.747   3.302 -0.7015  0.4589 -0.4168
13476TIP3   OH261842   4.407   2.279   5.213 -0.0691 -0.1939  0.3115
13476TIP3    H161843   4.385   2.291   5.121  0.2345  0.7467  0.3522
13476TIP3    H261844   4.503   2.283   5.215 -0.0226 -1.1581  0.5486
13477TIP3   OH261845   0.803   5.022   0.998  0.1904  0.6326 -0.6424
13477TIP3    H161846   0.719   4.980   1.017  0.2491  0.4311 -0.8270
13477TIP3    H261847   0.786   5.076   0.920  0.2098  0.6629 -0.6258
13478TIP3   OH261848   5.388   4.219   2.755  0.4624 -0.0116  0.0805
13478TIP3    H161849   5.324   4.224   2.684  0.1117  0.2346  0.4066
13478TIP3    H261850   5.426   4.132   2.748  1.6265  0.5734 -1.4344
13479TIP3   OH261851   3.517   3.844  16.403 -0.0197 -0.9225  0.4630
13479TIP3    H161852   3.557   3.848  16.490 -0.0293 -1.2341  0.4830
13479TIP3    H261853   3.427   3.874  16.416  1.0122  2.9170 -0.1056
13480TIP3   OH261854   3.645   5.372   0.423 -0.1176  0.0861  0.1124
13480TIP3    H161855   3.610   5.292   0.384  0.3379 -0.0501 -0.0302
13480TIP3    H261856   3.739   5.370   0.402  0.2101 -0.1490  1.4914
13481TIP3   OH261857   2.021   2.827  15.034  0.0594  0.6000  0.4170
13481TIP3    H161858   1.975   2.907  15.059  0.2571  0.3400  1.6764
13481TIP3    H261859   1.976   2.757  15.082 -0.3251 -0.1108 -0.9151
13482TIP3   OH261860   4.631   3.957  15.097 -0.4622  0.4309  0.7230
13482TIP3    H161861   4.665   4.042  15.125  1.2299  0.1902 -0.4668
13482TIP3    H261862   4.708   3.908  15.069 -1.6058 -0.7927 -0.4546
13483TIP3   OH261863   1.078   4.056   1.769 -0.5100 -0.6445 -0.4138
13483TIP3    H161864   0.985   4.037   1.767 -0.5317 -0.9688  1.7596
13483TIP3    H261865   1.108   4.023   1.853  0.5714  3.9961  1.3092
13484TIP3   OH261866   2.242   3.807   3.139 -0.0406  0.5482  0.6356
13484TIP3    H161867   2.241   3.870   3.067 -0.6692  0.9251  0.9719
13484TIP3    H261868   2.325   3.761   3.128 -0.2325  0.4373 -0.4650
13485TIP3   OH261869   2.588   2.987   3.435  0.0279 -0.4798 -0.3859
13485TIP3    H161870   2.684   2.982   3.430  0.0308 -0.8693  0.0868
13485TIP3    H261871   2.563   3.023   3.350  0.6761  0.8025 -0.0638
13486TIP3   OH261872   3.057   0.298  16.216  0.0938  0.6583 -0.5758
13486TIP3    H161873   3.040   0.361  16.286 -1.1590 -0.6703  0.3930
13486TIP3    H261874   3.150   0.308  16.196 -0.0421  2.7108 -0.3891
13487TIP3   OH261875   2.000   4.631  16.059  0.4654 -0.2027  0.5260
13487TIP3    H161876   2.029   4.657  15.971 -0.1121  4.5901  1.4466
13487TIP3    H261877   2.078   4.639  16.113 -0.1338  2.1835  1.1892
13488TIP3   OH261878   4.971   6.566   4.799 -0.1899  0.2198  0.2318
13488TIP3    H161879   4.943   6.530   4.883  0.2018  0.1004  0.3167
13488TIP3    H261880   4.942   6.657   4.800 -2.6704 -0.4731 -0.6672
13489TIP3   OH261881   6.209   5.479   1.335 -0.3735  0.1116 -0.0457
13489TIP3    H161882   6.286   5.421   1.338  0.8385  1.5274 -1.4963
13489TIP3    H261883   6.212   5.527   1.418 -0.7915 -1.1471  0.7159
13490TIP3   OH261884   0.560   2.383  11.497 -0.2235 -0.2774 -0.1445
13490TIP3    H161885   0.606   2.427  11.426  0.2576  1.9211  1.4465
13490TIP3    H261886   0.467   2.387  11.472  0.0480 -0.8580 -1.3072
13491TIP3   OH261887   0.239   2.200  13.647  0.3976  0.4459  0.7597
13491TIP3    H161888   0.224   2.110  13.674  0.1379  0.4411  0.6110
13491TIP3    H261889   0.230   2.198  13.551 -0.3741  0.7601  0.8112
13492TIP3   OH261890   0.449   4.624   1.055  0.5010  0.4314 -0.7096
13492TIP3    H161891   0.464   4.566   1.130  0.0240  0.9147 -0.2329
13492TIP3    H261892   0.466   4.569   0.979  0.1147 -0.3306 -0.2642
13493TIP3   OH261893   0.407   0.667  14.361 -0.2886  0.1604 -0.2408
13493TIP3    H161894   0.438   0.728  14.429 -0.5170  0.5570 -0.4943
13493TIP3    H261895   0.350   0.607  14.408  0.3088 -0.1491  0.1001
13494TIP3   OH261896   2.163   0.601  14.058  0.1048 -0.0736 -0.3876
13494TIP3    H161897   2.075   0.577  14.031  0.2680 -0.2821 -0.7346
13494TIP3    H261898   2.221   0.546  14.005  0.4212 -0.6955  0.5849
13495TIP3   OH261899   0.564   5.060  12.993  0.0969 -0.5730 -0.1747
13495TIP3    H161900   0.563   5.090  13.084  0.2378 -0.4891 -0.2009
13495TIP3    H261901   0.575   4.965  12.999 -2.6516 -0.9655 -0.0076
13496TIP3   OH261902   3.328   6.521   5.697  0.2004  0.1781  0.3851
13496TIP3    H161903   3.294   6.609   5.713  0.1628  0.3028 -0.3454
13496TIP3    H261904   3.265   6.463   5.741 -0.4184  0.4576 -0.1200
13497TIP3   OH261905   0.413   0.551  15.574  0.1019 -0.1098  0.0306
13497TIP3    H161906   0.437   0.483  15.638 -1.7783  0.6565  1.6481
13497TIP3    H261907   0.484   0.615  15.581  1.9205 -1.7806 -1.5321
13498TIP3   OH261908   6.318   2.899   3.107  0.0302  0.2394 -0.1319
13498TIP3    H161909   6.353   2.958   3.174  0.1602 -1.2629  1.1609
13498TIP3    H261910   6.394   2.854   3.072  0.4400  3.1317 -3.6187
13499TIP3   OH261911   1.289   4.246   2.136 -0.1575 -0.3385 -0.8770
13499TIP3    H161912   1.349   4.186   2.091 -0.0153 -0.3836 -0.6330
13499TIP3    H261913   1.209   4.244   2.084  0.1837  0.0198 -1.4319
13500TIP3   OH261914   2.441   1.775  16.987  0.3283  0.3039  0.3578
13500TIP3    H161915   2.476   1.841  16.927  2.9823 -0.4971  0.9137
13500TIP3    H261916   2.439   1.819  17.072 -0.2765  0.4076  0.2967
13501TIP3   OH261917   4.846   2.897  11.894 -0.2651 -0.2873  0.8686
13501TIP3    H161918   4.826   2.806  11.916 -0.3515 -0.2243  1.0483
13501TIP3    H261919   4.925   2.917  11.945  1.2187 -1.0279 -1.0078
13502TIP3   OH261920   2.784   0.943   1.657  0.1497  0.2583 -0.0492
13502TIP3    H161921   2.738   0.935   1.740 -2.9923 -0.9290 -1.7275
13502TIP3    H261922   2.867   0.898   1.671 -0.4985 -0.3395  2.2800
13503TIP3   OH261923   1.722   3.265  15.365  0.0496  0.1923  0.2114
13503TIP3    H161924   1.731   3.306  15.279 -1.5314  0.5946  0.2047
13503TIP3    H261925   1.789   3.197  15.366  1.3055  1.3649 -0.6138
13504TIP3   OH261926   5.882   5.914   5.346  0.3631 -0.8262 -0.7018
13504TIP3    H161927   5.951   5.931   5.411 -1.5980 -0.6030  1.4728
13504TIP3    H261928   5.901   5.975   5.275  0.4106  1.9207  1.4744
13505TIP3   OH261929   6.603   0.698   1.929 -0.1646  0.2924  0.1933
13505TIP3    H161930   6.602   0.628   1.994 -0.2056  0.2960  0.1965
13505TIP3    H261931   6.519   0.743   1.940 -0.9006 -0.7264 -0.9572
13506TIP3   OH261932   2.438   2.357   3.770 -0.1674  0.3551  1.0296
13506TIP3    H161933   2.473   2.404   3.695 -0.6907 -0.4880  0.2350
13506TIP3    H261934   2.496   2.380   3.842  0.2075  1.3637  0.4223
13507TIP3   OH261935   5.441   3.963  16.269  0.1553 -0.1247  0.2383
13507TIP3    H161936   5.444   4.058  16.257  1.9540 -0.1189  0.4986
13507TIP3    H261937   5.444   3.928  16.179 -1.8896  0.0304  0.0576
13508TIP3   OH261938   0.768   6.148  16.094 -0.2966 -0.0404 -0.3634
13508TIP3    H161939   0.723   6.132  16.177  0.8916  0.0727  0.3295
13508TIP3    H261940   0.792   6.241  16.098 -2.7306  0.7719 -2.1346
13509TIP3   OH261941   1.780   1.021  11.039 -1.0005 -0.2520 -0.4762
13509TIP3    H161942   1.822   1.107  11.041  0.4743 -0.7476 -3.6153
13509TIP3    H261943   1.849   0.962  11.009 -2.0208 -2.5530  1.3866
13510TIP3   OH261944   6.738   5.818  12.798 -0.3538 -0.2113 -0.6691
13510TIP3    H161945   6.744   5.737  12.850 -0.9407  0.9762  1.3457
13510TIP3    H261946   6.828   5.851  12.796 -0.2104 -0.6093 -1.0113
13511TIP3   OH261947   2.981   4.228   1.284  0.2120  1.2717  0.0338
13511TIP3    H161948   2.936   4.156   1.239  1.5077  0.1623  0.4453
13511TIP3    H261949   2.911   4.289   1.306 -1.2472 -0.7098  1.2834
13512TIP3   OH261950   2.890   3.403  16.447 -0.5468  0.3899 -0.5883
13512TIP3    H161951   2.962   3.368  16.394  0.3841  0.8999  0.2968
13512TIP3    H261952   2.817   3.412  16.386 -0.2072 -1.1844 -1.2727
13513TIP3   OH261953   1.367   2.629  13.481 -0.0779  0.0280 -0.6600
13513TIP3    H161954   1.397   2.646  13.392 -0.1964  0.7810 -0.5566
13513TIP3    H261955   1.347   2.535  13.482 -3.0745  0.5169 -2.3466
13514TIP3   OH261956   2.845   0.226  12.496  0.1369  0.5219 -0.2066
13514TIP3    H161957   2.813   0.297  12.551 -0.1761 -0.1232  0.4678
13514TIP3    H261958   2.842   0.261  12.407 -3.2740  0.2820 -0.3466
13515TIP3   OH261959   4.891   6.222  14.986  0.2024 -0.2909 -0.1542
13515TIP3    H161960   4.953   6.151  14.972  2.4777  1.3945  0.7100
13515TIP3    H261961   4.853   6.206  15.072 -1.9363 -2.2277 -1.3665
13516TIP3   OH261962   5.478   0.122  15.659  0.1247 -0.6468  0.1588
13516TIP3    H161963   5.398   0.161  15.695 -0.8614 -0.6061 -1.9485
13516TIP3    H261964   5.538   0.196  15.648 -0.1757 -0.3980  0.1733
13517TIP3   OH261965   0.243   4.520  16.814 -0.4304 -1.0966  0.1169
13517TIP3    H161966   0.300   4.443  16.817  1.0816 -0.0248  2.2847
13517TIP3    H261967   0.269   4.565  16.733 -0.6236 -2.3201 -0.6549
13518TIP3   OH261968   1.507   5.070  11.548  0.0883 -0.3297  0.6031
13518TIP3    H161969   1.492   5.093  11.640  1.5621  0.5216  0.6764
13518TIP3    H261970   1.444   5.124  11.500  1.6419  1.9850  0.9533
13519TIP3   OH261971   2.244   1.209   0.192 -0.2308 -0.7216  0.1917
13519TIP3    H161972   2.150   1.219   0.181  0.1637  1.0234 -2.4569
13519TIP3    H261973   2.273   1.292   0.231  0.2753 -1.1038  0.6550
13520TIP3   OH261974   1.895   5.527  14.428  0.0404  0.2851  0.5242
13520TIP3    H161975   1.835   5.523  14.353 -0.6620  1.6683  0.9860
13520TIP3    H261976   1.884   5.443  14.472 -0.7875  0.1151  0.0178
13521TIP3   OH261977   3.507   6.247  13.542 -0.0456 -0.3340  0.0644
13521TIP3    H161978   3.528   6.159  13.510  2.0648 -0.1553  0.8062
13521TIP3    H261979   3.421   6.266  13.505  1.7240 -0.4849 -4.7681
13522TIP3   OH261980   1.377   5.059   1.712  0.1659 -0.2527 -0.7904
13522TIP3    H161981   1.376   5.134   1.771  0.0266  0.0163 -1.1301
13522TIP3    H261982   1.398   5.096   1.627 -0.7769 -0.4640 -1.1289
13523TIP3   OH261983   5.873   5.730  11.276  0.1143 -0.2146 -0.1680
13523TIP3    H161984   5.927   5.697  11.347  0.5386 -1.1890 -0.9120
13523TIP3    H261985   5.920   5.706  11.196 -0.6201  0.3573 -0.7980
13524TIP3   OH261986   1.135   4.150   3.482 -0.2293 -0.6840  0.1136
13524TIP3    H161987   1.179   4.065   3.476 -1.0849 -1.1130 -0.2905
13524TIP3    H261988   1.068   4.146   3.414 -1.0239 -0.1221  0.8525
13525TIP3   OH261989   0.881   0.448  11.366 -0.1090  0.4376 -0.0875
13525TIP3    H161990   0.871   0.543  11.367  0.4910  0.5378 -1.5462
13525TIP3    H261991   0.968   0.433  11.329 -0.4680 -0.6900 -0.5148
13526TIP3   OH261992   3.138   5.027  11.123  0.2404 -0.1414  0.3736
13526TIP3    H161993   3.179   4.944  11.102 -1.1523 -0.4143 -1.5205
13526TIP3    H261994   3.169   5.087  11.055 -0.8071  0.1673  0.1435
13527TIP3   OH261995   4.557   5.310   2.933  0.2558  0.2845 -0.1140
13527TIP3    H161996   4.636   5.279   2.888  0.0791  0.4865 -0.5784
13527TIP3    H261997   4.565   5.406   2.930 -0.7792  0.3581 -1.6069
13528TIP3   OH261998   5.229   2.632   6.061  0.5990 -0.1312  0.0228
13528TIP3    H161999   5.280   2.680   5.996 -0.1816 -1.3305 -1.5419
13528TIP3    H262000   5.225   2.542   6.027 -2.0244 -0.2271  0.3546
13529TIP3   OH262001   3.319   3.695   6.720 -0.0316 -0.2739  0.1081
13529TIP3    H162002   3.391   3.637   6.697  0.5381 -0.0853  1.3545
13529TIP3    H262003   3.242   3.638   6.724  0.2999 -0.7216  0.1649
13530TIP3   OH262004   2.892   0.518   2.883 -0.0937  0.4436  0.2008
13530TIP3    H162005   2.942   0.450   2.928 -2.7483 -0.8903  1.3408
13530TIP3    H262006   2.876   0.584   2.950  0.5176  1.0975 -0.2841
13531TIP3   OH262007   4.140   1.616  16.005  0.0350 -0.0031  0.3880
13531TIP3    H162008   4.194   1.582  15.934 -0.7897 -1.5632  0.4667
13531TIP3    H262009   4.128   1.709  15.984  2.1067  0.2097 -0.0029
13532TIP3   OH262010   5.379   1.190  14.153  0.2695  0.2266 -0.3571
13532TIP3    H162011   5.330   1.218  14.077  1.6681  1.6840 -0.7673
13532TIP3    H262012   5.458   1.148  14.117 -0.4195 -1.7769  0.2857
13533TIP3   OH262013   0.386   2.547  15.994  0.2324  0.1383  0.7581
13533TIP3    H162014   0.454   2.568  16.058  1.9024 -1.7552 -0.2801
13533TIP3    H262015   0.305   2.553  16.044  1.3214  0.1839  2.6617
13534TIP3   OH262016   1.910   3.753   1.665  0.0196  0.0887  1.1017
13534TIP3    H162017   1.820   3.744   1.695 -0.1325 -1.1100  0.3544
13534TIP3    H262018   1.950   3.668   1.682  0.0556 -0.5193 -1.5556
13535TIP3   OH262019   6.527   4.805   0.178  0.1435 -0.1102  0.0587
13535TIP3    H162020   6.543   4.733   0.116  0.9418 -0.5046  0.7005
13535TIP3    H262021   6.436   4.793   0.205  0.0499 -0.4542 -0.3800
13536TIP3   OH262022   4.150   5.976   0.812 -0.5139  0.4159 -0.0906
13536TIP3    H162023   4.131   6.019   0.728 -0.4764  0.8301  0.1075
13536TIP3    H262024   4.240   6.004   0.832 -0.3573 -0.0560 -0.1394
13537TIP3   OH262025   0.996   2.159   1.715  0.1152 -0.1810  0.5848
13537TIP3    H162026   0.933   2.091   1.742 -1.7734 -0.0031 -2.8072
13537TIP3    H262027   0.948   2.241   1.725  0.8891  0.2651  0.6963
13538TIP3   OH262028   5.354   0.460  15.799  0.4631  0.2792 -0.6315
13538TIP3    H162029   5.284   0.466  15.864  1.5576  1.9684  0.4683
13538TIP3    H262030   5.341   0.374  15.758 -1.8355  0.2752 -0.0387
13539TIP3   OH262031   3.591   3.963   4.406  0.3151  1.0632 -0.7919
13539TIP3    H162032   3.525   3.949   4.474  2.5330 -0.7496  1.1738
13539TIP3    H262033   3.557   3.917   4.329 -0.6376  0.0164  0.2202
13540TIP3   OH262034   5.256   6.526   6.483 -0.0095 -0.0356  0.1136
13540TIP3    H162035   5.188   6.486   6.538  0.7952 -1.1124  0.3691
13540TIP3    H262036   5.293   6.452   6.434 -1.6488  1.0295 -3.0164
13541TIP3   OH262037   5.065   5.325   1.498  0.9309  0.4841  0.0002
13541TIP3    H162038   5.110   5.360   1.421  0.6111 -0.2618 -0.5407
13541TIP3    H262039   4.975   5.356   1.490  1.0718  1.0262  0.4761
13542TIP3   OH262040   5.622   5.203   1.680  0.0840 -0.6430 -0.2004
13542TIP3    H162041   5.543   5.217   1.628 -0.2924 -0.1526  0.4885
13542TIP3    H262042   5.688   5.258   1.638  0.2677 -1.5904 -1.2004
13543TIP3   OH262043   1.374   5.051  16.467 -0.5885  0.5476  0.2547
13543TIP3    H162044   1.323   5.011  16.396 -2.3789  2.8750  0.1159
13543TIP3    H262045   1.429   5.116  16.424  1.1509 -0.5857  0.6513
13544TIP3   OH262046   6.182   3.395  14.532  0.5378  0.1256  0.2893
13544TIP3    H162047   6.168   3.418  14.624  0.8579  0.5845  0.2230
13544TIP3    H262048   6.126   3.318  14.518  0.1440  0.3280  0.7447
13545TIP3   OH262049   4.584   5.817  13.179  0.0120  0.2445  0.0152
13545TIP3    H162050   4.603   5.876  13.106 -1.7115 -0.1339 -0.7961
13545TIP3    H262051   4.551   5.738  13.138 -0.4610 -0.1953  1.1910
13546TIP3   OH262052   4.488   3.732  10.732  0.0129 -0.2116 -0.8341
13546TIP3    H162053   4.456   3.775  10.652  0.2991 -1.1744 -1.4888
13546TIP3    H262054   4.574   3.698  10.708  1.2444  1.6384  0.6643
13547TIP3   OH262055   4.848   2.319  14.166 -0.0435  0.2538 -0.7567
13547TIP3    H162056   4.753   2.303  14.162  0.2634 -2.1396  0.0829
13547TIP3    H262057   4.856   2.399  14.218 -1.5861 -0.1012  0.1063
13548TIP3   OH262058   4.491   1.386   5.769  0.1022 -0.2376  0.0030
13548TIP3    H162059   4.409   1.420   5.803 -0.4399 -1.9085  0.4666
13548TIP3    H262060   4.535   1.462   5.730 -0.8745  1.0108  1.2585
13549TIP3   OH262061   5.896   3.064   0.116  0.1606 -0.0098  0.1060
13549TIP3    H162062   5.818   3.015   0.088  0.7765 -2.1957  1.9859
13549TIP3    H262063   5.863   3.125   0.182 -0.2495  0.4752 -0.5390
13550TIP3   OH262064   3.863   3.469   3.657 -0.4101  0.2378  0.1795
13550TIP3    H162065   3.905   3.518   3.586  0.5280 -0.5278  0.1878
13550TIP3    H262066   3.769   3.486   3.645 -0.3225 -0.2278 -1.5276
13551TIP3   OH262067   2.341   6.335  14.815  0.1224  0.6300 -0.3198
13551TIP3    H162068   2.306   6.351  14.727 -1.0668 -0.4372 -0.0844
13551TIP3    H262069   2.294   6.256  14.844  2.2402 -0.4475  0.3339
13552TIP3   OH262070   3.948   0.815   2.428 -0.2883 -0.0027 -0.3977
13552TIP3    H162071   4.005   0.810   2.505 -0.9980 -1.6633  0.0621
13552TIP3    H262072   3.969   0.737   2.377 -0.5030  0.5842 -1.4243
13553TIP3   OH262073   2.815   3.851  16.774  0.2214  0.1840  0.2076
13553TIP3    H162074   2.818   3.942  16.744  1.8874  0.3151  0.6688
13553TIP3    H262075   2.854   3.801  16.703 -0.2087 -0.1102  0.1770
13554TIP3   OH262076   4.311   6.179   3.798 -0.8338  0.1058 -0.0787
13554TIP3    H162077   4.274   6.092   3.781 -2.9617  1.1306 -1.1663
13554TIP3    H262078   4.316   6.219   3.711 -1.7269  1.7152  0.5708
13555TIP3   OH262079   3.561   5.853  12.122  0.7409 -0.7173 -0.3319
13555TIP3    H162080   3.519   5.852  12.036 -0.3705 -0.9143  0.1872
13555TIP3    H262081   3.498   5.898  12.179  1.6052 -0.2912  0.3106
13556TIP3   OH262082   5.657   2.932  16.510  0.4469 -0.4786  0.1372
13556TIP3    H162083   5.600   2.868  16.552  0.0541  0.6515  1.3697
13556TIP3    H262084   5.746   2.899  16.526  0.2278 -1.3676 -0.3650
13557TIP3   OH262085   4.263   6.217   1.889 -0.6471  0.0363  0.0835
13557TIP3    H162086   4.302   6.296   1.850 -2.9641  0.8549 -0.6967
13557TIP3    H262087   4.186   6.199   1.836 -0.1434 -2.8772  0.1823
13558TIP3   OH262088   3.748   1.692   3.406 -0.6158 -0.0326  0.2535
13558TIP3    H162089   3.696   1.618   3.438 -1.2296  0.6663  0.8783
13558TIP3    H262090   3.687   1.746   3.357  0.1874 -0.7894 -1.7071
13559TIP3   OH262091   3.247   0.527   4.064  0.7870 -0.4482  0.2956
13559TIP3    H162092   3.317   0.517   4.129  0.1415 -1.0894  0.9022
13559TIP3    H262093   3.248   0.445   4.015  1.4141  0.1110 -0.6806
13560TIP3   OH262094   6.202   5.972  11.202  0.2319  0.3886 -0.3471
13560TIP3    H162095   6.198   5.877  11.192  0.8902  0.3838 -0.6417
13560TIP3    H262096   6.292   5.995  11.178 -0.0031  1.1167 -0.5653
13561TIP3   OH262097   3.415   5.964  12.690 -0.1157  0.7318 -0.4575
13561TIP3    H162098   3.417   5.884  12.639  1.0188  0.2121  0.3680
13561TIP3    H262099   3.501   5.969  12.732 -1.0881  0.9604  1.6516
13562TIP3   OH262100   4.658   0.668   1.717 -0.0162  0.0758  0.1853
13562TIP3    H162101   4.576   0.671   1.767 -0.3311 -0.2051 -0.3077
13562TIP3    H262102   4.724   0.641   1.781 -0.3370  0.1339  0.5488
13563TIP3   OH262103   5.194   1.366  17.175 -0.1888  0.1320 -0.7266
13563TIP3    H162104   5.274   1.396  17.133  0.1817  0.7838  0.3850
13563TIP3    H262105   5.145   1.322  17.106  1.3996 -0.8217 -1.2911
13564TIP3   OH262106   1.005   5.095   2.215  0.2094 -0.6762  0.2781
13564TIP3    H162107   0.972   5.185   2.208 -0.2887 -0.8381  0.4987
13564TIP3    H262108   1.095   5.101   2.185 -0.4463 -0.5103 -1.7819
13565TIP3   OH262109   6.376   5.694  15.152 -0.0088  0.3682 -0.1281
13565TIP3    H162110   6.320   5.617  15.163  0.4906 -0.1305 -0.9385
13565TIP3    H262111   6.391   5.699  15.058  2.6444 -0.5047  0.1682
13566TIP3   OH262112   2.988   0.998   2.357 -0.4297  0.9208 -0.1649
13566TIP3    H162113   2.919   0.947   2.314 -0.4737 -1.1296  2.1306
13566TIP3    H262114   3.057   0.935   2.376  1.1486  2.4912 -0.3982
13567TIP3   OH262115   3.450   3.911   2.166  0.4399  0.5062  0.5644
13567TIP3    H162116   3.436   3.823   2.133 -0.1308  0.4131  1.0384
13567TIP3    H262117   3.492   3.899   2.251 -1.6220  0.5883  1.6489
13568TIP3   OH262118   0.088   3.883  17.035 -0.4845  0.1398  0.0156
13568TIP3    H162119   0.038   3.907  16.957 -0.4515  1.1255  0.2858
13568TIP3    H262120   0.093   3.788  17.031  0.6814  0.2095 -1.9389
13569TIP3   OH262121   5.261   2.801   2.932  0.2799  0.2318 -0.1298
13569TIP3    H162122   5.312   2.746   2.992 -1.4671 -0.8850  0.4015
13569TIP3    H262123   5.176   2.758   2.926 -0.9568  2.5400 -0.2526
13570TIP3   OH262124   1.271   4.971  15.841 -0.1020 -0.7047  0.0474
13570TIP3    H162125   1.252   5.017  15.759 -0.7442  1.6577  1.4213
13570TIP3    H262126   1.276   4.879  15.816  3.0793  0.1486 -3.2019
13571TIP3   OH262127   0.563   3.255  15.839 -0.1616 -0.0906  0.0195
13571TIP3    H162128   0.562   3.330  15.899  1.4860  0.6449 -0.8050
13571TIP3    H262129   0.480   3.262  15.791 -0.8992  0.0694  1.2638
13572TIP3   OH262130   6.672   2.121   6.127  0.1152  0.4006  0.2734
13572TIP3    H162131   6.767   2.122   6.136  0.1868 -0.2410 -0.2900
13572TIP3    H262132   6.639   2.138   6.215  0.7505  0.8184  0.4382
13573TIP3   OH262133   1.578   4.708   6.393  0.4854 -0.0274 -0.4762
13573TIP3    H162134   1.652   4.691   6.334  1.9140  0.0707  1.2169
13573TIP3    H262135   1.574   4.631   6.449 -1.5147 -0.5825 -1.3025
13574TIP3   OH262136   1.419   6.498  12.531 -0.0572 -0.2685  0.2134
13574TIP3    H162137   1.410   6.448  12.450 -0.1047  0.0154  0.0430
13574TIP3    H262138   1.406   6.433  12.601 -1.5765 -0.2240 -0.0075
13575TIP3   OH262139   6.308   5.952   0.831 -0.2153  0.1137 -0.1536
13575TIP3    H162140   6.311   5.932   0.737  0.0485  0.0639 -0.1347
13575TIP3    H262141   6.246   5.889   0.867  0.2215 -0.3341 -0.1796
13576TIP3   OH262142   5.786   6.751   3.886 -0.8597  0.0077  0.1796
13576TIP3    H162143   5.787   6.717   3.797 -0.6560 -0.2017  0.2594
13576TIP3    H262144   5.852   6.820   3.886  0.2902 -1.0631  0.5733
13577TIP3   OH262145   5.566   2.456   3.468 -0.0066  0.0694  0.0690
13577TIP3    H162146   5.485   2.406   3.472 -1.1973  1.9996  1.6423
13577TIP3    H262147   5.591   2.454   3.375 -1.2441 -1.4456 -0.2645
13578TIP3   OH262148   5.849   3.441   3.414 -0.6824  0.2238 -0.0163
13578TIP3    H162149   5.880   3.503   3.348  0.0238  1.4131  1.3781
13578TIP3    H262150   5.884   3.357   3.386  2.1835  1.1800  0.4206
13579TIP3   OH262151   4.555   0.150   0.023  0.3089 -0.1892 -0.1363
13579TIP3    H162152   4.493   0.093   0.069 -0.0023 -1.0164 -1.5232
13579TIP3    H262153   4.502   0.223  -0.008  0.1195 -0.6155 -0.8399
13580TIP3   OH262154   6.058   5.913   5.569 -0.1100 -0.3386  0.5020
13580TIP3    H162155   6.058   5.965   5.650  1.2194  0.3348  0.1013
13580TIP3    H262156   6.076   5.824   5.598  1.2945  0.0451  0.9063
13581TIP3   OH262157   2.221   3.578   2.344  0.0424  0.0341 -0.4161
13581TIP3    H162158   2.128   3.588   2.326 -0.4426 -0.8370  1.3922
13581TIP3    H262159   2.242   3.489   2.317  0.5169  0.4350 -1.4071
13582TIP3   OH262160   5.816   3.110   5.638 -0.1105 -0.1369  0.0750
13582TIP3    H162161   5.728   3.144   5.657 -0.1811 -0.8734  1.1995
13582TIP3    H262162   5.873   3.187   5.644 -0.3529 -0.0574  1.9234
13583TIP3   OH262163   4.525   5.039  11.345  0.2467 -0.3269 -0.2490
13583TIP3    H162164   4.618   5.056  11.330  0.1645 -1.2731 -2.0519
13583TIP3    H262165   4.495   4.996  11.265 -1.3077 -1.7529  1.0158
13584TIP3   OH262166   1.071   4.406  15.454 -0.4585 -0.3281  0.1122
13584TIP3    H162167   1.097   4.492  15.420 -0.0198 -0.1768  0.8115
13584TIP3    H262168   0.995   4.382  15.401 -0.8938  0.7164  0.2207
13585TIP3   OH262169   2.070   2.009  13.305  0.0888 -0.5275  0.0778
13585TIP3    H162170   2.081   1.921  13.341 -0.3154  0.2050  2.1190
13585TIP3    H262171   1.978   2.012  13.277  0.0378 -0.6698  0.2294
13586TIP3   OH262172   1.280   1.950   4.529  0.0154 -0.5580  1.0257
13586TIP3    H162173   1.348   1.882   4.530  1.3368  0.7206  0.7355
13586TIP3    H262174   1.319   2.024   4.574 -0.6388  0.7043 -0.3872
13587TIP3   OH262175   1.374   0.746   4.134  0.1581 -0.4494 -0.4125
13587TIP3    H162176   1.402   0.737   4.226 -0.1512 -0.4860 -0.3222
13587TIP3    H262177   1.393   0.660   4.096 -0.6890 -0.7762 -0.1165
13588TIP3   OH262178   0.532   3.215   2.721 -0.3805 -0.7098  0.0607
13588TIP3    H162179   0.590   3.274   2.674  0.2908  0.2733  2.0065
13588TIP3    H262180   0.488   3.164   2.653  0.1427  0.9892 -1.6147
13589TIP3   OH262181   5.183   6.480   3.459 -0.2096 -0.5161 -0.3134
13589TIP3    H162182   5.254   6.422   3.486 -0.9328 -0.7504  1.2163
13589TIP3    H262183   5.203   6.503   3.369  1.5604 -0.9249 -0.0504
13590TIP3   OH262184   6.480   2.873  11.479  0.1583  0.4014  0.3368
13590TIP3    H162185   6.451   2.810  11.413  1.3895 -0.9227  0.9858
13590TIP3    H262186   6.576   2.871  11.473  0.2936  0.4169  1.9790
13591TIP3   OH262187   5.807   5.527   2.313 -0.5429 -0.3152  0.0699
13591TIP3    H162188   5.840   5.529   2.403  0.3754  0.1165 -0.2663
13591TIP3    H262189   5.797   5.433   2.294 -2.1621 -0.3883  1.1056
13592TIP3   OH262190   4.527   4.203  15.348  0.0300 -0.2961  0.4299
13592TIP3    H162191   4.569   4.184  15.264 -1.5792  0.1273 -0.5141
13592TIP3    H262192   4.511   4.117  15.387  2.4490 -0.4560  1.2128
13593TIP3   OH262193   5.789   0.595   0.427 -0.2065 -0.2816 -0.7997
13593TIP3    H162194   5.873   0.571   0.389 -0.4865 -2.3252 -0.2520
13593TIP3    H262195   5.724   0.546   0.376 -0.8112 -0.8235  0.4237
13594TIP3   OH262196   6.042   1.506   3.622  0.1766  0.1572  0.2166
13594TIP3    H162197   5.959   1.552   3.610 -0.6745 -1.6407 -1.2389
13594TIP3    H262198   6.100   1.544   3.556  0.5616  1.4088  1.2281
13595TIP3   OH262199   1.333   6.777  12.669  0.3212  0.4881  0.4462
13595TIP3    H162200   1.255   6.795  12.616 -0.8440  0.9000  2.2058
13595TIP3    H262201   1.347   6.857  12.719  1.2915  0.0568  0.8935
13596TIP3   OH262202   5.555   2.638   5.321  0.1180  0.0489  0.7577
13596TIP3    H162203   5.471   2.596   5.306  0.3709 -0.9406  1.9640
13596TIP3    H262204   5.561   2.705   5.253 -1.8696  0.4838  0.9472
13597TIP3   OH262205   0.859   0.584  15.165 -0.2870 -0.1979  0.2054
13597TIP3    H162206   0.915   0.563  15.091 -1.0000 -2.1471  0.1613
13597TIP3    H262207   0.770   0.585  15.129 -0.6141 -0.8997  0.9569
13598TIP3   OH262208   2.396   6.690  15.857 -0.4918  0.1361 -0.1241
13598TIP3    H162209   2.319   6.642  15.827 -0.0084 -0.4003 -0.5106
13598TIP3    H262210   2.468   6.628  15.848 -0.1279  0.3860  0.9370
13599TIP3   OH262211   6.260   5.392   4.287 -0.5726  0.2869  0.1429
13599TIP3    H162212   6.168   5.414   4.301 -0.7011 -1.1031  1.8073
13599TIP3    H262213   6.259   5.299   4.266  0.4766  0.1647  0.5954
13600TIP3   OH262214   4.778   4.258  11.981  0.5092 -0.1823  0.2113
13600TIP3    H162215   4.824   4.193  11.927 -0.9455 -1.0443 -0.0316
13600TIP3    H262216   4.736   4.207  12.050 -0.6270  0.4860  0.0365
13601TIP3   OH262217   0.586   3.032   2.048 -0.2719  0.2762  0.1623
13601TIP3    H162218   0.611   2.941   2.031  0.3936  0.5213 -0.2147
13601TIP3    H262219   0.669   3.078   2.057 -0.6066  0.7404  0.9483
13602TIP3   OH262220   2.928   3.942  11.081  0.4643 -0.0404 -0.2807
13602TIP3    H162221   2.959   3.943  10.991  1.4319  0.6588  0.0560
13602TIP3    H262222   2.906   3.850  11.097 -3.5045  0.2918 -2.4623
13603TIP3   OH262223   3.399   1.273  13.991  0.0809 -0.3711 -0.1196
13603TIP3    H162224   3.354   1.269  13.906  0.8551  0.7892 -0.5962
13603TIP3    H262225   3.471   1.210  13.983  1.2185  1.0049 -0.9815
13604TIP3   OH262226   3.076   2.867   1.532  0.1828 -0.5875 -0.1467
13604TIP3    H162227   3.090   2.919   1.453  0.9965 -3.0081 -1.7171
13604TIP3    H262228   3.012   2.801   1.505 -0.9079 -0.3740  1.7957
13605TIP3   OH262229   0.787   3.378   1.069  0.1720  0.1203 -0.0131
13605TIP3    H162230   0.846   3.358   1.141 -2.7020 -1.9886  1.9961
13605TIP3    H262231   0.830   3.341   0.992  0.7660 -3.0025  1.6529
13606TIP3   OH262232   0.825   0.056   2.913  0.4595  0.4042 -0.4409
13606TIP3    H162233   0.918   0.077   2.924  0.7170 -1.0893  0.5553
13606TIP3    H262234   0.788   0.070   3.000 -0.3585  1.3788 -0.9283
13607TIP3   OH262235   3.596   5.241   5.443 -0.1227 -0.2441  0.1492
13607TIP3    H162236   3.540   5.309   5.404 -0.8473 -0.3071  1.0552
13607TIP3    H262237   3.535   5.181   5.485  0.5912 -0.7666  0.4535
13608TIP3   OH262238   0.110   5.622  16.559 -0.3667 -0.2183 -0.4417
13608TIP3    H162239   0.116   5.620  16.464 -0.2161  0.8277 -0.4652
13608TIP3    H262240   0.069   5.706  16.579  2.3926  1.0050  0.5268
13609TIP3   OH262241   0.948   5.578   4.326  0.2067 -0.2870 -0.8548
13609TIP3    H162242   1.018   5.535   4.277  1.0632  1.1833 -1.0071
13609TIP3    H262243   0.913   5.511   4.384  1.2502 -1.2456 -1.3025
13610TIP3   OH262244   2.814   4.295   3.439  0.1693  0.0524 -0.8548
13610TIP3    H162245   2.721   4.317   3.444 -0.3028 -1.7045 -1.1156
13610TIP3    H262246   2.843   4.293   3.530  0.4114  2.2649 -0.8410
13611TIP3   OH262247   1.472   3.715  13.653 -0.2049  0.0262  0.0132
13611TIP3    H162248   1.568   3.718  13.653 -0.2207  2.1753 -0.4523
13611TIP3    H262249   1.448   3.695  13.563 -0.1305  3.0489 -0.8122
13612TIP3   OH262250   4.303   4.055  16.345 -0.2611  0.0513 -0.1350
13612TIP3    H162251   4.322   4.143  16.313  0.6218  0.3894  1.2473
13612TIP3    H262252   4.236   4.022  16.285 -0.2641  1.4751 -0.9603
13613TIP3   OH262253   2.462   2.227  15.123 -0.8258  0.4789  0.5009
13613TIP3    H162254   2.418   2.228  15.208 -2.6558 -0.9072 -0.3673
13613TIP3    H262255   2.541   2.175  15.138 -1.1549  0.2112  1.3368
13614TIP3   OH262256   0.064   6.216   4.497 -0.7817  0.4638 -0.3171
13614TIP3    H162257   0.132   6.150   4.515  0.0429  1.1529 -0.8383
13614TIP3    H262258  -0.004   6.167   4.451  0.0449  0.0707 -1.1505
13615TIP3   OH262259   1.129   1.338  11.879 -0.0433  0.3978  0.2832
13615TIP3    H162260   1.080   1.411  11.840  0.9036  0.9317  0.0602
13615TIP3    H262261   1.147   1.280  11.805  1.4400  1.2333 -0.0525
13616TIP3   OH262262   1.263   2.319   3.876  0.0331  0.1731  0.0439
13616TIP3    H162263   1.253   2.280   3.963 -0.0348  0.7724  0.3093
13616TIP3    H262264   1.319   2.396   3.891 -0.1522  0.3972 -0.4035
13617TIP3   OH262265   1.202   2.042   0.534 -0.1055 -0.2360  0.3281
13617TIP3    H162266   1.177   1.982   0.464 -1.0177 -0.4954  0.8696
13617TIP3    H262267   1.137   2.029   0.603 -0.4334  1.4852  0.4077
13618TIP3   OH262268   3.521   0.558  14.856  0.4120  0.1418 -0.3490
13618TIP3    H162269   3.487   0.581  14.769 -1.4521 -0.3355  0.1987
13618TIP3    H262270   3.509   0.637  14.908 -0.6643 -0.2597  0.0486
13619TIP3   OH262271   5.092   5.660  11.693  0.6622  0.0543 -0.1845
13619TIP3    H162272   5.054   5.687  11.776 -0.6390 -1.2051 -0.3270
13619TIP3    H262273   5.143   5.735  11.664  0.3320  0.8725  1.2678
13620TIP3   OH262274   5.112   2.315   1.593  0.4226  0.3634  0.4484
13620TIP3    H162275   5.166   2.238   1.610 -0.6918 -0.3660  0.7487
13620TIP3    H262276   5.175   2.383   1.570  1.3927 -0.7923 -0.4680
13621TIP3   OH262277   6.645   2.718  13.357  0.6473 -0.3850 -0.4492
13621TIP3    H162278   6.593   2.656  13.305  0.9879  0.7248 -2.2029
13621TIP3    H262279   6.729   2.722  13.312  0.9273  0.7022  0.1375
13622TIP3   OH262280   5.088   1.966   6.303 -0.2899 -0.2733 -0.7266
13622TIP3    H162281   5.061   1.874   6.296  1.0241 -0.7283 -0.2523
13622TIP3    H262282   5.155   1.976   6.236  0.4582 -0.0277  0.0301
13623TIP3   OH262283   2.687   1.662  11.780 -0.2744 -0.1678 -0.2887
13623TIP3    H162284   2.769   1.710  11.775 -0.4702  0.5734  2.4339
13623TIP3    H262285   2.620   1.728  11.796 -1.2394 -0.9113 -1.0440
13624TIP3   OH262286   1.036   3.312   1.207  0.2602  0.2699 -0.4028
13624TIP3    H162287   1.057   3.385   1.265 -0.8735 -0.5803  1.1612
13624TIP3    H262288   1.110   3.251   1.218  0.4272  0.4608 -0.4627
13625TIP3   OH262289   0.068   5.016   4.893  0.1178 -0.2156 -0.2398
13625TIP3    H162290  -0.010   5.017   4.948  0.8393  0.4185  0.8149
13625TIP3    H262291   0.112   5.099   4.912  0.4965 -0.0545 -1.6528
13626TIP3   OH262292   1.898   4.354  16.754  0.0647 -0.0539 -0.5479
13626TIP3    H162293   1.852   4.353  16.838 -2.0028  0.3407 -1.5981
13626TIP3    H262294   1.900   4.263  16.725 -1.8790  0.1058 -1.3586
13627TIP3   OH262295   4.914   2.519   3.366 -0.2358 -0.3785 -0.2736
13627TIP3    H162296   5.002   2.499   3.334 -0.7182 -1.3216 -1.0585
13627TIP3    H262297   4.927   2.552   3.455  0.9802  0.4079 -0.7225
13628TIP3   OH262298   6.395   1.792  11.399 -0.0742 -0.3562 -0.0166
13628TIP3    H162299   6.371   1.790  11.306 -0.0926 -0.3792 -0.0112
13628TIP3    H262300   6.399   1.885  11.420  0.8776 -0.3219 -0.2893
13629TIP3   OH262301   1.484   5.893   1.708  0.3871  0.3828  0.6863
13629TIP3    H162302   1.547   5.925   1.772 -0.0695  0.0646  1.3002
13629TIP3    H262303   1.422   5.840   1.758  0.0314  0.1103 -0.0157
13630TIP3   OH262304   1.661   1.349  12.701  0.6251 -0.0473 -0.3223
13630TIP3    H162305   1.686   1.343  12.609  2.2911 -0.9347  0.1565
13630TIP3    H262306   1.596   1.280  12.713  1.4305 -0.8557 -0.5275
13631TIP3   OH262307   2.563   6.367  15.470  0.1603  0.1207 -0.2499
13631TIP3    H162308   2.575   6.324  15.385 -0.3720  0.6193 -0.5859
13631TIP3    H262309   2.567   6.296  15.533 -2.3820 -0.7293 -0.9204
13632TIP3   OH262310   4.361   4.054   3.964 -0.2145 -0.3065 -0.3434
13632TIP3    H162311   4.326   4.135   4.002 -1.4055 -0.0344 -1.9165
13632TIP3    H262312   4.288   4.016   3.915  0.4248 -2.1818  0.0766
13633TIP3   OH262313   4.404   0.880   3.196  0.0668 -0.4311 -0.0010
13633TIP3    H162314   4.326   0.832   3.168 -1.3077  1.6755 -0.0514
13633TIP3    H262315   4.370   0.966   3.221  2.5173  0.9612 -1.1485
13634TIP3   OH262316   0.839   2.629   2.760 -0.4788 -0.7364 -0.2123
13634TIP3    H162317   0.858   2.709   2.710  3.3923 -0.8063  0.8157
13634TIP3    H262318   0.878   2.558   2.709 -0.1292 -1.3580  0.8845
13635TIP3   OH262319   0.671   1.347  17.161  0.1185 -0.0359  0.2333
13635TIP3    H162320   0.612   1.285  17.118  1.0642  1.0315 -2.9192
13635TIP3    H262321   0.739   1.292  17.200 -1.3330 -1.1194  1.3702
13636TIP3   OH262322   6.619   2.184  16.682 -0.6340  0.2431 -0.0838
13636TIP3    H162323   6.623   2.094  16.715  1.2843 -0.0233 -0.8760
13636TIP3    H262324   6.663   2.180  16.597 -1.3929  1.7574 -0.5877
13637TIP3   OH262325   0.016   5.980  16.141  0.3082  0.0562  0.3014
13637TIP3    H162326  -0.058   6.029  16.106  0.6309  1.0520  0.9559
13637TIP3    H262327   0.070   6.046  16.183  0.9800 -0.8177  0.8477
13638TIP3   OH262328   3.507   1.682  15.979  0.0236  0.7334  0.1436
13638TIP3    H162329   3.498   1.705  15.887  3.4919  0.8865 -0.2741
13638TIP3    H262330   3.490   1.588  15.983 -0.1266  0.7243 -0.6305
13639TIP3   OH262331   3.788   4.252   1.252 -0.0673 -0.0417 -0.3451
13639TIP3    H162332   3.830   4.335   1.229 -0.0714 -0.1651 -0.7987
13639TIP3    H262333   3.707   4.252   1.201  0.1102 -0.4967 -0.6244
13640TIP3   OH262334   3.879   0.713  13.227  1.0799  0.2315 -0.4697
13640TIP3    H162335   3.899   0.716  13.134  4.2439 -0.3778  0.0944
13640TIP3    H262336   3.843   0.626  13.242  1.1324  0.1194 -1.0003
13641TIP3   OH262337   0.729   1.707   0.878 -0.5877 -0.2440 -0.1864
13641TIP3    H162338   0.792   1.743   0.815  0.4471 -1.2230  0.2542
13641TIP3    H262339   0.698   1.782   0.927  1.3757  0.1254  0.5855
13642TIP3   OH262340   3.663   3.260   0.483  0.8159 -0.0005  0.1974
13642TIP3    H162341   3.573   3.229   0.472  1.5807 -2.1525 -0.5608
13642TIP3    H262342   3.660   3.315   0.561 -1.1878  0.1806  0.0525
13643TIP3   OH262343   4.484   1.198   2.574 -0.3104  0.5604 -0.2606
13643TIP3    H162344   4.433   1.248   2.638  0.1323  0.5242  0.1258
13643TIP3    H262345   4.527   1.265   2.520 -2.7613  0.6624 -2.2862
13644TIP3   OH262346   1.799   0.074  12.176 -0.1767  0.4135  0.0558
13644TIP3    H162347   1.738   0.114  12.114  0.0008  0.7997  0.1274
13644TIP3    H262348   1.882   0.068  12.128 -0.1596  0.2868  0.1017
13645TIP3   OH262349   5.346   4.608  11.564  0.0194  0.5145  0.0997
13645TIP3    H162350   5.432   4.566  11.572  0.4785  1.3024 -0.6013
13645TIP3    H262351   5.294   4.546  11.513 -0.8663 -1.4550  3.1294
13646TIP3   OH262352   4.122   0.223   0.342 -0.3385  0.1819 -0.2770
13646TIP3    H162353   4.203   0.274   0.343  0.8371 -1.5907 -0.7535
13646TIP3    H262354   4.067   0.264   0.409  1.7623  0.1833  1.5542
13647TIP3   OH262355   2.541   2.573   3.580  0.3400  0.1939  0.2709
13647TIP3    H162356   2.626   2.557   3.538 -0.1264 -0.2161 -0.5440
13647TIP3    H262357   2.556   2.646   3.639  1.2743  0.0898  0.1703
13648TIP3   OH262358   5.853   0.780  12.055  0.0280  0.3752  0.0322
13648TIP3    H162359   5.947   0.789  12.075 -0.1605  1.4808  0.5284
13648TIP3    H262360   5.819   0.726  12.126  0.6100 -1.7180 -1.2051
13649TIP3   OH262361   1.300   3.374  13.530  0.7304 -0.5204 -0.3370
13649TIP3    H162362   1.322   3.404  13.442 -1.7925 -0.5982 -1.0693
13649TIP3    H262363   1.208   3.397  13.541  0.4509 -2.2536  1.5450
13650TIP3   OH262364   4.163   6.695   1.872  0.1440  0.6095  0.2380
13650TIP3    H162365   4.209   6.623   1.916  1.6797  1.2777 -0.2149
13650TIP3    H262366   4.229   6.734   1.815 -1.7532 -0.3239 -2.8726
13651TIP3   OH262367   3.483   1.573  11.847  0.1305  0.2171 -0.2508
13651TIP3    H162368   3.412   1.632  11.821 -0.4651  0.3726  1.5792
13651TIP3    H262369   3.452   1.486  11.823 -0.0944  0.4160 -0.6890
13652TIP3   OH262370   0.804   3.501  11.959  0.2602  0.2882  0.2906
13652TIP3    H162371   0.740   3.487  11.889 -1.9581  2.0295  1.8242
13652TIP3    H262372   0.888   3.509  11.913 -0.3066 -3.1919 -1.7315
13653TIP3   OH262373   2.020   6.294   2.781 -0.0114 -0.4896 -0.2618
13653TIP3    H162374   2.082   6.346   2.731 -1.2625  1.2407 -0.0914
13653TIP3    H262375   2.067   6.269   2.860  1.5873 -2.2280 -1.6653
13654TIP3   OH262376   1.815   6.492  14.639 -0.5723  0.1649 -0.2078
13654TIP3    H162377   1.760   6.445  14.701  1.7390 -0.5612  1.4337
13654TIP3    H262378   1.855   6.423  14.586  1.0636  0.3834  0.6786
13655TIP3   OH262379   1.876   3.258  10.834  0.4973 -0.0358  0.2027
13655TIP3    H162380   1.810   3.191  10.813 -0.4127  1.3270 -1.5843
13655TIP3    H262381   1.960   3.214  10.822 -0.0687 -0.5876 -2.1489
13656TIP3   OH262382   1.942   4.420   0.595 -0.2965 -0.1573  0.5420
13656TIP3    H162383   1.926   4.452   0.684  1.1972 -0.0553  0.7999
13656TIP3    H262384   1.884   4.473   0.540  0.2788  1.2481  1.2418
13657TIP3   OH262385   2.840   1.954  11.120 -0.0959 -0.1139  0.5940
13657TIP3    H162386   2.847   2.010  11.042  2.6678  1.0295  1.5105
13657TIP3    H262387   2.860   1.866  11.088  0.6063  0.2713 -0.0673
13658TIP3   OH262388   5.885   3.892  14.755 -0.1905  0.3283  0.6918
13658TIP3    H162389   5.919   3.802  14.746 -1.3040 -0.1488  1.1426
13658TIP3    H262390   5.890   3.910  14.849  2.1252  1.6118  0.4075
13659TIP3   OH262391   3.172   0.694   1.230 -0.2807 -0.1190 -0.2119
13659TIP3    H162392   3.190   0.607   1.194  1.1954 -0.5867  1.5060
13659TIP3    H262393   3.077   0.695   1.243 -0.1906 -2.0198  1.0023
13660TIP3   OH262394   5.613   5.795  15.942 -0.1292 -0.5054 -0.2646
13660TIP3    H162395   5.618   5.889  15.925 -2.2842  0.1038  1.8985
13660TIP3    H262396   5.692   5.776  15.993  0.7976 -0.1006 -1.5094
13661TIP3   OH262397   3.186   6.705  13.704 -0.2847 -0.5658  0.0472
13661TIP3    H162398   3.242   6.754  13.764  0.6887  0.7000 -1.7604
13661TIP3    H262399   3.237   6.627  13.681 -0.9300 -1.3854  1.2953
13662TIP3   OH262400   0.152   5.594   4.994  0.6764  0.5792 -0.1536
13662TIP3    H162401   0.102   5.671   4.968 -1.3270 -0.4926  0.3021
13662TIP3    H262402   0.174   5.609   5.086 -1.8380 -0.3597  0.6858
13663TIP3   OH262403   0.182   6.615  16.665 -0.5827 -0.0271  0.5071
13663TIP3    H162404   0.207   6.609  16.757 -1.4783  1.0303  0.8405
13663TIP3    H262405   0.265   6.613  16.617 -0.1408 -1.1125  1.2920
13664TIP3   OH262406   5.018   5.026   2.601 -0.1680 -0.2449 -0.4306
13664TIP3    H162407   5.032   5.013   2.508  0.2730 -0.9165 -0.2752
13664TIP3    H262408   5.100   5.064   2.633 -1.3053  2.9310 -0.8235
13665TIP3   OH262409   3.224   0.419  11.162  0.0992  0.0507  0.1342
13665TIP3    H162410   3.145   0.473  11.151 -0.0415  0.2788  1.9684
13665TIP3    H262411   3.215   0.351  11.096 -1.7257 -0.0128  0.3880
13666TIP3   OH262412   3.226   5.132   0.736  0.1478  0.5236  0.1115
13666TIP3    H162413   3.250   5.174   0.654  0.2646 -0.6878 -0.4904
13666TIP3    H262414   3.222   5.204   0.799  2.3389  1.2183 -0.4309
13667TIP3   OH262415   4.761   1.355   3.222  0.6223 -0.0175  0.0529
13667TIP3    H162416   4.707   1.409   3.164  0.4948 -0.6294 -0.4157
13667TIP3    H262417   4.723   1.367   3.309  0.5012  0.5149 -0.0689
13668TIP3   OH262418   1.747   1.906  13.883 -0.0957 -0.6551  0.1088
13668TIP3    H162419   1.772   1.839  13.947  0.8904 -0.8676 -0.4727
13668TIP3    H262420   1.763   1.989  13.928  0.1747 -0.8027  0.2869
13669TIP3   OH262421   3.826   1.864  15.657 -0.2709 -0.4942  0.6465
13669TIP3    H162422   3.893   1.799  15.682  0.9546 -0.2471 -1.7392
13669TIP3    H262423   3.839   1.936  15.719  0.4232 -1.2161  1.3781
13670TIP3   OH262424   4.242   4.314  15.480  0.2931 -0.1255 -0.0873
13670TIP3    H162425   4.153   4.321  15.445 -0.0896  2.5362  1.1484
13670TIP3    H262426   4.299   4.340  15.408  0.0003 -0.7935 -0.5645
13671TIP3   OH262427   5.383   6.487   4.233  0.3481 -0.2922 -0.3975
13671TIP3    H162428   5.411   6.578   4.221  0.8431 -0.6316 -2.1334
13671TIP3    H262429   5.360   6.481   4.326 -0.0130  1.6851 -0.3059
13672TIP3   OH262430   2.580   5.821  10.866 -0.3117 -0.4619 -0.1330
13672TIP3    H162431   2.578   5.726  10.870  0.2974 -0.4396  2.4922
13672TIP3    H262432   2.491   5.848  10.887  0.2796 -0.4986  2.8274
13673TIP3   OH262433   6.294   1.832  10.840 -0.2406 -0.2376  0.5541
13673TIP3    H162434   6.307   1.784  10.758  0.4242  0.6746  0.1114
13673TIP3    H262435   6.199   1.840  10.848 -0.2968  1.3375 -1.1389
13674TIP3   OH262436   0.364   2.357  16.519 -0.4763  0.1738  0.4500
13674TIP3    H162437   0.427   2.300  16.476  0.0571 -0.0786  1.5181
13674TIP3    H262438   0.416   2.406  16.583 -0.9885  1.5940 -0.1867
13675TIP3   OH262439   5.040   1.513  10.455 -0.0218  0.4140  0.8591
13675TIP3    H162440   5.008   1.432  10.415 -0.2641  1.0200 -0.2048
13675TIP3    H262441   5.037   1.496  10.549  0.7854 -1.1289  0.6313
13676TIP3   OH262442   5.000   1.116  15.092  0.2489 -0.5187  0.1228
13676TIP3    H162443   4.920   1.074  15.124 -0.3299 -2.7840 -3.6296
13676TIP3    H262444   5.070   1.056  15.116  0.2186 -0.6578 -0.1260
13677TIP3   OH262445   0.545   5.424  15.953 -0.2265 -0.0048 -0.1422
13677TIP3    H162446   0.497   5.342  15.938 -1.1801  0.7174 -1.3003
13677TIP3    H262447   0.624   5.416  15.900 -0.3648 -0.1588 -0.3279
13678TIP3   OH262448   6.550   0.998   1.056  0.2803  0.1395 -0.2335
13678TIP3    H162449   6.488   0.926   1.045  0.0645 -0.1822  2.4003
13678TIP3    H262450   6.496   1.074   1.076  0.6432  0.3296  0.0455
13679TIP3   OH262451   3.155   3.469   0.874  0.1603  0.7778 -0.1221
13679TIP3    H162452   3.155   3.550   0.924  0.9820  1.1002 -0.6262
13679TIP3    H262453   3.090   3.414   0.917 -1.8637  2.4132 -0.9416
13680TIP3   OH262454   0.660   5.324   6.080  0.2111  0.2519  0.4108
13680TIP3    H162455   0.704   5.403   6.050  1.0364  0.2401  1.5381
13680TIP3    H262456   0.569   5.336   6.054  0.4777  1.2122 -0.1249
13681TIP3   OH262457   1.678   5.842  12.930 -0.5781  0.0075 -0.2259
13681TIP3    H162458   1.750   5.793  12.970 -1.3905  0.0272  1.3079
13681TIP3    H262459   1.611   5.847  12.998 -2.3370 -0.6096 -1.8190
13682TIP3   OH262460   5.057   5.110  14.263  0.0191  0.5800  0.0418
13682TIP3    H162461   5.036   5.141  14.351  1.6939  0.5835  0.4769
13682TIP3    H262462   5.144   5.146  14.245  0.0461 -0.0839 -1.2885
13683TIP3   OH262463   1.243   6.726   3.393 -0.3084  0.2712  0.1481
13683TIP3    H162464   1.203   6.660   3.335  1.6538 -1.2467  0.4090
13683TIP3    H262465   1.225   6.694   3.481  1.3116 -0.3975  0.2681
13684TIP3   OH262466   6.637   6.581   2.106 -0.3232 -0.7116 -0.7408
13684TIP3    H162467   6.613   6.494   2.072  0.5167 -0.6326 -1.5682
13684TIP3    H262468   6.720   6.566   2.151 -0.3855 -0.4096 -0.5274
13685TIP3   OH262469   6.035   1.915   1.497 -0.1017 -0.0154  0.6788
13685TIP3    H162470   5.942   1.931   1.478  0.1630  0.6724 -0.0977
13685TIP3    H262471   6.034   1.856   1.572 -1.1694  0.0981  0.7720
13686TIP3   OH262472   3.759   1.570  16.853  0.2630  0.4601 -0.4127
13686TIP3    H162473   3.771   1.648  16.908 -0.8038  0.0112  0.4826
13686TIP3    H262474   3.848   1.545  16.828  0.6108  2.1086 -0.9338
13687TIP3   OH262475   2.962   4.556   4.559  0.3561  0.5291  0.0876
13687TIP3    H162476   2.990   4.646   4.544  1.7793  0.1796  0.4737
13687TIP3    H262477   2.883   4.546   4.505  1.0552  1.5397 -1.1959
13688TIP3   OH262478   0.475   6.550  14.395 -0.6248  0.3045  0.3178
13688TIP3    H162479   0.429   6.632  14.381 -0.1975  0.7300  1.2793
13688TIP3    H262480   0.557   6.576  14.438  1.3911 -0.2320 -2.9025
13689TIP3   OH262481   4.006   5.261   5.105  0.3384  0.2173 -0.1864
13689TIP3    H162482   3.922   5.306   5.111  0.3259  0.5566 -2.1334
13689TIP3    H262483   4.013   5.213   5.187 -1.1841  1.1398  0.5401
13690TIP3   OH262484   2.573   4.804  11.821 -0.9523 -0.7482 -0.2958
13690TIP3    H162485   2.598   4.763  11.739  2.8701 -0.1449  0.3831
13690TIP3    H262486   2.565   4.732  11.883 -0.7945 -0.9781 -0.5429
13691TIP3   OH262487   4.125   3.410  12.509 -0.1747  0.2120  0.2913
13691TIP3    H162488   4.116   3.483  12.570 -1.1866  0.6829 -0.3941
13691TIP3    H262489   4.063   3.344  12.541 -1.0549  0.6491 -0.4727
13692TIP3   OH262490   0.161   2.560   4.166 -0.6765 -0.2493 -0.0057
13692TIP3    H162491   0.151   2.465   4.159  1.5613 -0.5227  0.0482
13692TIP3    H262492   0.227   2.572   4.234  0.8836  1.2277 -1.6911
13693TIP3   OH262493   0.970   2.976   6.054 -0.3111 -0.2415  0.1566
13693TIP3    H162494   0.945   2.889   6.085 -0.0158 -0.7209 -0.9112
13693TIP3    H262495   0.913   3.036   6.103  0.8286 -0.8559  2.3805
13694TIP3   OH262496   6.174   1.210  14.023 -0.5335 -0.1196  0.0022
13694TIP3    H162497   6.132   1.152  14.086  0.9235  0.2180  1.3716
13694TIP3    H262498   6.181   1.159  13.943  0.9042 -1.9944  1.2295
13695TIP3   OH262499   2.392   0.301  13.187 -0.3133  0.0552  0.1072
13695TIP3    H162500   2.447   0.225  13.169 -0.8358 -0.4436  0.5934
13695TIP3    H262501   2.370   0.294  13.280 -0.5960  0.6501  0.0905
13696TIP3   OH262502   3.948   5.409  16.946  0.4590  0.2075  0.1472
13696TIP3    H162503   3.905   5.474  16.890  0.1867  0.5192  0.7121
13696TIP3    H262504   4.031   5.391  16.902  0.4789  0.8413 -0.0783
13697TIP3   OH262505   5.388   1.114  16.087  0.1794  0.7187  0.1805
13697TIP3    H162506   5.302   1.120  16.129  0.0895  1.4949 -0.0936
13697TIP3    H262507   5.450   1.121  16.160  0.0175  0.1934  0.3755
13698TIP3   OH262508   6.080   6.411  11.613 -0.0196 -0.0576 -0.6390
13698TIP3    H162509   6.019   6.481  11.588  0.1149  0.0057 -0.7871
13698TIP3    H262510   6.166   6.454  11.616  0.1891 -0.3943 -1.5163
13699TIP3   OH262511   6.643   3.356   5.104  0.2192  0.1231 -0.8268
13699TIP3    H162512   6.612   3.325   5.019  0.2110  0.3843 -0.9210
13699TIP3    H262513   6.713   3.418   5.082  0.3087  0.0900 -0.6380
13700TIP3   OH262514   2.843   1.080  14.810  0.4672 -0.3008  0.0515
13700TIP3    H162515   2.833   1.158  14.865 -0.7363  0.8232 -1.6474
13700TIP3    H262516   2.918   1.100  14.754 -0.6050  0.2158 -1.2365
13701TIP3   OH262517   1.109   5.507   2.061  1.0207 -0.3258  0.1323
13701TIP3    H162518   1.128   5.426   2.014  0.4624 -1.5759  1.9740
13701TIP3    H262519   1.086   5.570   1.992 -0.8960 -2.3825 -1.2553
13702TIP3   OH262520   2.022   3.358  13.932  0.1855 -0.0370 -0.6222
13702TIP3    H162521   2.075   3.414  13.876 -0.5450 -0.0788 -1.3687
13702TIP3    H262522   2.019   3.274  13.886 -1.5981  0.3395 -1.2724
13703TIP3   OH262523   5.716   0.169  14.673  0.8871  0.1722  0.1749
13703TIP3    H162524   5.744   0.154  14.583  0.9497 -3.7169  0.6696
13703TIP3    H262525   5.621   0.164  14.670  0.7286  2.3045  0.0919
13704TIP3   OH262526   0.334   5.632   5.665 -0.3026  0.5818  0.1688
13704TIP3    H162527   0.241   5.610   5.664 -0.4873  1.2727  0.8369
13704TIP3    H262528   0.336   5.728   5.664  0.4236  0.5706 -0.5586
13705TIP3   OH262529   6.475   3.783   5.608 -0.5026  0.2429 -0.4776
13705TIP3    H162530   6.510   3.864   5.571  0.4436 -0.5357 -1.3478
13705TIP3    H262531   6.407   3.812   5.670  0.3094  1.7138 -0.2299
13706TIP3   OH262532   4.473   4.762  12.716  0.3524 -0.0257 -0.1349
13706TIP3    H162533   4.521   4.843  12.701 -0.3409  0.4082 -0.0485
13706TIP3    H262534   4.532   4.693  12.685  0.8063  0.5302 -0.5254
13707TIP3   OH262535   1.049   0.011  16.023 -0.5073 -0.3870 -0.8832
13707TIP3    H162536   1.115  -0.008  16.089 -1.4288 -1.2430 -0.1788
13707TIP3    H262537   1.081   0.090  15.979  0.4152 -0.1318  0.1977
13708TIP3   OH262538   3.624   0.462  12.735  0.2464 -0.5539 -0.1666
13708TIP3    H162539   3.574   0.542  12.755 -0.1348 -0.6686 -0.6526
13708TIP3    H262540   3.694   0.491  12.678  0.8794 -0.3556  0.6884
13709TIP3   OH262541   6.140   1.243   3.550 -0.2647 -0.0961 -0.3700
13709TIP3    H162542   6.083   1.173   3.518  0.0140 -1.1833  1.3983
13709TIP3    H262543   6.086   1.293   3.611 -0.0317  0.3479 -0.5223
13710TIP3   OH262544   0.400   6.389  14.188  0.2743 -0.3869 -0.2388
13710TIP3    H162545   0.331   6.325  14.207 -0.6056  0.1673 -1.4033
13710TIP3    H262546   0.413   6.435  14.270  0.1040 -1.2824  0.3114
13711TIP3   OH262547   5.770   3.942   0.737 -0.0801 -0.0847  0.3974
13711TIP3    H162548   5.780   3.860   0.784  0.3771 -0.0466  0.3651
13711TIP3    H262549   5.703   3.924   0.671  1.3503 -0.9962 -0.8699
13712TIP3   OH262550   6.430   5.652   3.041 -0.2845  0.3539  0.4038
13712TIP3    H162551   6.413   5.570   3.088 -0.3101  0.7872  1.1615
13712TIP3    H262552   6.524   5.651   3.025 -0.4030 -0.1971 -0.3076
13713TIP3   OH262553   4.943   5.433   2.244 -0.2762  0.2795  0.0093
13713TIP3    H162554   4.851   5.462   2.246 -0.5765 -0.3908 -2.0966
13713TIP3    H262555   4.961   5.407   2.335 -2.6719 -1.0567  0.1953
13714TIP3   OH262556   4.988   2.690  14.643 -1.0518  0.0992 -0.5736
13714TIP3    H162557   4.965   2.597  14.642 -1.3476  0.1731 -1.5648
13714TIP3    H262558   4.909   2.735  14.613 -1.2180  0.7624  0.7732
13715TIP3   OH262559   5.936   5.115  15.493 -0.5884  0.3823  0.0347
13715TIP3    H162560   5.868   5.182  15.486 -1.2446 -0.1262  1.1876
13715TIP3    H262561   5.889   5.032  15.491  0.2749 -0.1221 -2.0964
13716TIP3   OH262562   4.438   1.337  12.283  0.2059  0.3158 -0.1060
13716TIP3    H162563   4.357   1.312  12.328  0.2275 -0.1905 -0.3351
13716TIP3    H262564   4.470   1.254  12.246  1.8156  0.1402  1.5760
13717TIP3   OH262565   2.517   0.142  14.774 -0.1737  0.6235  0.3297
13717TIP3    H162566   2.604   0.110  14.798  1.2447  2.3351 -2.1472
13717TIP3    H262567   2.492   0.088  14.699 -1.9220 -0.7179  1.7672
13718TIP3   OH262568   5.984   1.889  16.203 -0.2262 -0.4668 -0.6186
13718TIP3    H162569   5.927   1.815  16.183 -0.0716 -0.1914 -2.2316
13718TIP3    H262570   6.050   1.888  16.134 -0.5754  1.5166 -1.0581
13719TIP3   OH262571   6.331   6.535  16.902  0.1173 -0.3734 -0.1120
13719TIP3    H162572   6.309   6.615  16.950 -2.0937 -0.9646 -0.0377
13719TIP3    H262573   6.377   6.566  16.824 -0.2319  0.9416  0.1781
13720TIP3   OH262574   3.786   1.849   0.184  0.1853 -0.0282 -0.0747
13720TIP3    H162575   3.857   1.880   0.128  0.3056 -1.6659 -0.8724
13720TIP3    H262576   3.732   1.927   0.200  0.7152  0.6870 -1.6264
13721TIP3   OH262577   2.620   3.653   1.121 -0.4005  0.1143  0.3858
13721TIP3    H162578   2.559   3.659   1.048 -0.3736 -2.0500  0.1330
13721TIP3    H262579   2.582   3.710   1.189 -0.8824  1.4459 -0.9507
13722TIP3   OH262580   5.891   2.178  15.584 -0.5997 -0.0781  0.4373
13722TIP3    H162581   5.974   2.206  15.622 -1.6915  1.4442  1.8450
13722TIP3    H262582   5.896   2.082  15.583  0.2243 -0.1237  2.7536
13723TIP3   OH262583   0.365   2.516   3.233  0.1199 -0.1809 -0.5488
13723TIP3    H162584   0.361   2.538   3.140  0.8609 -2.4877 -1.1869
13723TIP3    H262585   0.283   2.548   3.269  0.9225  3.2012 -1.3582
13724TIP3   OH262586   0.921   3.926  14.510  0.4114 -0.3982 -0.1202
13724TIP3    H162587   0.973   3.879  14.575  1.6763 -1.6294 -1.9333
13724TIP3    H262588   0.868   3.988  14.562  1.0805 -1.5516  2.0724
13725TIP3   OH262589   2.276   5.315  16.717  0.1893  0.0053  0.3504
13725TIP3    H162590   2.274   5.402  16.676  0.3493 -0.6404 -1.0681
13725TIP3    H262591   2.277   5.334  16.811  0.3234  1.5407  0.0746
13726TIP3   OH262592   4.168   0.265   2.562 -1.0044 -0.0391  0.3300
13726TIP3    H162593   4.193   0.357   2.568 -0.5909 -0.1978  1.0572
13726TIP3    H262594   4.157   0.237   2.652 -2.6391 -0.3022  0.0810
13727TIP3   OH262595   4.035   3.104  15.190 -0.0109  0.9012  0.0239
13727TIP3    H162596   4.112   3.099  15.133 -0.9716 -0.7211 -1.2038
13727TIP3    H262597   3.982   3.028  15.166 -1.3907  1.2496  1.7494
13728TIP3   OH262598   0.502   0.006  13.789 -0.1799  0.6284  0.5678
13728TIP3    H162599   0.495  -0.054  13.863 -3.0015 -0.0037 -0.0675
13728TIP3    H262600   0.455  -0.038  13.718  1.9209  1.4715 -1.4570
13729TIP3   OH262601   6.082   3.451  14.802 -0.2612  0.0442 -0.2248
13729TIP3    H162602   6.003   3.498  14.828 -1.1261 -0.3880 -1.9324
13729TIP3    H262603   6.069   3.362  14.837 -0.3643  0.0774 -0.1797
13730TIP3   OH262604   4.619   5.444  12.368 -0.4920 -0.3088 -0.3562
13730TIP3    H162605   4.661   5.512  12.316  0.1486 -0.3403  0.1022
13730TIP3    H262606   4.639   5.363  12.323 -0.8043 -0.2483 -0.6107
13731TIP3   OH262607   0.089   6.723   3.616  0.1923 -0.4058  0.1806
13731TIP3    H162608   0.136   6.726   3.533  0.2326  1.4763  0.2306
13731TIP3    H262609   0.158   6.715   3.682  0.3226  0.3381  0.1427
13732TIP3   OH262610   1.810   1.559  11.476  0.3605 -0.2934  0.1641
13732TIP3    H162611   1.902   1.545  11.456  0.8261  0.4660  1.6583
13732TIP3    H262612   1.789   1.493  11.543  0.3204  0.6922  1.1414
13733TIP3   OH262613   6.182   4.943   5.542 -0.1020 -0.2968 -0.1856
13733TIP3    H162614   6.258   4.890   5.564  1.3267  2.1358  1.2015
13733TIP3    H262615   6.171   4.932   5.447  1.1249 -1.7096 -0.2007
13734TIP3   OH262616   1.335   0.565  13.948 -0.1448  0.5932 -0.1513
13734TIP3    H162617   1.308   0.626  13.880  2.1476 -0.8271 -2.4927
13734TIP3    H262618   1.269   0.497  13.947 -0.2567  0.7055 -0.7946
13735TIP3   OH262619   2.210   3.926  11.580 -0.0485  0.0433  0.5904
13735TIP3    H162620   2.147   3.866  11.538 -0.3532  0.6115  0.2256
13735TIP3    H262621   2.177   3.937  11.669 -0.6754  0.6183  0.2957
13736TIP3   OH262622   4.929   0.975  13.756 -0.4330 -0.3642  0.8226
13736TIP3    H162623   4.988   0.933  13.818 -1.4282  0.4616  2.4065
13736TIP3    H262624   4.899   1.054  13.801 -1.2538  0.2254 -0.6912
13737TIP3   OH262625   5.302   4.771   3.234 -0.6564  0.4109 -0.1997
13737TIP3    H162626   5.354   4.735   3.306  0.7561  0.1689 -1.3013
13737TIP3    H262627   5.340   4.732   3.155 -1.2762  1.7112 -1.1796
13738TIP3   OH262628   2.189   2.631  16.044  0.5355 -0.0358 -0.2303
13738TIP3    H162629   2.212   2.609  15.954  1.1059 -0.9834  0.1334
13738TIP3    H262630   2.198   2.548  16.092  0.2254  0.4510  0.6932
13739TIP3   OH262631   4.656   5.158   1.987 -0.4131 -0.4922  0.5473
13739TIP3    H162632   4.665   5.249   1.958 -0.8548 -1.0327 -1.4263
13739TIP3    H262633   4.736   5.116   1.956 -1.4022 -1.3343 -0.9784
13740TIP3   OH262634   0.125   6.328   4.874  0.1346 -0.3537  0.9412
13740TIP3    H162635   0.056   6.347   4.810 -0.0809 -1.1856  0.9129
13740TIP3    H262636   0.130   6.233   4.876  0.6050 -0.3214  1.6793
13741TIP3   OH262637   5.597   4.508   2.154  0.1302 -0.5249  0.2250
13741TIP3    H162638   5.532   4.484   2.220 -0.6348 -0.0289 -0.3262
13741TIP3    H262639   5.550   4.504   2.071  0.8552 -0.3272 -0.2078
13742TIP3   OH262640   1.203   3.589  12.950  0.0924 -0.1134 -0.0588
13742TIP3    H162641   1.161   3.531  13.012  1.2486  0.3138  1.1860
13742TIP3    H262642   1.279   3.624  12.997  1.3987 -0.2551 -1.9121
13743TIP3   OH262643   2.295   4.624   2.095 -0.1374  0.2390  0.5538
13743TIP3    H162644   2.272   4.648   2.184 -1.8003  2.3155 -0.3575
13743TIP3    H262645   2.218   4.580   2.060  0.2961 -0.0816 -0.0279
13744TIP3   OH262646   5.986   6.667  12.998 -0.1657  0.1031  0.1965
13744TIP3    H162647   6.006   6.712  12.915 -0.4606  1.8658  1.0274
13744TIP3    H262648   6.070   6.661  13.043 -0.2350  0.4419  0.3728
13745TIP3   OH262649   2.533   4.407   1.433  0.5060  0.2532  0.4369
13745TIP3    H162650   2.527   4.357   1.515 -1.8919 -2.0974 -1.0204
13745TIP3    H262651   2.618   4.383   1.396  1.0950  0.4137  1.6343
13746TIP3   OH262652   0.862   1.768  15.715  0.3507 -0.0455 -0.1890
13746TIP3    H162653   0.796   1.713  15.672 -0.0776  0.1490  0.2199
13746TIP3    H262654   0.815   1.814  15.784  0.2819  2.2924 -1.6868
13747TIP3   OH262655   3.915   3.957  14.627  0.3042 -0.2492  0.0513
13747TIP3    H162656   3.848   3.964  14.560  1.3622 -0.7500 -1.1011
13747TIP3    H262657   3.926   4.046  14.660 -0.1526  0.0226 -0.5241
13748TIP3   OH262658   3.030   5.617   0.263 -0.1244 -0.4876  0.1830
13748TIP3    H162659   2.943   5.594   0.230 -0.4362  1.4134 -0.4333
13748TIP3    H262660   3.087   5.548   0.231 -1.5611 -2.4788  1.6598
13749TIP3   OH262661   1.595   0.631  15.840  0.0602  0.3882  0.3785
13749TIP3    H162662   1.571   0.715  15.802 -0.6143 -0.1017 -0.3283
13749TIP3    H262663   1.606   0.648  15.934 -0.8995  1.0910  0.3713
13750TIP3   OH262664   2.747   2.669  14.764  0.8684  0.3289 -0.1506
13750TIP3    H162665   2.663   2.702  14.732  0.0731  1.2719  2.6088
13750TIP3    H262666   2.743   2.575  14.750 -1.1246  0.2228  0.8061
13751TIP3   OH262667   5.506   2.032   6.565  0.6090  0.2010 -0.3814
13751TIP3    H162668   5.542   1.960   6.617 -0.3865 -1.3147 -1.7016
13751TIP3    H262669   5.411   2.016   6.566  0.4179  1.2016 -1.1519
13752TIP3   OH262670   3.423   2.395  11.633 -0.4204 -0.9042  0.5856
13752TIP3    H162671   3.445   2.426  11.721  0.5343 -0.2334  0.1336
13752TIP3    H262672   3.328   2.394  11.631 -0.4601 -0.1115  1.3698
13753TIP3   OH262673   3.027   5.929   3.468  0.3192  0.4804  0.1845
13753TIP3    H162674   3.116   5.914   3.438  0.1337 -0.9309  0.2686
13753TIP3    H262675   2.989   5.988   3.403  0.9564  0.1498 -0.5010
13754TIP3   OH262676   0.645   3.526   1.262 -0.5025  0.4210  0.3176
13754TIP3    H162677   0.718   3.545   1.204 -0.6150  1.8482  0.6091
13754TIP3    H262678   0.682   3.534   1.350 -0.8736  0.5457  0.4638
13755TIP3   OH262679   6.377   0.854   3.777 -0.0165  0.3042 -0.8535
13755TIP3    H162680   6.377   0.809   3.862  0.1074  0.7574 -0.6115
13755TIP3    H262681   6.468   0.849   3.748  0.0084  0.4389 -0.8016
13756TIP3   OH262682   3.479   2.173  13.186  0.6581 -0.2487 -0.3093
13756TIP3    H162683   3.496   2.264  13.165  0.4426 -0.1210  0.0582
13756TIP3    H262684   3.383   2.166  13.189  0.5678 -1.0832 -2.9316
13757TIP3   OH262685   4.166   1.929  11.076  0.1344 -0.1111 -0.4477
13757TIP3    H162686   4.094   1.931  11.013 -1.1574 -3.2819  0.6787
13757TIP3    H262687   4.228   1.994  11.045 -1.7062  0.4272 -3.3590
13758TIP3   OH262688   2.971   1.392   4.797  0.4673  0.4217 -0.5018
13758TIP3    H162689   3.030   1.424   4.865  1.1051  0.7040 -1.1832
13758TIP3    H262690   2.961   1.466   4.737 -0.2648  0.2465 -0.6071
13759TIP3   OH262691   4.240   1.358  10.635  0.0155  0.1892 -0.1683
13759TIP3    H162692   4.243   1.339  10.542  2.6902 -2.5983  0.3329
13759TIP3    H262693   4.273   1.447  10.643  0.8175  0.0672 -1.8272
13760TIP3   OH262694   3.193   0.044   5.602  0.1189  0.3193 -0.7767
13760TIP3    H162695   3.148   0.093   5.533 -0.8027  2.1570  1.0102
13760TIP3    H262696   3.148  -0.040   5.606 -2.4548  1.6431  0.1219
13761TIP3   OH262697   4.650   6.793  16.226  0.4329 -0.3927 -0.4028
13761TIP3    H162698   4.584   6.785  16.157  0.8363 -1.0967 -0.7212
13761TIP3    H262699   4.679   6.884  16.222  1.1209 -0.6560 -1.7926
13762TIP3   OH262700   1.148   1.022   6.091 -0.0198  0.2841 -0.5846
13762TIP3    H162701   1.113   1.104   6.125 -2.9110 -1.0283 -0.0667
13762TIP3    H262702   1.212   0.994   6.157 -1.4160  0.5499  0.9471
13763TIP3   OH262703   4.261   1.117   3.235 -0.4558 -0.1872 -0.2235
13763TIP3    H162704   4.167   1.127   3.220 -0.3770  1.5138  0.1698
13763TIP3    H262705   4.299   1.199   3.205  1.0161 -1.1409 -1.0747
13764TIP3   OH262706   1.011   0.836   5.562 -0.1161  0.6405 -0.2016
13764TIP3    H162707   0.972   0.809   5.644 -0.6621  1.4472 -0.1919
13764TIP3    H262708   1.077   0.901   5.586 -1.0893  1.7506 -0.4880
13765TIP3   OH262709   0.595   2.547  16.604 -0.0069  0.1967 -0.6381
13765TIP3    H162710   0.591   2.626  16.658 -0.7156 -0.3990  0.2070
13765TIP3    H262711   0.645   2.484  16.657  0.7955  0.1508 -1.4238
13766TIP3   OH262712   2.414   2.303   1.371  0.4993 -0.1364 -0.5018
13766TIP3    H162713   2.393   2.299   1.277  1.3968 -2.3203 -0.6613
13766TIP3    H262714   2.429   2.212   1.396 -0.3389  0.3232  1.9384
13767TIP3   OH262715   2.555   3.974  12.090  0.3034  0.5485  0.1372
13767TIP3    H162716   2.639   3.937  12.064  1.1997  1.3206  1.7879
13767TIP3    H262717   2.505   3.982  12.008  1.2763 -1.2445 -0.6782
13768TIP3   OH262718   1.585   3.753  14.861 -0.1727  0.5893  0.3805
13768TIP3    H162719   1.546   3.723  14.943  0.4868  1.5297  1.0505
13768TIP3    H262720   1.632   3.676  14.827 -1.4671 -0.1631  0.2365
13769TIP3   OH262721   4.398   0.995   3.644 -0.3374 -0.1141  0.3002
13769TIP3    H162722   4.419   1.086   3.621 -1.3177 -0.2210 -1.2076
13769TIP3    H262723   4.446   0.943   3.580 -0.6288 -0.6118  0.4841
13770TIP3   OH262724   1.873   6.458  15.141 -0.0129 -0.3754 -0.1292
13770TIP3    H162725   1.878   6.527  15.208 -0.4056 -0.9634  0.5179
13770TIP3    H262726   1.955   6.466  15.093  0.7701 -0.6358  1.1178
13771TIP3   OH262727   2.795   4.443  12.161  0.2156 -0.0416 -0.7525
13771TIP3    H162728   2.741   4.369  12.190  1.8191 -0.8737  0.2321
13771TIP3    H262729   2.835   4.476  12.241  1.5951  0.1960 -1.5159
13772TIP3   OH262730   5.248   5.599   5.759 -0.1815  0.2510 -0.2322
13772TIP3    H162731   5.252   5.509   5.727  0.3815 -0.3750  1.4705
13772TIP3    H262732   5.155   5.616   5.772 -0.2078 -0.9555  1.6001
13773TIP3   OH262733   2.423   3.488  15.534  0.1501 -0.2100 -0.2946
13773TIP3    H162734   2.487   3.540  15.486  0.5422 -1.2771 -0.9632
13773TIP3    H262735   2.363   3.456  15.467 -0.4509 -0.1117  0.1905
13774TIP3   OH262736   0.022   6.624   0.618  0.0356  0.1945  0.0944
13774TIP3    H162737   0.010   6.532   0.644  0.8190  0.4838  1.5518
13774TIP3    H262738   0.104   6.650   0.658 -0.7069  1.8556  0.6080
13775TIP3   OH262739   0.249   0.083   1.768 -0.3377 -0.0780 -0.1606
13775TIP3    H162740   0.322   0.075   1.707 -0.6091 -0.6784 -0.4217
13775TIP3    H262741   0.171   0.083   1.711 -0.5370  0.7519  0.0972
13776TIP3   OH262742   6.504   4.055  14.348 -0.2318 -0.1312  0.3132
13776TIP3    H162743   6.453   4.131  14.319 -0.6730 -0.6436 -0.2481
13776TIP3    H262744   6.452   4.017  14.419 -0.6905 -0.7246 -0.3403
13777TIP3   OH262745   1.649   3.952   2.601 -0.4774  0.3080 -0.3650
13777TIP3    H162746   1.579   3.944   2.536  1.5195 -1.4149 -2.4589
13777TIP3    H262747   1.661   3.863   2.633  0.8192  0.5585 -0.1226
13778TIP3   OH262748   1.878   0.111   1.962 -0.4324 -0.1623  0.0107
13778TIP3    H162749   1.865   0.049   2.033  0.0582 -0.1008  0.1538
13778TIP3    H262750   1.794   0.156   1.953 -0.3990  0.0637  0.7719
13779TIP3   OH262751   2.494   2.193  12.529  0.4432  0.0122 -0.2505
13779TIP3    H162752   2.419   2.175  12.473  1.2435  0.0972 -1.3834
13779TIP3    H262753   2.507   2.111  12.578 -0.0136 -0.2052 -0.4813
13780TIP3   OH262754   0.059   6.631  15.979 -0.0372 -0.1236 -0.0909
13780TIP3    H162755   0.110   6.553  15.957  0.0092 -1.0316  2.8678
13780TIP3    H262756  -0.028   6.614  15.944  0.4833 -0.5740 -1.2164
13781TIP3   OH262757   3.677   4.773   6.017  0.0632  0.5846  0.1145
13781TIP3    H162758   3.669   4.684   5.981  0.6060  0.7810 -0.5047
13781TIP3    H262759   3.673   4.830   5.940  3.1458  0.9159  0.0975
13782TIP3   OH262760   5.574   3.069  11.020 -0.5353  0.2601 -0.1111
13782TIP3    H162761   5.499   3.107  11.065 -0.3312  0.3586  0.1470
13782TIP3    H262762   5.648   3.127  11.042 -0.6755  1.0733 -1.6288
13783TIP3   OH262763   4.278   3.603  12.782 -0.6425 -0.5388  0.5252
13783TIP3    H162764   4.187   3.594  12.752 -0.6554 -0.3257  0.4923
13783TIP3    H262765   4.280   3.557  12.866 -0.0066 -3.2750 -0.8842
13784TIP3   OH262766   6.092   1.593   5.270  0.5613 -0.2095  0.5674
13784TIP3    H162767   6.013   1.572   5.219  0.8970  0.3782 -0.2147
13784TIP3    H262768   6.073   1.559   5.358 -1.0337  0.9523  0.7171
13785TIP3   OH262769   4.462   4.279  16.612  0.2627 -0.3703 -0.1538
13785TIP3    H162770   4.407   4.261  16.689  0.3759  0.0133  0.0183
13785TIP3    H262771   4.487   4.370  16.622  0.9637 -0.5544 -0.2165
13786TIP3   OH262772   5.073   4.986   2.313 -0.0838  0.1641  0.2692
13786TIP3    H162773   5.098   5.012   2.225 -0.5771  1.4479  0.4932
13786TIP3    H262774   5.067   4.890   2.309  0.2979  0.1781 -0.9686
13787TIP3   OH262775   6.118   4.583   5.276  0.4564  0.2771  0.2414
13787TIP3    H162776   6.067   4.605   5.353  0.5168 -1.0159  0.6842
13787TIP3    H262777   6.054   4.575   5.205  0.5329  2.6644 -0.1597
13788TIP3   OH262778   0.767   5.768   4.910  0.1231 -0.0263 -0.1867
13788TIP3    H162779   0.804   5.829   4.974 -0.6694  0.5839 -0.2985
13788TIP3    H262780   0.842   5.741   4.856  0.7093 -0.1513  0.6644
13789TIP3   OH262781   5.698   0.659  10.998  0.0034 -0.3105 -0.3986
13789TIP3    H162782   5.619   0.607  11.012 -0.4460  0.1579 -1.1520
13789TIP3    H262783   5.737   0.623  10.919  0.5050 -0.4830 -0.0779
13790TIP3   OH262784   3.775   6.535  16.329 -0.8756 -0.2157 -0.0959
13790TIP3    H162785   3.742   6.549  16.240 -0.4086 -0.5372 -0.3263
13790TIP3    H262786   3.870   6.540  16.320 -0.8180 -0.5011  0.3393
13791TIP3   OH262787   4.061   5.852  14.197 -0.7578 -0.1510 -0.2895
13791TIP3    H162788   4.076   5.804  14.278 -0.2170 -1.9168 -1.3716
13791TIP3    H262789   4.003   5.795  14.145 -0.4305  0.5475 -1.4690
13792TIP3   OH262790   0.622   5.493   4.956  0.0419  0.2932  0.7338
13792TIP3    H162791   0.678   5.569   4.945  0.2486  0.3296  1.8751
13792TIP3    H262792   0.591   5.499   5.046 -3.6440  1.4926 -0.4426
13793TIP3   OH262793   1.070   5.795  14.924 -0.0849 -0.2808  0.2902
13793TIP3    H162794   1.113   5.712  14.944  0.4490 -1.0587 -3.3655
13793TIP3    H262795   1.141   5.853  14.898 -0.7661 -0.0210 -1.0706
13794TIP3   OH262796   3.492   4.709  11.111 -0.2738 -0.1018  0.2515
13794TIP3    H162797   3.476   4.617  11.133  0.0067 -0.0060  0.9144
13794TIP3    H262798   3.538   4.706  11.027 -1.4594 -0.4909 -0.4035
13795TIP3   OH262799   3.185   3.439  12.422 -0.7688  0.3913  0.3357
13795TIP3    H162800   3.213   3.447  12.513  0.1365  0.2444  0.0752
13795TIP3    H262801   3.234   3.364  12.388 -0.8544  0.6428 -0.3618
13796TIP3   OH262802   4.867   4.756   3.948 -0.0613  0.6920  0.2409
13796TIP3    H162803   4.934   4.796   3.893 -0.3879  0.4768 -0.3186
13796TIP3    H262804   4.833   4.828   4.001 -0.0336  0.9856 -0.1359
13797TIP3   OH262805   4.403   3.790  13.044  0.3985  0.1717 -0.6341
13797TIP3    H162806   4.361   3.875  13.030  0.2498 -0.0047 -1.2848
13797TIP3    H262807   4.332   3.727  13.040  0.5030  0.0121 -0.1071
13798TIP3   OH262808   0.160   2.792   0.528  0.0000  0.4126  0.1031
13798TIP3    H162809   0.179   2.705   0.564 -1.0443 -0.3631 -1.1261
13798TIP3    H262810   0.091   2.776   0.463 -0.8482  2.2984  0.4823
13799TIP3   OH262811   4.972   2.290  15.061  0.0989  0.4422  0.1976
13799TIP3    H162812   4.993   2.206  15.021 -1.5276 -0.4393  1.1001
13799TIP3    H262813   4.984   2.275  15.155  0.3507  1.4034  0.3334
13800TIP3   OH262814   3.346   1.913  15.066  0.5431 -0.5067 -0.2801
13800TIP3    H162815   3.390   1.897  14.983  0.3921  0.1592 -0.4974
13800TIP3    H262816   3.413   1.899  15.133  0.6152 -1.2381 -0.4995
13801TIP3   OH262817   5.361   6.021  15.049 -0.1662 -0.1175 -0.2117
13801TIP3    H162818   5.343   5.946  15.105  0.9087  1.3517  2.2840
13801TIP3    H262819   5.441   5.998  15.001  0.7463 -0.2516  1.2990
13802TIP3   OH262820   3.013   5.571  16.113 -0.1913  0.4394  0.2253
13802TIP3    H162821   3.052   5.651  16.078  1.1988  0.7174  2.2332
13802TIP3    H262822   3.065   5.500  16.074 -0.9185  0.5339 -0.9464
13803TIP3   OH262823   5.516   3.049   3.819 -0.1428 -0.2100 -0.7819
13803TIP3    H162824   5.492   3.140   3.802 -1.2187  0.0146  1.5424
13803TIP3    H262825   5.609   3.044   3.799 -0.4357  0.8854 -2.7159
13804TIP3   OH262826   4.955   0.795  15.818 -0.0927 -0.0579 -0.0798
13804TIP3    H162827   5.013   0.724  15.788 -0.8376 -0.9897  0.6216
13804TIP3    H262828   5.014   0.868  15.836  0.5697 -0.0499 -2.0372
13805TIP3   OH262829   0.627   5.398   3.541  0.3968  0.3083  0.0956
13805TIP3    H162830   0.608   5.480   3.497  0.6239 -0.0591 -0.6982
13805TIP3    H262831   0.670   5.343   3.475  3.7100  0.8550  1.5661
13806TIP3   OH262832   0.292   4.456   3.253  0.3374 -0.2569 -0.3809
13806TIP3    H162833   0.289   4.550   3.270  2.5189  0.0748 -1.4901
13806TIP3    H262834   0.297   4.416   3.340 -1.1010  0.5981  0.1180
13807TIP3   OH262835   5.257   5.644   3.178 -0.1728  0.1583 -0.6838
13807TIP3    H162836   5.341   5.599   3.174 -0.2829 -0.1738  0.3457
13807TIP3    H262837   5.276   5.726   3.224 -0.5639 -0.3437  0.4148
13808TIP3   OH262838   0.319   2.825   3.444  0.0295  0.1324 -0.4757
13808TIP3    H162839   0.239   2.779   3.420  0.1606 -0.2517 -0.1870
13808TIP3    H262840   0.376   2.757   3.480 -0.2153  0.6920  1.0376
13809TIP3   OH262841   6.714   4.181  14.971 -0.1755 -0.1702 -0.1503
13809TIP3    H162842   6.687   4.159  14.882  0.7794 -2.4318  0.0671
13809TIP3    H262843   6.660   4.125  15.027 -0.5196  0.9742  0.7106
13810TIP3   OH262844   6.595   2.463  10.836  0.0004 -0.4288  0.6616
13810TIP3    H162845   6.628   2.374  10.837  1.6880  0.1640  0.1453
13810TIP3    H262846   6.518   2.460  10.779  0.5915 -1.3623 -0.1085
13811TIP3   OH262847   5.969   3.884   5.752  0.1815 -0.6492 -0.4696
13811TIP3    H162848   6.014   3.898   5.668  1.8620  1.3934  0.6984
13811TIP3    H262849   5.962   3.971   5.791 -1.6653 -1.3954  1.0160
13812TIP3   OH262850   0.388   2.980   0.405  0.1818 -0.3469  0.0049
13812TIP3    H162851   0.386   2.964   0.311 -0.3628 -1.6441  0.2148
13812TIP3    H262852   0.315   2.928   0.440  1.7628 -1.7435  1.3913
13813TIP3   OH262853   6.342   4.291   3.487 -0.3084  0.4768  0.2286
13813TIP3    H162854   6.349   4.201   3.519  0.5276  0.1428 -0.8118
13813TIP3    H262855   6.267   4.327   3.534 -2.4055 -1.6096 -1.2497
13814TIP3   OH262856   3.685   0.516   2.439 -0.2628  0.2883  0.3710
13814TIP3    H162857   3.613   0.456   2.419  0.2478 -0.1292 -0.2491
13814TIP3    H262858   3.761   0.459   2.451  0.0509  0.7542  0.6108
13815TIP3   OH262859   1.056   2.191  13.561 -0.1351 -0.5086 -0.0169
13815TIP3    H162860   0.960   2.188  13.561 -0.1881 -1.2751  2.5471
13815TIP3    H262861   1.083   2.103  13.536 -0.1626 -0.8921  1.2625
13816TIP3   OH262862   4.686   2.655  13.531 -0.4437  0.0037 -0.5096
13816TIP3    H162863   4.644   2.696  13.607 -0.9995  0.5400 -1.0974
13816TIP3    H262864   4.726   2.575  13.566  0.2896  0.8270  0.5685
13817TIP3   OH262865   0.443   4.066   3.520 -0.2768  0.0439  0.3027
13817TIP3    H162866   0.413   4.057   3.430 -0.2547  0.7631  0.2144
13817TIP3    H262867   0.535   4.039   3.518 -0.5086 -0.7741  0.2887
13818TIP3   OH262868   5.724   4.100  12.331 -0.3607  0.0377 -0.3841
13818TIP3    H162869   5.684   4.075  12.414 -2.1166 -0.4527 -1.3219
13818TIP3    H262870   5.666   4.168  12.296  0.7660  0.7752 -0.8848
13819TIP3   OH262871   0.199   1.851  12.341  0.1882 -0.1954 -0.3205
13819TIP3    H162872   0.270   1.841  12.278  0.5313  1.6620 -0.3095
13819TIP3    H262873   0.219   1.788  12.410  2.2748  0.7400  0.0346
13820TIP3   OH262874   4.434   1.932   6.139  0.4131  0.3800 -0.3104
13820TIP3    H162875   4.341   1.944   6.158  0.4012  0.6180 -0.5118
13820TIP3    H262876   4.446   1.969   6.051  0.3467 -1.2493 -1.0435
13821TIP3   OH262877   2.993   4.793  12.697 -0.0959 -0.2821 -0.2859
13821TIP3    H162878   2.974   4.872  12.647 -1.4675 -0.9323 -0.8437
13821TIP3    H262879   2.920   4.786  12.759  0.1080 -1.0053 -0.1117
13822TIP3   OH262880   1.777   3.879  15.400 -0.0889  0.7311 -0.1103
13822TIP3    H162881   1.712   3.946  15.382  0.5370  1.4078  0.1033
13822TIP3    H262882   1.852   3.927  15.435  0.9180  0.0966 -1.3041
13823TIP3   OH262883   1.915   1.232  11.909 -0.2181  0.6547 -0.1621
13823TIP3    H162884   1.954   1.319  11.915 -0.5645  0.7538  1.0985
13823TIP3    H262885   1.966   1.187  11.842  0.7560  1.4262  0.0329
13824TIP3   OH262886   1.938   0.001   4.805 -0.2527 -0.1556  0.2816
13824TIP3    H162887   2.011  -0.060   4.809 -0.6283 -0.5779  0.9072
13824TIP3    H262888   1.915   0.017   4.896 -1.2558 -0.4320  0.0911
13825TIP3   OH262889   6.048   4.121  15.105  0.1974  0.6545  0.5457
13825TIP3    H162890   6.085   4.062  15.170  0.4508 -0.5692 -0.6507
13825TIP3    H262891   6.116   4.186  15.089  0.5112  0.3898  0.8005
13826TIP3   OH262892   2.185   6.027  12.917 -0.3469  0.4210  0.5571
13826TIP3    H162893   2.113   6.077  12.879 -0.4111  0.1720  0.3449
13826TIP3    H262894   2.172   6.033  13.012  0.4239  1.9455  0.5978
13827TIP3   OH262895   5.863   2.473  15.601  0.1072  0.5170 -0.9559
13827TIP3    H162896   5.929   2.465  15.532 -0.2639 -3.1650 -1.0872
13827TIP3    H262897   5.788   2.424  15.568  0.0534 -1.7318  2.1427
13828TIP3   OH262898   1.059   5.404   0.799  0.0495 -0.5597  0.0232
13828TIP3    H162899   0.986   5.420   0.859 -1.0550 -0.5565 -1.2597
13828TIP3    H262900   1.109   5.486   0.800 -0.9446  0.0787 -0.3358
13829TIP3   OH262901   4.555   0.134  15.501  0.5233 -0.2923 -0.6144
13829TIP3    H162902   4.585   0.087  15.424 -0.0377  1.4848 -1.9882
13829TIP3    H262903   4.631   0.186  15.529  0.6999 -0.8670  0.0043
13830TIP3   OH262904   1.200   5.847   0.810  0.1313 -0.3321  0.0785
13830TIP3    H162905   1.121   5.863   0.758 -0.5762  0.4229  1.3347
13830TIP3    H262906   1.186   5.759   0.847 -1.0995  0.5630  1.8846
13831TIP3   OH262907   2.531   3.264   5.027 -0.2148 -0.0751 -0.3869
13831TIP3    H162908   2.525   3.196   5.094  0.5123 -2.0001 -2.1731
13831TIP3    H262909   2.563   3.341   5.074 -0.2660 -1.1834  1.5623
13832TIP3   OH262910   2.399   2.042  14.166  0.3415 -0.5872  0.5632
13832TIP3    H162911   2.493   2.058  14.171  0.3431 -0.3376 -0.1678
13832TIP3    H262912   2.391   1.948  14.152  0.5388 -0.4536 -0.5677
13833TIP3   OH262913   5.480   1.941   3.864 -0.4728  0.0645  0.5587
13833TIP3    H162914   5.537   1.954   3.789 -0.0047  1.1460  1.0817
13833TIP3    H262915   5.525   1.984   3.937 -0.4492 -1.7922  1.6945
13834TIP3   OH262916   0.297   3.545   5.502 -0.4385  0.0697  0.6771
13834TIP3    H162917   0.327   3.631   5.531  1.1415 -0.2438  0.0901
13834TIP3    H262918   0.335   3.484   5.566 -0.1012 -0.3109  0.1282
13835TIP3   OH262919   0.144   2.064   3.154 -0.3765 -0.1563 -0.5017
13835TIP3    H162920   0.219   2.042   3.100 -0.3812  0.1720 -0.6444
13835TIP3    H262921   0.178   2.127   3.218 -0.2009 -1.0773  0.3390
13836TIP3   OH262922   6.464   2.719   5.804  0.1308  0.3139  0.4538
13836TIP3    H162923   6.501   2.770   5.732 -2.2924 -2.0773 -2.7508
13836TIP3    H262924   6.505   2.633   5.795 -1.4006 -0.4859  0.9189
13837TIP3   OH262925   6.251   5.863   3.444  0.3407 -0.0855  0.1296
13837TIP3    H162926   6.241   5.839   3.536  2.0003  0.1161  0.3989
13837TIP3    H262927   6.344   5.848   3.426  1.3974  4.8721  0.0206
13838TIP3   OH262928   2.736   0.865   4.897  0.5476 -0.4035  0.2161
13838TIP3    H162929   2.775   0.952   4.900  0.9670 -0.6059  0.6136
13838TIP3    H262930   2.641   0.881   4.895  0.6332  0.0668 -0.0965
13839TIP3   OH262931   4.298   4.206  16.848  0.8646 -0.0924 -0.0207
13839TIP3    H162932   4.205   4.181  16.850  0.2920  1.5971 -1.8171
13839TIP3    H262933   4.308   4.270  16.918  1.4693 -2.4468  2.1734
13840TIP3   OH262934   4.866   0.699   1.518 -0.5500 -0.6483  0.3669
13840TIP3    H162935   4.775   0.702   1.487 -0.9787  0.0829  1.6336
13840TIP3    H262936   4.876   0.778   1.570  1.1760 -0.1508 -0.6402
13841TIP3   OH262937   3.514   5.881  15.358 -0.8918  0.4146  0.0653
13841TIP3    H162938   3.435   5.919  15.319 -1.1658  0.5796  0.7721
13841TIP3    H262939   3.570   5.957  15.377  0.0855  0.2133 -1.7764
13842TIP3   OH262940   4.952   5.250   4.601 -0.3793 -0.3277  0.9345
13842TIP3    H162941   4.958   5.295   4.517 -1.6810  0.9179  1.4725
13842TIP3    H262942   4.980   5.161   4.582 -0.2443  0.0298 -0.7229
13843TIP3   OH262943   5.702   0.620   0.704  0.8305 -0.1720 -0.1938
13843TIP3    H162944   5.723   0.617   0.611 -0.6570  0.1601 -0.5597
13843TIP3    H262945   5.785   0.642   0.746  1.1385  1.6495 -1.5995
13844TIP3   OH262946   5.361   4.164  14.132 -0.0765 -0.5217 -0.2902
13844TIP3    H162947   5.283   4.186  14.082  0.8603 -0.3724 -1.7478
13844TIP3    H262948   5.375   4.239  14.190 -1.8868 -1.2409  1.1563
13845TIP3   OH262949   4.488   5.270   3.204  0.1546 -0.1303  0.1563
13845TIP3    H162950   4.507   5.278   3.111 -2.8102  0.2659 -0.5344
13845TIP3    H262951   4.502   5.357   3.239 -2.2994  0.7426 -0.8041
13846TIP3   OH262952   4.967   4.033   4.491 -0.0481 -0.6870  0.0679
13846TIP3    H162953   4.913   4.095   4.540 -0.4878 -0.7971 -0.2641
13846TIP3    H262954   4.911   4.005   4.418  0.1194 -1.5227  0.2490
13847TIP3   OH262955   5.697   4.522   2.931 -0.3451 -0.4325 -0.3743
13847TIP3    H162956   5.759   4.453   2.957  1.4558  1.7371  1.5116
13847TIP3    H262957   5.680   4.571   3.012  0.3733  2.7681 -2.0084
13848TIP3   OH262958   2.913   1.848  15.689  0.4763 -0.5694 -0.3477
13848TIP3    H162959   2.982   1.796  15.730  0.3160 -1.2050 -0.8778
13848TIP3    H262960   2.921   1.830  15.596 -1.6545 -2.2462 -0.2787
13849TIP3   OH262961   0.184   6.559   1.539 -0.5634 -0.1341  0.0824
13849TIP3    H162962   0.138   6.614   1.475 -1.9285 -2.0931 -0.6938
13849TIP3    H262963   0.212   6.482   1.490  3.0701  0.6148  0.6753
13850TIP3   OH262964   3.531   4.688  14.671  0.0092 -0.2776 -1.1421
13850TIP3    H162965   3.443   4.706  14.639  0.1024  0.8530 -0.7890
13850TIP3    H262966   3.518   4.634  14.749 -0.2723 -1.7743 -2.1748
13851TIP3   OH262967   0.904   0.611   5.453  0.0010 -0.4500  0.4998
13851TIP3    H162968   0.894   0.700   5.486  0.8744 -0.5841  1.1433
13851TIP3    H262969   0.870   0.615   5.363  0.0301  0.5271  0.5251
13852TIP3   OH262970   3.529   5.569  16.985  0.1755 -0.3764 -0.1336
13852TIP3    H162971   3.570   5.533  17.063  2.0741 -0.5683 -1.1623
13852TIP3    H262972   3.544   5.503  16.917 -3.6423 -1.4130 -0.1825
13853TIP3   OH262973   4.779   1.719   5.886  0.5940  0.2616 -0.5655
13853TIP3    H162974   4.774   1.815   5.891  1.2689  0.2473  1.2349
13853TIP3    H262975   4.737   1.689   5.967  3.1434 -0.8167  0.4532
13854TIP3   OH262976   2.123   3.817  14.781 -0.3955  0.2401  0.4739
13854TIP3    H162977   2.187   3.752  14.755 -1.1514 -0.3737  0.1041
13854TIP3    H262978   2.057   3.768  14.831 -3.3160 -0.2716 -3.3818
13855TIP3   OH262979   4.801   0.504  16.306  0.2156 -0.3879 -0.2274
13855TIP3    H162980   4.809   0.465  16.393 -0.5044 -1.5763 -0.6820
13855TIP3    H262981   4.891   0.529  16.283  0.4011  0.0281  0.8821
13856TIP3   OH262982   1.635   1.387  13.064  0.0616  0.0026  0.2120
13856TIP3    H162983   1.586   1.457  13.022 -0.0913 -0.6276 -0.6878
13856TIP3    H262984   1.585   1.307  13.045  0.7467 -0.4773  0.3794
13857TIP3   OH262985   0.807   1.031  17.100  0.6023 -0.1888  0.4923
13857TIP3    H162986   0.715   1.017  17.079  0.2336  2.0713  0.3323
13857TIP3    H262987   0.855   0.976  17.038 -0.6186 -0.9161  0.1726
13858TIP3   OH262988   6.515   6.622   1.627  0.4051  0.0590 -0.0078
13858TIP3    H162989   6.585   6.665   1.578  0.2208 -0.2291 -0.5259
13858TIP3    H262990   6.456   6.587   1.560  0.4169 -0.7860  0.4100
13859TIP3   OH262991   6.666   6.381  12.065 -0.5166  0.2253  0.0237
13859TIP3    H162992   6.643   6.470  12.040  0.9391  0.5453 -0.2657
13859TIP3    H262993   6.693   6.339  11.983  2.1176  0.5966  0.6171
13860TIP3   OH262994   3.038   5.792   2.347  0.3101 -0.1165  0.4411
13860TIP3    H162995   3.019   5.753   2.433  0.8223 -0.2865  0.4808
13860TIP3    H262996   3.132   5.782   2.337  1.0680  3.7915  1.8279
13861TIP3   OH262997   6.132   3.829   5.530  0.3463 -0.1755  0.5416
13861TIP3    H162998   6.148   3.878   5.450  0.8044  0.7696  1.1928
13861TIP3    H262999   6.169   3.742   5.513 -2.7917 -1.2796 -1.6053
13862TIP3   OH263000   0.698   3.478  12.809  0.9248  0.7147 -0.3858
13862TIP3    H163001   0.791   3.471  12.786  1.2851  1.8112  0.6667
13862TIP3    H263002   0.693   3.554  12.867 -0.6394  0.6776 -0.4351
13863TIP3   OH263003   0.502   3.602  13.914  0.1506 -0.1120 -0.1050
13863TIP3    H163004   0.502   3.698  13.916 -0.6488 -0.1071  0.0430
13863TIP3    H263005   0.442   3.577  13.985 -1.4762 -0.6576 -1.6119
13864TIP3   OH263006   4.508   1.990  13.081  0.0508 -0.4917 -0.2744
13864TIP3    H163007   4.590   1.948  13.109  0.6190  0.8354  0.0969
13864TIP3    H263008   4.469   1.927  13.020  1.3952 -1.1080 -0.5367
13865TIP3   OH263009   0.240   3.046  12.159  0.5777 -0.9781  0.4015
13865TIP3    H163010   0.213   2.956  12.179  1.2274 -0.8448  2.0843
13865TIP3    H263011   0.173   3.100  12.201 -0.7936 -0.6258 -2.0846
13866TIP3   OH263012   0.080   0.143   1.582  0.4127  0.2528  0.0582
13866TIP3    H163013   0.135   0.173   1.509  0.2187 -0.5042 -0.4073
13866TIP3    H263014   0.039   0.223   1.614  2.7353  1.0695  1.2588
13867TIP3   OH263015   3.357   6.564   0.758  0.2445  0.1787 -0.1621
13867TIP3    H163016   3.328   6.589   0.845 -1.5553 -1.7485 -0.1421
13867TIP3    H263017   3.286   6.592   0.700  1.2977  1.1960 -1.0170
13868TIP3   OH263018   4.745   6.252   2.665  0.5792  0.1177  0.4666
13868TIP3    H163019   4.677   6.266   2.731  1.7392  2.4148  1.2678
13868TIP3    H263020   4.762   6.157   2.668 -1.4189 -0.2586  1.3683
13869TIP3   OH263021   1.998   2.782   3.384 -0.1151 -0.1477  0.3293
13869TIP3    H163022   2.052   2.842   3.434 -0.5051  2.2655 -1.9314
13869TIP3    H263023   2.059   2.716   3.351  1.1031  1.2603 -0.3390
13870TIP3   OH263024   4.940   3.567   4.603  0.0169  0.8239  0.0455
13870TIP3    H163025   4.890   3.486   4.590  1.0052  0.2753 -0.4108
13870TIP3    H263026   4.953   3.602   4.515 -1.4996  2.1939  0.3084
13871TIP3   OH263027   6.723   6.497   3.760  0.4522  0.0367  0.2691
13871TIP3    H163028   6.677   6.419   3.727 -0.0213  1.1820 -2.0153
13871TIP3    H263029   6.807   6.464   3.791  0.5000 -1.3578 -1.1749
13872TIP3   OH263030   4.380   5.876  14.910  0.0865 -0.1714  0.0730
13872TIP3    H163031   4.330   5.814  14.964  1.0264 -0.5063  0.5890
13872TIP3    H263032   4.430   5.927  14.973  1.7496 -1.0420 -0.4812
13873TIP3   OH263033   5.785   1.908   0.593  0.7003 -0.2534 -0.1555
13873TIP3    H163034   5.837   1.831   0.615  0.6620 -0.1279  0.3905
13873TIP3    H263035   5.832   1.981   0.633  0.5383 -0.0382 -0.3545
13874TIP3   OH263036   2.279   0.331  13.437  0.2166  0.2388  0.0743
13874TIP3    H163037   2.185   0.346  13.443  0.1588  0.2971 -0.8354
13874TIP3    H263038   2.295   0.255  13.493 -0.2380  0.7175  0.8739
13875TIP3   OH263039   0.238   2.475  11.650  0.1536 -0.3656  0.0401
13875TIP3    H163040   0.271   2.564  11.640 -0.0924 -0.3400 -0.5663
13875TIP3    H263041   0.241   2.437  11.562 -0.4957 -0.6897  0.1459
13876TIP3   OH263042   5.428   6.337  16.757 -0.0703  0.1984 -0.3718
13876TIP3    H163043   5.412   6.332  16.852  0.6294  1.3517 -0.1734
13876TIP3    H263044   5.472   6.421  16.745  0.6650 -0.3471 -1.6090
13877TIP3   OH263045   2.240   4.805   0.229  0.2998 -0.5130  0.2173
13877TIP3    H163046   2.318   4.750   0.233 -0.4466 -1.7021 -0.8591
13877TIP3    H263047   2.235   4.834   0.138  1.0052  1.9112  0.8579
13878TIP3   OH263048   1.811   6.712  11.243  0.1623 -0.1478 -0.7148
13878TIP3    H163049   1.858   6.772  11.185 -0.8574  1.1086 -0.2956
13878TIP3    H263050   1.719   6.737  11.232 -0.1458 -0.6944  0.5376
13879TIP3   OH263051   3.635   4.273   2.125 -0.0124  0.0990 -0.4288
13879TIP3    H163052   3.638   4.366   2.101  1.8044  0.2660  0.2944
13879TIP3    H263053   3.702   4.263   2.192 -0.2082 -1.7370 -0.4494
13880TIP3   OH263054   1.700   4.729   4.239 -0.1286 -0.1019  0.5649
13880TIP3    H163055   1.732   4.721   4.330  0.9803 -0.2691  0.1822
13880TIP3    H263056   1.686   4.639   4.211  0.2061 -0.0931  0.3545
13881TIP3   OH263057   1.098   5.284  13.179 -0.5692  0.3955  0.4138
13881TIP3    H163058   1.015   5.285  13.130  0.3457 -0.1065 -1.2156
13881TIP3    H263059   1.089   5.211  13.240 -0.0086 -2.0623 -2.2572
13882TIP3   OH263060   3.805   1.065  15.780  0.0539  0.1602 -0.1101
13882TIP3    H163061   3.733   1.123  15.754  0.4337  0.1534 -1.2169
13882TIP3    H263062   3.765   1.006  15.845 -0.8983  0.2837 -0.5570
13883TIP3   OH263063   1.790   1.856  16.184  0.1638  0.6373  0.0960
13883TIP3    H163064   1.867   1.799  16.177  0.1457  0.6643 -0.3549
13883TIP3    H263065   1.724   1.801  16.225  0.0636  0.2372 -0.5807
13884TIP3   OH263066   3.169   1.780  14.903 -0.2235  0.2520  0.1489
13884TIP3    H163067   3.184   1.809  14.993  0.2221  0.2914  0.0676
13884TIP3    H263068   3.191   1.856  14.850  4.2272 -1.0430 -0.2756
13885TIP3   OH263069   3.224   5.097   0.089 -0.4930  0.0228 -0.0263
13885TIP3    H163070   3.276   5.175   0.069 -0.2480 -0.4633 -1.3773
13885TIP3    H263071   3.263   5.062   0.168 -0.1096  0.8313  0.1529
13886TIP3   OH263072   6.415   1.964   5.316  0.2986  0.1731  0.0348
13886TIP3    H163073   6.329   1.932   5.288  0.7240 -0.0600 -1.0262
13886TIP3    H263074   6.418   1.943   5.409  0.6933 -3.2936 -0.6497
13887TIP3   OH263075   5.328   0.919  11.427  0.1030  0.0118  0.4529
13887TIP3    H163076   5.372   0.927  11.512 -2.1739  0.7932  1.6406
13887TIP3    H263077   5.259   0.986  11.430 -0.3625 -0.2932 -1.8256
13888TIP3   OH263078   6.466   4.477   1.915  0.4178  0.0056  0.6566
13888TIP3    H163079   6.532   4.530   1.960 -0.5446 -0.3674  2.6089
13888TIP3    H263080   6.512   4.398   1.887  1.7506  1.5189 -1.8367
13889TIP3   OH263081   0.306   1.472   3.431 -0.4960  0.2097  0.2491
13889TIP3    H163082   0.227   1.506   3.388  0.4070  1.3325 -0.6101
13889TIP3    H263083   0.351   1.550   3.463  2.1698  0.0827 -2.6729
13890TIP3   OH263084   2.769   4.400   0.542  0.1864 -0.0099  0.5011
13890TIP3    H163085   2.776   4.321   0.488  1.4869  0.6800 -0.3766
13890TIP3    H263086   2.848   4.400   0.595 -0.5183 -0.0543  1.5813
13891TIP3   OH263087   3.813   1.628   1.379  0.6307 -0.2790  0.1607
13891TIP3    H163088   3.784   1.706   1.331  0.5266 -0.9891 -0.9689
13891TIP3    H263089   3.749   1.617   1.449  0.3921  0.3876  0.0570
13892TIP3   OH263090   6.745   2.242  10.934  0.3545 -0.1780  0.0474
13892TIP3    H163091   6.835   2.214  10.953 -0.1325 -0.8108  1.5633
13892TIP3    H263092   6.694   2.210  11.008 -0.7799  2.0318  0.2877
13893TIP3   OH263093   1.387   4.375  14.024 -0.1320 -0.0571 -0.2806
13893TIP3    H163094   1.431   4.424  13.955  0.5870 -0.3410 -0.0389
13893TIP3    H263095   1.335   4.309  13.977 -0.5339  0.4662 -0.5800
13894TIP3   OH263096   1.205   6.485  14.655  0.9182  0.3096  0.2396
13894TIP3    H163097   1.168   6.568  14.624  1.0726  0.9937  1.8144
13894TIP3    H263098   1.300   6.495  14.643  0.8710 -0.0848 -0.5637
13895TIP3   OH263099   2.604   4.013   2.560 -0.3753  0.0389  1.0817
13895TIP3    H163100   2.570   4.086   2.612 -0.1365  0.1688  1.0545
13895TIP3    H263101   2.687   3.991   2.601  0.2592  0.7409  0.2012
13896TIP3   OH263102   2.417   5.492  14.638  0.1717  0.5243  0.5570
13896TIP3    H163103   2.426   5.502  14.732  0.1775 -0.9754  0.7422
13896TIP3    H263104   2.354   5.560  14.612 -1.2911 -0.2411  1.9262
13897TIP3   OH263105   1.334   2.784   3.241  0.2486  0.2530 -0.2129
13897TIP3    H163106   1.412   2.831   3.211 -0.4040  1.2830 -0.3633
13897TIP3    H263107   1.356   2.691   3.230  1.5129  0.5133 -0.0663
13898TIP3   OH263108   0.991   5.612  13.994 -0.3575  0.1006 -0.5218
13898TIP3    H163109   0.987   5.547  14.064 -2.1646  0.2777 -0.4136
13898TIP3    H263110   0.999   5.696  14.039 -0.1447  0.1184 -0.5894
13899TIP3   OH263111   4.888   4.847   0.642 -0.7433 -0.4159 -0.2919
13899TIP3    H163112   4.946   4.790   0.693 -1.9242 -1.0377  0.4064
13899TIP3    H263113   4.900   4.818   0.551  1.3427  0.6678 -0.4113
13900TIP3   OH263114   5.185   5.609  15.707 -0.2415 -0.1720 -0.2990
13900TIP3    H163115   5.239   5.541  15.665  0.5655 -0.4628  1.1519
13900TIP3    H263116   5.145   5.565  15.781 -0.3010  0.7513  0.2232
13901TIP3   OH263117   3.251   2.880   3.980 -0.3958  0.0007 -0.2259
13901TIP3    H163118   3.324   2.919   3.932 -1.2035  1.0132 -0.6674
13901TIP3    H263119   3.173   2.916   3.938 -1.2212 -2.4287 -0.9429
13902TIP3   OH263120   5.343   2.207  15.180  0.2040  0.3977 -0.4268
13902TIP3    H163121   5.285   2.281  15.198  0.5142  0.5353  0.0107
13902TIP3    H263122   5.291   2.130  15.205  0.2250  0.5242  0.0130
13903TIP3   OH263123   4.335   0.810   4.621 -0.7713 -0.3584  0.0360
13903TIP3    H163124   4.421   0.823   4.662 -1.4649 -3.4742  2.9674
13903TIP3    H263125   4.355   0.763   4.539  0.3818 -1.3034  0.8114
13904TIP3   OH263126   4.408   0.431   3.474  0.2137 -0.6675 -0.3586
13904TIP3    H163127   4.417   0.336   3.460 -0.1412 -0.6865 -0.4637
13904TIP3    H263128   4.353   0.461   3.402 -0.1236 -0.4701 -0.0242
13905TIP3   OH263129   0.757   3.783  12.793 -0.0498  0.2691  0.0374
13905TIP3    H163130   0.673   3.770  12.838  0.0540  2.5380  1.0622
13905TIP3    H263131   0.760   3.877  12.776  2.0376  0.1431 -0.5135
13906TIP3   OH263132   6.801   5.060   1.857  0.2104  0.3277 -0.5001
13906TIP3    H163133   6.738   5.116   1.812  1.7919  1.2732 -1.6320
13906TIP3    H263134   6.823   5.108   1.937 -1.0083 -0.3662  0.3009
13907TIP3   OH263135   2.390   4.412  16.143  0.1219 -0.6200 -0.3755
13907TIP3    H163136   2.453   4.347  16.112 -1.0240 -2.5353  1.0755
13907TIP3    H263137   2.436   4.459  16.212  1.0640  0.3671 -1.6349
13908TIP3   OH263138   5.892   2.030   3.580  0.1811  0.0677  0.6024
13908TIP3    H163139   5.810   2.001   3.618  0.6043 -0.8350  0.8570
13908TIP3    H263140   5.875   2.120   3.552 -0.7749  0.0171  0.9799
13909TIP3   OH263141   2.151   3.498   5.564 -0.0022  0.2434 -0.2992
13909TIP3    H163142   2.228   3.551   5.583  2.2595 -2.9855  0.5119
13909TIP3    H263143   2.172   3.456   5.480  0.9581 -3.3090  1.4959
13910TIP3   OH263144   3.360   2.580  16.507 -0.0488  0.3476 -0.0723
13910TIP3    H163145   3.351   2.621  16.593  0.7907 -0.4771  0.4257
13910TIP3    H263146   3.280   2.528  16.498 -0.9317  1.7299 -0.5362
13911TIP3   OH263147   6.352   1.214   2.899 -0.6389 -0.8991 -0.4006
13911TIP3    H163148   6.311   1.152   2.960 -0.4299 -1.0739 -0.4372
13911TIP3    H263149   6.278   1.255   2.853 -0.9150  0.5738  1.2545
13912TIP3   OH263150   5.165   5.070  16.405  0.3321  0.2500  0.2848
13912TIP3    H163151   5.092   5.012  16.382 -0.2129  0.8485  0.4807
13912TIP3    H263152   5.213   5.081  16.323 -0.0534  0.2054  0.0451
13913TIP3   OH263153   3.818   0.420  14.801 -0.1899  0.1974 -0.0290
13913TIP3    H163154   3.889   0.356  14.808  1.1047  1.7229  2.7574
13913TIP3    H263155   3.749   0.385  14.857 -0.5551 -0.0045 -0.6030
13914TIP3   OH263156   3.645   6.792   5.282 -0.2420  0.2718  0.2964
13914TIP3    H163157   3.569   6.822   5.331 -0.1074  0.7865  0.2036
13914TIP3    H263158   3.611   6.765   5.197 -0.0378  3.1679 -0.8366
13915TIP3   OH263159   1.213   5.726   1.621 -0.0559  0.4455 -0.2146
13915TIP3    H163160   1.305   5.700   1.624 -0.3343 -0.6152 -0.6751
13915TIP3    H263161   1.188   5.717   1.530 -0.6325  0.7247 -0.0893
13916TIP3   OH263162   0.953   2.562  14.895  0.0821 -0.0424  0.3504
13916TIP3    H163163   0.932   2.632  14.833  0.0087  0.1414  0.5771
13916TIP3    H263164   0.989   2.608  14.971  2.5368 -0.4086 -0.4960
13917TIP3   OH263165   4.642   5.856   1.784  0.1289  0.1902 -0.5636
13917TIP3    H163166   4.618   5.807   1.706 -1.3740  1.2447 -0.8056
13917TIP3    H263167   4.560   5.895   1.815  0.5715 -0.5926  1.8556
13918TIP3   OH263168   0.968   4.625   4.729 -0.2443 -0.2828  0.4949
13918TIP3    H163169   0.883   4.583   4.712 -0.6451  1.4165 -2.2960
13918TIP3    H263170   0.947   4.696   4.790 -1.0971  0.7088 -0.8756
13919TIP3   OH263171   3.588   4.969  11.970 -0.2774 -0.0961 -0.4007
13919TIP3    H163172   3.653   5.036  11.949  1.1691 -0.7178  1.7647
13919TIP3    H263173   3.566   4.930  11.885  1.9852  0.3105 -1.2500
13920TIP3   OH263174   2.537   5.452   2.021 -0.4619 -0.3296 -0.0106
13920TIP3    H163175   2.605   5.423   1.961 -1.0219 -1.0898 -0.2961
13920TIP3    H263176   2.558   5.410   2.104  0.9770  1.6346  0.7050
13921TIP3   OH263177   4.638   5.443   5.840  0.2486  0.5137 -0.4199
13921TIP3    H163178   4.622   5.453   5.746 -0.6904  2.1080 -0.1402
13921TIP3    H263179   4.662   5.531   5.870 -0.6653  0.3074  1.0325
13922TIP3   OH263180   0.715   0.011  16.381 -0.0347  0.4511 -0.2062
13922TIP3    H163181   0.636  -0.031  16.416 -0.4915  1.3830 -0.0988
13922TIP3    H263182   0.750  -0.053  16.319 -1.3830  0.3825 -0.9316
13923TIP3   OH263183   5.382   3.743   2.302 -0.7259 -0.3233 -0.5564
13923TIP3    H163184   5.362   3.727   2.210  0.0026 -3.1937 -0.3112
13923TIP3    H263185   5.452   3.808   2.300 -2.3247  1.4807 -1.8574
13924TIP3   OH263186   5.945   6.579  14.041 -0.5900  0.1950 -0.8040
13924TIP3    H163187   6.013   6.617  14.096  0.9733 -0.1171 -2.4326
13924TIP3    H263188   5.951   6.627  13.959 -2.0608 -0.1510 -1.1437
13925TIP3   OH263189   4.592   2.161   2.658  0.1640  0.1159 -0.0869
13925TIP3    H163190   4.638   2.181   2.739  0.7428 -0.0184 -0.3794
13925TIP3    H263191   4.590   2.244   2.610  2.1063 -0.3389 -1.0679
13926TIP3   OH263192   5.703   1.454  11.721 -0.7631  0.7435  0.1787
13926TIP3    H163193   5.746   1.368  11.717  1.2127  1.6999 -0.2021
13926TIP3    H263194   5.628   1.445  11.662  0.0655 -0.3916 -0.7543
13927TIP3   OH263195   4.934   6.057  13.327  0.4546  0.4570 -0.4399
13927TIP3    H163196   5.010   6.095  13.283  0.9321 -0.0379 -0.0572
13927TIP3    H263197   4.898   5.995  13.262  0.9572 -0.0227 -0.2723
13928TIP3   OH263198   3.387   1.476  10.342  0.2232 -1.1829 -0.2006
13928TIP3    H163199   3.320   1.508  10.404  1.1788 -0.7903  0.6556
13928TIP3    H263200   3.336   1.437  10.271 -0.9256 -1.0225  0.4942
13929TIP3   OH263201   6.624   5.647  11.890  0.5065 -0.0592  0.1526
13929TIP3    H163202   6.650   5.560  11.859 -1.4225 -0.6133 -0.0380
13929TIP3    H263203   6.624   5.701  11.811 -1.8619 -0.8316 -0.4456
13930TIP3   OH263204   1.335   4.233   0.398 -0.8510 -1.1767  0.3837
13930TIP3    H163205   1.395   4.303   0.371  0.6551 -2.3888  0.4201
13930TIP3    H263206   1.322   4.181   0.319 -2.7351 -0.3756  0.1115
13931TIP3   OH263207   2.778   0.087  16.844 -0.3554  0.3858 -0.0284
13931TIP3    H163208   2.774   0.181  16.825  1.3723  0.5942  0.4940
13931TIP3    H263209   2.734   0.079  16.929  2.3111  1.2913  1.5616
13932TIP3   OH263210   0.513   3.585  13.487 -0.0432 -0.5975 -1.0565
13932TIP3    H163211   0.451   3.547  13.550 -0.0753  0.8013 -0.2106
13932TIP3    H263212   0.460   3.600  13.408 -0.6680  0.1069 -0.5152
13933TIP3   OH263213   5.677   4.329   3.412  0.7512 -0.1098  0.2244
13933TIP3    H163214   5.757   4.281   3.391  0.0170 -0.7416 -1.3279
13933TIP3    H263215   5.653   4.298   3.499  0.9081 -1.7640 -0.2753
13934TIP3   OH263216   2.156   0.744  13.680 -0.2267 -0.1617  0.9015
13934TIP3    H163217   2.126   0.810  13.742 -1.6953 -0.7192  0.8115
13934TIP3    H263218   2.224   0.696  13.727 -0.3639  0.2985  1.5797
13935TIP3   OH263219   4.809   4.292  16.690  0.0467  0.2793 -0.3369
13935TIP3    H163220   4.825   4.354  16.619 -0.6976  0.5250 -0.2913
13935TIP3    H263221   4.873   4.222  16.675  1.1524  1.2252 -0.1808
13936TIP3   OH263222   3.268   0.086   4.099  0.6719  0.5969 -0.2827
13936TIP3    H163223   3.243   0.057   4.186  0.7293  1.6874  0.1093
13936TIP3    H263224   3.214   0.034   4.040 -0.2166  0.6828  0.4460
13937TIP3   OH263225   4.373   3.108   2.612  0.3021  0.4333  0.0922
13937TIP3    H163226   4.288   3.105   2.567  0.0347 -0.5382  0.6250
13937TIP3    H263227   4.417   3.028   2.583  0.4685  0.2321  0.8741
13938TIP3   OH263228   5.352   4.330   5.697 -0.7985 -0.3332 -0.7089
13938TIP3    H163229   5.338   4.236   5.709 -1.6590  0.0431  2.0649
13938TIP3    H263230   5.447   4.341   5.702 -0.7353 -1.0157 -0.2615
13939TIP3   OH263231   0.883   4.248   4.174  0.5069  0.4029 -0.6165
13939TIP3    H163232   0.952   4.310   4.148 -1.8398  2.5782 -2.0789
13939TIP3    H263233   0.835   4.231   4.093 -0.3996 -1.4401  0.2710
13940TIP3   OH263234   4.952   2.363  12.695 -0.0265  0.1266  0.1424
13940TIP3    H163235   4.914   2.447  12.719 -0.2309  0.1590 -0.2959
13940TIP3    H263236   4.982   2.375  12.605  0.8793  0.0541  0.4167
13941TIP3   OH263237   2.188   3.508  13.775 -0.4097 -0.3434 -0.2992
13941TIP3    H163238   2.208   3.583  13.719  0.0420 -0.4677 -0.3082
13941TIP3    H263239   2.242   3.437  13.740 -0.0077 -0.3794  0.3885
13942TIP3   OH263240   6.302   2.042  16.784 -1.0490 -0.6260 -0.1912
13942TIP3    H163241   6.353   2.119  16.758 -0.5966 -0.6465  0.6014
13942TIP3    H263242   6.213   2.075  16.796 -1.1187 -0.4758 -1.0153
13943TIP3   OH263243   0.739   6.760  16.894 -0.6008  0.0499  0.2071
13943TIP3    H163244   0.720   6.815  16.970  0.0682  3.0397 -1.6283
13943TIP3    H263245   0.691   6.802  16.822  1.6491 -0.4864 -1.7064
13944TIP3   OH263246   2.280   6.395  16.003 -0.1093 -0.3169 -0.3954
13944TIP3    H163247   2.317   6.331  16.064  1.5759  0.0389 -0.9925
13944TIP3    H263248   2.286   6.479  16.050  0.0432 -0.2243 -0.5804
13945TIP3   OH263249   2.937   6.171   4.131 -0.2355  0.0371 -0.3260
13945TIP3    H163250   2.920   6.086   4.170 -1.6782  0.1993 -0.5536
13945TIP3    H263251   2.909   6.234   4.197  1.0768  0.3651 -0.0467
13946TIP3   OH263252   0.687   2.931   5.532  0.1039 -0.3200 -0.2966
13946TIP3    H163253   0.707   2.947   5.624  2.1249  2.4378 -1.1031
13946TIP3    H263254   0.772   2.924   5.490 -0.7749 -1.9614 -1.9710
13947TIP3   OH263255   3.295   5.803   2.084  0.4681  0.0270  0.4495
13947TIP3    H163256   3.303   5.779   2.177 -0.6182 -0.0252  0.5466
13947TIP3    H263257   3.215   5.759   2.055 -0.1272  1.3607 -0.0654
13948TIP3   OH263258   3.305   2.460   4.845 -0.0133 -0.4090 -0.3834
13948TIP3    H163259   3.392   2.495   4.863  0.3783 -0.6339 -1.7259
13948TIP3    H263260   3.296   2.466   4.750 -1.1140 -1.2216 -0.3512
13949TIP3   OH263261   4.284   0.513  15.498  0.6107 -1.0937  0.3065
13949TIP3    H163262   4.245   0.588  15.451 -0.3696 -1.2990  0.7550
13949TIP3    H263263   4.343   0.473  15.434  2.0388  0.7131  0.4215
13950TIP3   OH263264   6.069   2.094  16.884 -0.1529  0.1038 -0.3921
13950TIP3    H163265   6.017   2.088  16.803  0.3163  0.8312 -0.7544
13950TIP3    H263266   6.017   2.047  16.949 -1.5626  1.2987 -0.5929
13951TIP3   OH263267   2.763   4.114   1.153 -0.5623 -0.0439  0.3907
13951TIP3    H163268   2.752   4.084   1.063 -1.0375 -1.0303  0.7556
13951TIP3    H263269   2.693   4.177   1.167 -0.4901  0.1091  0.0788
13952TIP3   OH263270   6.737   3.586  17.173  0.3496 -0.0278 -0.3143
13952TIP3    H163271   6.675   3.516  17.152  1.1628 -1.2488  1.2036
13952TIP3    H263272   6.823   3.550  17.152  0.6571  1.3616 -1.6238
13953TIP3   OH263273   5.121   6.322  11.957 -0.0562 -0.7966  0.2476
13953TIP3    H163274   5.069   6.248  11.988 -2.8651  1.1636  0.5445
13953TIP3    H263275   5.145   6.369  12.037 -2.0806  0.9194 -0.0550
13954TIP3   OH263276   5.191   5.809   4.148  0.6735 -0.1981 -0.1792
13954TIP3    H163277   5.177   5.761   4.230 -0.3635 -1.0630 -0.8306
13954TIP3    H263278   5.109   5.856   4.133 -0.5785 -2.8300 -2.4569
13955TIP3   OH263279   2.837   3.134   4.629 -0.3823  0.0693  0.1429
13955TIP3    H163280   2.780   3.140   4.706  0.0332  0.9980  0.3863
13955TIP3    H263281   2.783   3.163   4.556  0.2544  2.7712  0.6362
13956TIP3   OH263282   3.174   3.151   4.189 -0.0182  0.7534  0.5838
13956TIP3    H163283   3.222   3.079   4.229 -2.7719 -0.1853  2.4781
13956TIP3    H263284   3.219   3.168   4.107  2.6714 -0.8923  1.6151
13957TIP3   OH263285   5.615   3.862   2.279 -0.2441  0.2678 -0.2091
13957TIP3    H163286   5.688   3.838   2.222  1.2476 -0.5198  1.8880
13957TIP3    H263287   5.629   3.954   2.300  0.4684  0.0011  0.5554
13958TIP3   OH263288   1.165   6.406   5.636  0.5089 -0.0389 -0.0321
13958TIP3    H163289   1.168   6.460   5.558 -1.5627 -1.6770 -1.3540
13958TIP3    H263290   1.213   6.327   5.613  2.5995  0.6735  1.5158
13959TIP3   OH263291   0.232   3.915  14.484  0.5473  0.2470  0.5483
13959TIP3    H163292   0.303   3.895  14.423 -0.3511 -0.5699 -0.2547
13959TIP3    H263293   0.177   3.837  14.483 -0.9479  1.2718  0.3427
13960TIP3   OH263294   0.785   6.437  12.866  0.4208 -0.3132  0.4047
13960TIP3    H163295   0.846   6.485  12.923 -0.6860  0.2043  1.1817
13960TIP3    H263296   0.718   6.501  12.843 -0.4179 -1.1574  0.4491
13961TIP3   OH263297   4.083   3.204   0.572 -0.3685  0.0502  0.3470
13961TIP3    H163298   4.117   3.228   0.486 -1.3488  0.7899  0.1471
13961TIP3    H263299   4.135   3.128   0.597  1.4989  1.1600  0.1158
13962TIP3   OH263300   2.219   1.928  10.443 -0.2116 -0.4229  0.1662
13962TIP3    H163301   2.227   1.845  10.489 -0.6393  0.0814  1.1860
13962TIP3    H263302   2.307   1.946  10.410 -0.1986 -1.4634 -0.4221
13963TIP3   OH263303   0.208   0.885   4.719  0.0225  0.2209  0.6273
13963TIP3    H163304   0.202   0.790   4.712 -0.2510  0.2732  0.0547
13963TIP3    H263305   0.278   0.901   4.782  0.2780 -0.3544  0.4908
13964TIP3   OH263306   0.462   0.123  16.209 -0.0128 -0.5611 -0.0212
13964TIP3    H163307   0.486   0.059  16.275 -0.6157 -1.3677 -0.5520
13964TIP3    H263308   0.521   0.106  16.135 -0.2316 -0.5704 -0.1969
13965TIP3   OH263309   0.564   3.302   1.440 -0.1258  0.2817 -0.4666
13965TIP3    H163310   0.650   3.304   1.483  1.5986 -3.7524 -3.1561
13965TIP3    H263311   0.509   3.251   1.499  0.6643 -0.8166 -0.6613
13966TIP3   OH263312   5.877   4.183   3.647  0.4272  0.1080  0.3081
13966TIP3    H163313   5.947   4.155   3.706  2.5976 -0.6044 -2.4184
13966TIP3    H263314   5.833   4.254   3.694  3.0608  0.6765  2.1120
13967TIP3   OH263315   5.877   3.785  14.396 -0.4308 -0.0923  0.3655
13967TIP3    H163316   5.784   3.804  14.397 -0.2393  0.8672  1.1202
13967TIP3    H263317   5.888   3.716  14.461 -0.9911 -2.3043 -1.7340
13968TIP3   OH263318   4.672   4.296   2.111 -0.1290  0.2617  0.4704
13968TIP3    H163319   4.743   4.319   2.172  1.2266  0.7452 -1.2122
13968TIP3    H263320   4.716   4.249   2.040 -1.4164  1.0324 -0.8869
13969TIP3   OH263321   0.586   0.773  11.310  0.2791  0.0157 -0.2192
13969TIP3    H163322   0.676   0.744  11.300  0.1985 -0.5943  0.7082
13969TIP3    H263323   0.592   0.868  11.320  0.7573  0.0510 -0.8103
13970TIP3   OH263324   4.296   0.526  14.282  0.0027 -0.3921 -0.5949
13970TIP3    H163325   4.391   0.526  14.295  0.0171 -0.8080 -0.7120
13970TIP3    H263326   4.275   0.619  14.269  0.0477  0.0251  1.8798
13971TIP3   OH263327   4.764   2.892  16.473 -0.3824  0.0247 -0.6400
13971TIP3    H163328   4.850   2.911  16.435 -0.7938  1.9091 -0.7195
13971TIP3    H263329   4.765   2.935  16.558 -0.7702 -1.1338 -0.0277
13972TIP3   OH263330   3.313   3.112  13.721  0.1254  0.0199 -0.2739
13972TIP3    H163331   3.259   3.160  13.657 -1.2970 -0.0172  0.8339
13972TIP3    H263332   3.296   3.020  13.702  1.0413 -0.0211 -0.9212
13973TIP3   OH263333   4.336   4.657   3.815 -0.0762  0.5202  0.4871
13973TIP3    H163334   4.268   4.640   3.749  0.8157  1.2451 -0.6563
13973TIP3    H263335   4.404   4.592   3.798 -0.8205 -0.8123  2.2228
13974TIP3   OH263336   0.099   1.528   4.100 -0.5936  0.6690  0.6194
13974TIP3    H163337   0.170   1.487   4.051  1.3187  3.0323  1.2082
13974TIP3    H263338   0.097   1.482   4.184 -0.3877 -0.0042  0.2611
13975TIP3   OH263339   4.976   2.484   0.954 -0.1392 -0.2379 -0.2397
13975TIP3    H163340   5.029   2.449   0.883  1.6684  1.8689 -0.0711
13975TIP3    H263341   5.024   2.461   1.033  0.3909  1.3604 -0.0543
13976TIP3   OH263342   6.495   6.501   2.704  0.4836  0.2392 -0.0595
13976TIP3    H163343   6.517   6.411   2.680  0.9555  0.0759  0.9270
13976TIP3    H263344   6.522   6.553   2.628 -0.1627 -0.4858 -0.8036
13977TIP3   OH263345   6.550   5.573   5.949  0.1374 -0.8748  0.1529
13977TIP3    H163346   6.565   5.630   6.024  0.8745 -1.1511  0.2219
13977TIP3    H263347   6.479   5.515   5.976 -0.6644  0.0389  0.0603
13978TIP3   OH263348   0.398   3.974  15.084 -0.3476  0.2204 -0.0214
13978TIP3    H163349   0.377   4.066  15.071  1.3379  0.6628  0.1479
13978TIP3    H263350   0.404   3.938  14.996  0.6221  0.6834 -0.1554
13979TIP3   OH263351   0.438   5.523   2.750 -0.2028 -0.3537 -0.9407
13979TIP3    H163352   0.455   5.566   2.834  1.5804 -0.0292 -1.4165
13979TIP3    H263353   0.367   5.574   2.711 -0.9621 -0.4278  0.2978
13980TIP3   OH263354   0.948   1.847   2.526 -0.0865 -0.0923  0.4598
13980TIP3    H163355   1.023   1.796   2.556 -1.1226 -2.0240 -0.1124
13980TIP3    H263356   0.897   1.786   2.473 -1.0096  1.7488 -0.8803
13981TIP3   OH263357   4.264   6.801   5.998 -0.1012 -0.1088  0.7655
13981TIP3    H163358   4.318   6.798   5.918 -0.5952  2.9731  0.2136
13981TIP3    H263359   4.296   6.878   6.045 -0.3894 -1.4033  3.1972
13982TIP3   OH263360   3.195   1.957  10.968 -0.2304 -0.0660 -0.0301
13982TIP3    H163361   3.146   1.972  10.886  0.6877 -1.2273 -0.8210
13982TIP3    H263362   3.203   1.862  10.973  0.0882  0.0191  1.2191
13983TIP3   OH263363   1.382   3.047   1.885  0.0854 -0.1298 -0.7554
13983TIP3    H163364   1.356   3.098   1.962 -0.8792 -1.1902 -0.3504
13983TIP3    H263365   1.316   3.069   1.818  0.5628  0.3157 -1.0891
13984TIP3   OH263366   0.870   3.697  15.856 -0.0211 -0.1953 -0.1836
13984TIP3    H163367   0.877   3.607  15.824  1.0148 -0.6857  1.2751
13984TIP3    H263368   0.959   3.718  15.886 -0.4596  0.9758  0.3556
13985TIP3   OH263369   4.508   3.642   3.350  0.5821 -0.4174  0.6337
13985TIP3    H163370   4.457   3.580   3.298  0.5227 -0.2681  0.5139
13985TIP3    H263371   4.475   3.728   3.324 -1.2044 -0.4034  2.7169
13986TIP3   OH263372   6.148   1.240   5.339 -0.4063  0.7104  0.1850
13986TIP3    H163373   6.184   1.271   5.256 -2.6039 -1.7204 -1.8580
13986TIP3    H263374   6.067   1.195   5.315 -0.4298 -1.3654  3.4854
13987TIP3   OH263375   5.554   0.975   0.122  0.2017 -0.4373 -0.3459
13987TIP3    H163376   5.570   1.034   0.195  3.1929 -0.3537 -0.9276
13987TIP3    H263377   5.559   0.887   0.161 -0.7981 -0.3671 -0.0469
13988TIP3   OH263378   5.143   3.439   0.897 -0.3115 -0.4723 -1.2111
13988TIP3    H163379   5.132   3.432   0.992  0.4763  2.7109 -0.7693
13988TIP3    H263380   5.054   3.436   0.862 -0.8147  0.5806 -0.1003
13989TIP3   OH263381   3.899   5.504  14.968 -0.1888 -0.4015 -0.0245
13989TIP3    H163382   3.836   5.441  15.002  0.4832 -0.2083  1.6647
13989TIP3    H263383   3.846   5.577  14.936 -0.8560 -0.4911  0.8427
13990TIP3   OH263384   4.496   0.916  12.805 -0.1771  0.1597  0.0662
13990TIP3    H163385   4.470   0.985  12.743 -1.3689  0.8160  1.2247
13990TIP3    H263386   4.591   0.909  12.794 -0.2882  0.5603 -1.4938
13991TIP3   OH263387   1.371   5.002  13.758 -0.0447 -0.5052 -0.8024
13991TIP3    H163388   1.372   5.095  13.778  2.1113 -0.5834 -0.2496
13991TIP3    H263389   1.294   4.968  13.803 -0.4601  0.8763 -0.4246
13992TIP3   OH263390   1.317   2.801   2.227  0.0864 -0.1095  0.1210
13992TIP3    H163391   1.359   2.818   2.311  0.0201 -1.3698  0.4135
13992TIP3    H263392   1.344   2.712   2.204 -3.4561 -1.5432  0.9442
13993TIP3   OH263393   3.072   6.301   3.604 -0.0868  0.3228 -0.2787
13993TIP3    H163394   3.061   6.222   3.659  1.8729  0.1182 -0.1166
13993TIP3    H263395   3.091   6.371   3.667 -2.9366  1.2407 -0.3203
13994TIP3   OH263396   4.135   0.295  15.576 -0.0119  0.5475 -0.2027
13994TIP3    H163397   4.074   0.314  15.647 -0.4334  0.3811 -0.5155
13994TIP3    H263398   4.183   0.377  15.562 -0.2127  0.6971 -0.0020
13995TIP3   OH263399   4.975   1.152   3.102  0.3494  0.3552 -0.2017
13995TIP3    H163400   4.986   1.185   3.191 -1.1458  0.7882 -0.1375
13995TIP3    H263401   5.059   1.168   3.059  1.6389 -1.2865  1.5427
13996TIP3   OH263402   2.775   4.576  16.802  0.4158 -0.4908 -0.1185
13996TIP3    H163403   2.773   4.671  16.815  1.2598 -0.0272 -2.7705
13996TIP3    H263404   2.690   4.546  16.833  0.2772  1.0346  1.1360
13997TIP3   OH263405   2.152   1.752  11.901 -0.1089 -0.4494 -0.0073
13997TIP3    H163406   2.208   1.773  11.976 -0.1017 -0.0669 -0.1172
13997TIP3    H263407   2.098   1.830  11.889  0.5264 -0.1326 -0.9752
13998TIP3   OH263408   6.267   4.073   0.709 -0.1851  0.2273 -0.2065
13998TIP3    H163409   6.290   4.004   0.771  1.7559  1.8906  1.0352
13998TIP3    H263410   6.351   4.102   0.672 -0.8846  2.2209 -0.3470
13999TIP3   OH263411   3.862   3.087   3.626 -0.0017 -0.2569  0.3521
13999TIP3    H163412   3.902   3.100   3.540 -2.2007  1.0652 -0.5458
13999TIP3    H263413   3.913   3.142   3.685  0.3374  0.3328 -0.4718
14000TIP3   OH263414   4.886   5.392  15.744  0.2750 -0.5005  0.3883
14000TIP3    H163415   4.846   5.375  15.829 -0.1153 -2.0226 -0.0742
14000TIP3    H263416   4.974   5.358  15.752  0.6583  0.4833  0.5556
14001TIP3   OH263417   1.883   3.841  16.141  0.2515 -0.1881 -0.4445
14001TIP3    H163418   1.941   3.767  16.122  2.2442  0.3716  2.6351
14001TIP3    H263419   1.940   3.918  16.137 -0.6206  0.5911  1.0750
14002TIP3   OH263420   1.220   3.698   6.366  0.3556  0.0059 -0.5460
14002TIP3    H163421   1.188   3.732   6.449  1.3228 -1.5543  0.5098
14002TIP3    H263422   1.311   3.727   6.361  1.1552 -2.1446  0.3016
14003TIP3   OH263423   1.478   4.226  14.908 -1.0032 -0.3645 -0.1243
14003TIP3    H163424   1.422   4.191  14.976 -1.7694 -1.3043 -1.1910
14003TIP3    H263425   1.459   4.172  14.831  1.6573 -1.0240 -0.4324
14004TIP3   OH263426   0.983   1.268   3.037 -0.0600 -0.3623 -0.6118
14004TIP3    H163427   0.910   1.269   2.975  0.4320  0.1278 -1.1999
14004TIP3    H263428   1.014   1.177   3.036 -0.0197 -0.3500 -1.1391
14005TIP3   OH263429   5.382   3.259   0.692  0.2340  0.0943 -0.5424
14005TIP3    H163430   5.355   3.214   0.612  0.1187 -0.3258 -0.2710
14005TIP3    H263431   5.357   3.199   0.762  1.7221 -0.2289 -0.2605
14006TIP3   OH263432   3.024   2.596  14.166 -0.0336  0.1930  0.3835
14006TIP3    H163433   3.048   2.678  14.210  0.1114 -0.2847  1.2116
14006TIP3    H263434   3.095   2.535  14.188 -1.2089 -0.7901  1.6002
14007TIP3   OH263435   0.776   6.712  13.160  0.1811  0.0019 -0.2509
14007TIP3    H163436   0.716   6.689  13.089  0.1346 -0.6207 -0.0244
14007TIP3    H263437   0.806   6.627  13.193  0.3298  0.2907  0.3599
14008TIP3   OH263438   1.551   3.617   5.906  0.1748  0.0355 -0.2129
14008TIP3    H163439   1.468   3.639   5.862 -0.0147  0.4611  0.3383
14008TIP3    H263440   1.601   3.568   5.840 -1.1779 -1.6997 -0.0214
14009TIP3   OH263441   3.532   6.740   4.192 -0.8811 -0.2436 -0.1114
14009TIP3    H163442   3.465   6.693   4.241 -0.7931  0.0069  0.2569
14009TIP3    H263443   3.483   6.806   4.142 -0.7508  1.7787  2.2204
14010TIP3   OH263444   3.265   1.933  12.045  0.2341 -1.0024 -0.3133
14010TIP3    H163445   3.304   1.971  11.967  4.0563 -1.0089  1.3371
14010TIP3    H263446   3.280   1.839  12.036  1.4507 -0.9329  0.7079
14011TIP3   OH263447   2.015   4.224   1.895  0.1687 -0.1819 -0.1399
14011TIP3    H163448   2.100   4.252   1.930  0.0413  1.2195 -0.8976
14011TIP3    H263449   2.026   4.130   1.879  1.0078 -0.3740  1.3603
14012TIP3   OH263450   0.196   3.503   0.006 -0.1854  0.3584  0.0836
14012TIP3    H163451   0.217   3.448   0.082 -0.0454  0.5931  0.2162
14012TIP3    H263452   0.271   3.491  -0.053 -0.6382 -0.4115 -0.3548
14013TIP3   OH263453   3.570   3.331   3.116 -0.2921  0.2670 -0.1716
14013TIP3    H163454   3.658   3.353   3.085  0.8186  0.0464  2.5569
14013TIP3    H263455   3.514   3.400   3.080  1.3266  1.5294 -0.3694
14014TIP3   OH263456   4.538   6.362  16.523 -0.1204 -0.0518  0.4677
14014TIP3    H163457   4.533   6.395  16.613 -0.5089  0.9001  0.1095
14014TIP3    H263458   4.475   6.416  16.474  0.7004  0.0240 -0.5373
14015TIP3   OH263459   2.797   1.668  12.159 -0.4119  0.3697 -0.5748
14015TIP3    H163460   2.852   1.726  12.107 -0.0191  0.1854 -0.3609
14015TIP3    H263461   2.824   1.580  12.134  0.5495  0.2685  0.7535
14016TIP3   OH263462   4.820   3.886  11.656  0.1604 -0.3343  0.4442
14016TIP3    H163463   4.744   3.845  11.616 -0.0525  1.4513 -1.1071
14016TIP3    H263464   4.873   3.918  11.583  1.1782  0.5900  1.5192
14017TIP3   OH263465   1.150   6.313  13.204 -0.0406  0.1441 -0.3120
14017TIP3    H163466   1.133   6.286  13.114  2.1966 -2.3820 -0.0975
14017TIP3    H263467   1.212   6.386  13.196 -0.1874  0.2078 -0.8472
14018TIP3   OH263468   1.762   4.241   4.653 -0.3106  0.0489 -0.1339
14018TIP3    H163469   1.839   4.201   4.694 -2.1496 -2.4806  1.1000
14018TIP3    H263470   1.735   4.310   4.714  0.1395 -0.0221  0.1498
14019TIP3   OH263471   3.757   4.519  15.978  0.3330  0.1606  0.1534
14019TIP3    H163472   3.703   4.459  15.926  0.6358 -1.1701  1.2883
14019TIP3    H263473   3.845   4.511  15.940  0.4950 -0.5989  0.6435
14020TIP3   OH263474   3.477   5.496   5.368 -0.4301  0.4753 -0.0909
14020TIP3    H163475   3.537   5.551   5.419  0.0324 -0.6147  0.5717
14020TIP3    H263476   3.511   5.498   5.279  0.9613 -0.5912  0.3859
14021TIP3   OH263477   5.552   5.634   5.156 -0.1678  0.4195 -0.3868
14021TIP3    H163478   5.628   5.632   5.215 -0.5356 -0.4920  0.0772
14021TIP3    H263479   5.477   5.618   5.213 -0.5915  0.1476 -1.0133
14022TIP3   OH263480   3.334   1.178  12.367  0.2056 -0.2083  0.1227
14022TIP3    H163481   3.270   1.248  12.362  0.4307  0.0192  0.4231
14022TIP3    H263482   3.418   1.222  12.381  0.2242 -0.5689  1.2551
14023TIP3   OH263483   5.144   5.712   1.440  0.4995 -0.1782 -0.0191
14023TIP3    H163484   5.049   5.697   1.436  0.6862 -1.3726 -3.2093
14023TIP3    H263485   5.154   5.804   1.413  0.2466  0.0801  0.7469
14024TIP3   OH263486   6.320   5.822   5.925  0.4115 -0.9180  0.2765
14024TIP3    H163487   6.380   5.881   5.971  0.5038 -2.0440  1.6645
14024TIP3    H263488   6.310   5.747   5.983  0.2547 -2.2696 -1.4072
14025TIP3   OH263489   1.393   5.916   2.256 -0.5511 -0.4863 -0.2419
14025TIP3    H163490   1.443   5.838   2.232 -2.0868 -1.6236  0.1054
14025TIP3    H263491   1.423   5.983   2.196  1.3090 -1.1458 -0.0989
14026TIP3   OH263492   4.641   1.666  14.400  0.2394  0.1562 -0.0388
14026TIP3    H163493   4.724   1.711  14.384  0.8904 -0.7012  0.8168
14026TIP3    H263494   4.643   1.590  14.342 -0.7424  1.0637 -1.2941
14027TIP3   OH263495   1.195   3.390  12.753 -0.0489  0.1139  0.4938
14027TIP3    H163496   1.280   3.395  12.710  0.2666  0.9967  1.1886
14027TIP3    H263497   1.191   3.468  12.808 -0.5642 -0.7920  1.8131
14028TIP3   OH263498   1.419   6.629   0.736 -1.0468  0.0958  0.6439
14028TIP3    H163499   1.508   6.593   0.736 -0.6316  1.0854  1.3132
14028TIP3    H263500   1.371   6.575   0.672  0.7191  1.2202 -1.7957
14029TIP3   OH263501   3.134   4.561  11.755 -0.1782 -0.0682 -0.4848
14029TIP3    H163502   3.103   4.518  11.835 -0.4151  0.1843 -0.4361
14029TIP3    H263503   3.214   4.514  11.732  0.2483  0.2651  0.2655
14030TIP3   OH263504   6.588   6.347  12.701  0.1802  0.2419  0.1098
14030TIP3    H163505   6.554   6.262  12.674 -1.8366  1.6043 -1.9539
14030TIP3    H263506   6.675   6.351  12.661 -0.8468  0.2339 -2.3264
14031TIP3   OH263507   3.774   4.981   4.462  0.3511  0.7167  0.5885
14031TIP3    H163508   3.779   5.070   4.498 -0.0059  0.0022  2.5024
14031TIP3    H263509   3.845   4.978   4.397 -0.9100  2.9984 -1.0338
14032TIP3   OH263510   0.324   5.714   0.766 -0.0113  0.2562 -0.0250
14032TIP3    H163511   0.229   5.717   0.754  0.0710 -0.1078 -0.8457
14032TIP3    H263512   0.353   5.641   0.712  1.0275  1.9468 -1.8829
14033TIP3   OH263513   2.913   0.165   1.393 -0.4991  0.6425  0.0855
14033TIP3    H163514   2.934   0.072   1.398 -1.2845  0.3937 -1.0423
14033TIP3    H263515   2.954   0.203   1.471 -1.7359 -0.9319  1.5755
14034TIP3   OH263516   5.955   2.532   4.122 -0.1254  0.1282 -0.0022
14034TIP3    H163517   6.020   2.473   4.085  0.3425 -0.1207  1.1668
14034TIP3    H263518   5.897   2.475   4.172 -0.8784  0.4292 -0.5089
14035TIP3   OH263519   6.597   6.288   4.723  0.1230  0.0678 -0.3322
14035TIP3    H163520   6.579   6.210   4.671 -0.3263 -0.0088 -0.0695
14035TIP3    H263521   6.557   6.270   4.809  0.4561  0.3760 -0.1068
14036TIP3   OH263522   0.042   0.695   3.591  0.4096 -0.0147  0.0440
14036TIP3    H163523   0.082   0.656   3.669 -0.5326 -2.1754 -0.4957
14036TIP3    H263524   0.104   0.763   3.564  1.2957  0.0377  2.0073
14037TIP3   OH263525   6.058   4.138  12.672 -0.0275  0.1613  0.0987
14037TIP3    H163526   6.026   4.199  12.606 -0.6062 -0.3531 -0.1052
14037TIP3    H263527   6.017   4.054  12.649  2.0398 -0.7279 -0.6333
14038TIP3   OH263528   1.440   2.984  15.032 -0.4986 -0.0480  0.0348
14038TIP3    H163529   1.391   3.016  15.108 -1.3800 -0.5266 -0.3266
14038TIP3    H263530   1.377   2.985  14.960 -0.1062 -1.0812 -0.3417
14039TIP3   OH263531   5.051   2.376  13.971  0.0959  0.0979 -0.3617
14039TIP3    H163532   5.027   2.298  13.922 -0.7658  0.0613  0.1029
14039TIP3    H263533   4.980   2.388  14.035  0.6932  0.7100  0.2107
14040TIP3   OH263534   6.605   5.999  14.372 -0.2012  0.2250 -0.3817
14040TIP3    H163535   6.619   6.092  14.395 -1.1878  0.6149 -1.3166
14040TIP3    H263536   6.654   5.987  14.291  0.0239 -0.1246 -0.1999
14041TIP3   OH263537   3.801   5.422  14.628  0.1551 -0.5643  0.1036
14041TIP3    H163538   3.895   5.440  14.619  0.4875 -1.4122  1.6398
14041TIP3    H263539   3.762   5.509  14.641  1.1035 -0.3793  2.2159
14042TIP3   OH263540   4.872   3.897  14.957  0.2025  0.5317 -0.1635
14042TIP3    H163541   4.938   3.837  14.921  0.2766  0.5811 -0.1096
14042TIP3    H263542   4.923   3.968  14.995  0.1039  1.4533 -1.6518
14043TIP3   OH263543   1.748   3.869   4.753  0.0657  0.1690 -0.3702
14043TIP3    H163544   1.799   3.789   4.769 -1.6011 -0.8035  0.4194
14043TIP3    H263545   1.739   3.874   4.658  2.0647  0.6905 -0.5672
14044TIP3   OH263546   2.064   0.867  16.500  0.4143 -0.1050 -0.1996
14044TIP3    H163547   2.089   0.835  16.587  1.9294  1.8677  0.1570
14044TIP3    H263548   2.147   0.879  16.454 -0.1882  1.3016 -0.9949
14045TIP3   OH263549   2.160   4.919   3.020 -0.3815 -0.7176 -0.0965
14045TIP3    H163550   2.154   4.987   3.088 -0.6489  0.5855 -1.3732
14045TIP3    H263551   2.242   4.937   2.975  0.6822 -2.6579  0.9226
14046TIP3   OH263552   4.776   1.336   0.120 -0.6076  0.0298 -0.3006
14046TIP3    H163553   4.710   1.281   0.079  0.1892 -1.4773  0.3481
14046TIP3    H263554   4.846   1.275   0.144 -0.3423  1.0882  1.8101
14047TIP3   OH263555   3.431   2.862   2.386  0.1038 -0.4203  0.3624
14047TIP3    H163556   3.463   2.934   2.333  1.9076 -0.6064  1.1263
14047TIP3    H263557   3.458   2.783   2.339  0.0750 -0.5887  0.6253
14048TIP3   OH263558   3.135   5.207  13.916  0.5883 -0.0875 -0.0547
14048TIP3    H163559   3.211   5.152  13.934  1.1615  0.6529 -0.1825
14048TIP3    H263560   3.147   5.236  13.825 -1.0477 -1.8443 -0.9162
14049TIP3   OH263561   1.308   5.061  13.432  0.0477  0.1164  0.4029
14049TIP3    H163562   1.319   4.988  13.493  0.2019  1.9503  2.6885
14049TIP3    H263563   1.214   5.065  13.416  0.1559 -1.4696 -1.0190
14050TIP3   OH263564   4.290   3.014   5.649 -0.1226 -0.1211 -0.2386
14050TIP3    H163565   4.197   3.033   5.654 -0.6996 -1.8713 -2.5467
14050TIP3    H263566   4.322   3.067   5.577  0.6828  0.4462  0.5198
14051TIP3   OH263567   5.437   4.683  13.661 -0.3797 -0.0783 -0.0348
14051TIP3    H163568   5.400   4.608  13.707  0.0405 -0.2736 -0.0045
14051TIP3    H263569   5.531   4.666  13.660 -0.4835 -0.8420 -2.3092
14052TIP3   OH263570   5.745   6.531   4.079  0.3395  0.6265 -0.2334
14052TIP3    H163571   5.762   6.596   4.010 -0.8716 -0.2597 -1.4306
14052TIP3    H263572   5.700   6.580   4.147 -0.7289  1.0237 -1.1982
14053TIP3   OH263573   1.355   5.909  17.172 -0.0171  0.0017  0.4272
14053TIP3    H163574   1.301   5.877  17.099  1.2448  2.2258 -1.6382
14053TIP3    H263575   1.435   5.857  17.167 -1.0969 -1.9914  2.3023
14054TIP3   OH263576   2.206   6.001  16.093 -0.0809  0.6428 -0.1656
14054TIP3    H163577   2.259   6.076  16.118 -0.4512  1.0079 -0.4536
14054TIP3    H263578   2.260   5.925  16.115 -0.3057  0.9300  1.5916
14055TIP3   OH263579   2.991   1.627  15.082 -0.5595  0.6448  0.2310
14055TIP3    H163580   2.980   1.711  15.127  0.5089  0.5467  0.7048
14055TIP3    H263581   2.993   1.650  14.989  0.3928  1.2310  0.3847
14056TIP3   OH263582   5.020   2.663   2.928  0.2404  0.1900 -0.0205
14056TIP3    H163583   4.983   2.690   2.844  0.0199  1.7999  0.5626
14056TIP3    H263584   5.013   2.567   2.927 -1.1880  0.2596 -1.1840
14057TIP3   OH263585   4.122   1.010  16.703 -0.3403  0.0120  0.8086
14057TIP3    H163586   4.200   0.970  16.664 -0.9329 -0.1807 -0.2050
14057TIP3    H263587   4.090   0.945  16.765 -0.0578 -0.1780  0.7579
14058TIP3   OH263588   0.906   1.664  11.088 -0.1582  0.3683  0.2312
14058TIP3    H163589   0.830   1.616  11.055  0.3014  1.1503 -2.1515
14058TIP3    H263590   0.980   1.604  11.076 -0.3606 -0.5335  2.8877
14059TIP3   OH263591   0.991   5.071  13.310 -0.2247 -0.6031  0.3294
14059TIP3    H163592   0.920   5.014  13.282 -0.8151 -0.2344  1.0404
14059TIP3    H263593   0.967   5.098  13.399 -1.5594  3.1730 -0.9597
14060TIP3   OH263594   4.579   3.761  15.392 -0.3738 -0.2873  0.0998
14060TIP3    H163595   4.650   3.733  15.449  1.1777  1.6299 -0.7879
14060TIP3    H263596   4.545   3.841  15.432  0.1611  0.6037 -1.1572
14061TIP3   OH263597   1.398   2.800  17.017  0.5735  0.1163 -0.3788
14061TIP3    H163598   1.469   2.808  17.080  0.9642  0.4712 -0.8551
14061TIP3    H263599   1.320   2.781  17.070  1.0589 -0.5198  0.1247
14062TIP3   OH263600   3.868   2.663  14.569  0.4231  0.5224  0.4051
14062TIP3    H163601   3.926   2.715  14.625 -1.5356  2.5324  0.6994
14062TIP3    H263602   3.927   2.605  14.521  2.4919  1.2432  1.9343
14063TIP3   OH263603   4.205   5.407  15.786 -0.0708  0.8364 -0.6617
14063TIP3    H163604   4.215   5.496  15.821 -1.6132  0.6458  0.3316
14063TIP3    H263605   4.276   5.399  15.722  2.0434  1.6841  1.4194
14064TIP3   OH263606   2.240   3.702  15.502  0.2031  0.0521  0.0174
14064TIP3    H163607   2.319   3.654  15.524 -0.1061 -0.6803 -0.4181
14064TIP3    H263608   2.171   3.661  15.554  0.3386  1.6345  1.4990
14065TIP3   OH263609   4.765   3.218   0.172 -0.1484 -0.1147 -0.2673
14065TIP3    H163610   4.676   3.227   0.203  0.3310  1.7718  0.6910
14065TIP3    H263611   4.784   3.301   0.128  0.9116 -0.7548 -1.0812
14066TIP3   OH263612   2.358   5.738  10.517 -0.2513 -0.2474 -0.2561
14066TIP3    H163613   2.360   5.655  10.564 -0.3115 -0.3502 -0.4364
14066TIP3    H263614   2.294   5.791  10.564  0.4628  0.0401  0.4337
14067TIP3   OH263615   2.989   0.482  13.763  0.1567  0.1140  0.5264
14067TIP3    H163616   3.028   0.513  13.845  1.0420  1.1199 -0.2407
14067TIP3    H263617   2.972   0.562  13.713 -0.5933 -0.4668 -0.1858
14068TIP3   OH263618   2.981   2.651  15.640  0.2298 -0.1464 -0.1283
14068TIP3    H163619   3.005   2.733  15.597  0.9977 -1.3464 -2.1230
14068TIP3    H263620   3.043   2.642  15.712  1.8021 -0.1864 -1.4451
14069TIP3   OH263621   6.175   2.761  11.552 -0.4048  0.9678  0.1916
14069TIP3    H163622   6.263   2.780  11.584 -0.0967  1.1008 -0.6851
14069TIP3    H263623   6.124   2.838  11.577 -0.1762  1.0664  0.3658
14070TIP3   OH263624   5.591   2.022   5.600  0.5308 -0.0111 -0.4681
14070TIP3    H163625   5.580   2.018   5.695  0.8059  3.0992 -0.1912
14070TIP3    H263626   5.514   2.070   5.569 -0.4174 -2.3949 -2.1185
14071TIP3   OH263627   2.351   0.784  14.089  0.3904  0.2215  0.1605
14071TIP3    H163628   2.284   0.717  14.074  0.2651  0.7730 -2.0310
14071TIP3    H263629   2.327   0.823  14.173 -0.4346 -1.4086  0.7272
14072TIP3   OH263630   6.786   0.343   0.051  0.4975 -0.2902  0.1569
14072TIP3    H163631   6.722   0.388   0.106  0.5652 -0.1747  0.1423
14072TIP3    H263632   6.871   0.377   0.082  0.5175  0.0479 -0.2618
14073TIP3   OH263633   2.362   1.531   5.044  0.3513  0.4034  0.2014
14073TIP3    H163634   2.286   1.480   5.016  0.3800  1.0011 -1.0376
14073TIP3    H263635   2.340   1.621   5.020  0.4504  0.9413  2.0293
14074TIP3   OH263636   3.653   4.957   5.534  0.3682 -0.3844 -0.1488
14074TIP3    H163637   3.579   5.015   5.556  0.5413  0.4018 -1.5260
14074TIP3    H263638   3.623   4.907   5.459  0.9655 -0.5977 -0.2508
14075TIP3   OH263639   0.097   3.958  16.204 -0.4091 -0.3497 -0.0153
14075TIP3    H163640   0.053   3.960  16.119 -0.2840  0.5604 -0.0708
14075TIP3    H263641   0.034   3.997  16.264 -1.7303 -3.6437  0.9542
14076TIP3   OH263642   6.140   0.310   1.890  0.4992  0.1572 -0.3661
14076TIP3    H163643   6.189   0.258   1.826 -0.0249 -1.6833  0.6553
14076TIP3    H263644   6.090   0.372   1.838  0.2768 -1.1175 -1.7442
14077TIP3   OH263645   4.990   0.854  14.852 -0.0764 -0.1343 -0.1111
14077TIP3    H163646   5.045   0.924  14.888  0.4259 -1.0826  1.0379
14077TIP3    H263647   5.005   0.857  14.758  1.2343  0.2298  0.0915
14078TIP3   OH263648   2.521   2.177  16.102 -0.4152  0.4208 -0.5003
14078TIP3    H163649   2.505   2.262  16.144  1.8983  1.5413 -1.7341
14078TIP3    H263650   2.448   2.167  16.041 -0.9892  1.2505  0.0171
14079TIP3   OH263651   4.104   4.439   3.713  0.0466  0.4947 -0.2572
14079TIP3    H163652   4.060   4.362   3.677 -2.6176  1.2505  1.0980
14079TIP3    H263653   4.117   4.497   3.638  0.0370 -0.3670 -0.9325
14080TIP3   OH263654   1.650   4.613   3.788 -0.3699 -0.0048 -0.1264
14080TIP3    H163655   1.723   4.611   3.850 -0.2297 -0.5918 -0.2993
14080TIP3    H263656   1.682   4.664   3.714 -1.0079  1.8728  0.8355
14081TIP3   OH263657   3.876   0.805   4.182  0.1266 -0.2935 -0.0184
14081TIP3    H163658   3.809   0.837   4.122  1.4879  1.4438 -0.7081
14081TIP3    H263659   3.956   0.803   4.129  1.4695  1.7314  1.7453
14082TIP3   OH263660   1.128   5.309   2.955  0.1998  0.4548 -0.3630
14082TIP3    H163661   1.082   5.225   2.951  0.3381  0.3768 -0.3135
14082TIP3    H263662   1.063   5.373   2.927  0.6297  0.1223 -2.2213
14083TIP3   OH263663   4.629   3.407   5.408  0.7114  0.6357 -0.0542
14083TIP3    H163664   4.705   3.464   5.395  1.9759 -0.8282  0.6773
14083TIP3    H263665   4.607   3.418   5.501  1.1011 -0.1977  0.1465
14084TIP3   OH263666   1.206   2.467  15.365  0.2476  0.1116 -0.1374
14084TIP3    H163667   1.248   2.469  15.280  0.2193 -0.2220 -0.1629
14084TIP3    H263668   1.132   2.406  15.354  1.8802 -2.2046  0.8466
14085TIP3   OH263669   6.778   2.551  11.345  0.4067 -0.5269 -0.4593
14085TIP3    H163670   6.850   2.592  11.394 -0.0570  0.1884 -0.3594
14085TIP3    H263671   6.782   2.591  11.259 -1.4713  1.5440  0.3062
14086TIP3   OH263672   4.015   1.634   2.770 -0.6315 -0.8933 -0.0672
14086TIP3    H163673   4.023   1.604   2.679 -0.0715  0.4966 -0.5135
14086TIP3    H263674   3.946   1.579   2.808  0.4148 -2.7757 -0.7608
14087TIP3   OH263675   6.540   3.125   0.811 -0.4902  0.5355  0.2696
14087TIP3    H163676   6.498   3.087   0.734  1.1396  0.9556 -0.9145
14087TIP3    H263677   6.491   3.092   0.886  0.3811 -3.3649 -0.6704
14088TIP3   OH263678   5.218   6.236  16.579  0.0015  0.1367  0.3308
14088TIP3    H163679   5.272   6.269  16.651  0.9930 -2.2499  0.7816
14088TIP3    H263680   5.146   6.189  16.621 -0.2739  0.0249 -0.2460
14089TIP3   OH263681   5.348   2.449   5.699 -0.0700 -0.2069  0.1032
14089TIP3    H163682   5.263   2.433   5.656  0.6927  1.2713 -2.1356
14089TIP3    H263683   5.338   2.535   5.739  0.2073 -0.2658  0.2990
14090TIP3   OH263684   1.204   5.272  13.980  0.7567 -0.1246 -0.4501
14090TIP3    H163685   1.219   5.366  13.995  1.0273 -0.4178  1.1874
14090TIP3    H263686   1.126   5.270  13.924 -1.0830  1.0296  1.9132
14091TIP3   OH263687   2.173   3.765  11.075  0.4686 -0.5672  0.1763
14091TIP3    H163688   2.133   3.841  11.033 -1.0853  0.1867  2.7467
14091TIP3    H263689   2.108   3.695  11.065  1.1829 -1.1136 -0.7725
14092TIP3   OH263690   3.356   6.296   5.885 -0.6810  0.6202  0.0907
14092TIP3    H163691   3.353   6.338   5.971 -3.4875  0.5093  0.1407
14092TIP3    H263692   3.288   6.229   5.889  0.3738 -0.6374 -1.6466
14093TIP3   OH263693   4.659   5.856  14.123  0.8076 -0.2287  0.4539
14093TIP3    H163694   4.667   5.951  14.116 -0.0239 -0.2649 -1.2291
14093TIP3    H263695   4.566   5.841  14.141  0.8901 -0.7399  0.4559
14094TIP3   OH263696   2.154   2.186   1.907 -0.4125 -0.0978  0.7905
14094TIP3    H163697   2.220   2.176   1.976  1.4354 -1.2492 -1.0190
14094TIP3    H263698   2.162   2.277   1.879  2.9198 -0.9254 -1.5988
14095TIP3   OH263699   2.187   1.754  13.492  0.2408 -0.0843 -0.2648
14095TIP3    H163700   2.124   1.787  13.556  0.3182 -1.1281  0.3638
14095TIP3    H263701   2.257   1.715  13.544  0.6807 -0.2636 -0.9789
14096TIP3   OH263702   1.796   6.208  11.323  0.0156 -0.1346  0.2945
14096TIP3    H163703   1.714   6.213  11.273  0.4255 -0.6920 -0.4557
14096TIP3    H263704   1.857   6.163  11.264  0.1347 -2.0642  1.7739
14097TIP3   OH263705   2.432   1.881   4.428  0.2504  0.3096  0.3724
14097TIP3    H163706   2.344   1.884   4.390 -0.0756 -0.0758  1.0605
14097TIP3    H263707   2.417   1.894   4.522  0.4838 -3.4555  1.0801
14098TIP3   OH263708   2.614   1.470   4.095  0.0524  0.4571 -0.1114
14098TIP3    H163709   2.562   1.410   4.041  0.4408  0.0677 -0.0594
14098TIP3    H263710   2.577   1.556   4.077 -0.9689  0.1362  0.3228
14099TIP3   OH263711   4.511   0.035   3.293  0.0162  0.1974  0.2873
14099TIP3    H163712   4.470  -0.046   3.261  3.2455 -1.4290 -0.1000
14099TIP3    H263713   4.533   0.083   3.213  0.4722  0.2003  0.4156
14100TIP3   OH263714   4.438   2.692  12.982  0.0550  0.0601 -0.4469
14100TIP3    H163715   4.348   2.714  13.005 -0.5370 -1.2416 -1.4036
14100TIP3    H263716   4.474   2.772  12.943 -0.3193  0.9184  0.9030
14101TIP3   OH263717   4.748   2.828  12.624 -0.3608 -0.0676 -0.1087
14101TIP3    H163718   4.787   2.828  12.536  1.5175 -0.2986  0.6739
14101TIP3    H263719   4.736   2.920  12.645 -2.8892 -0.0163 -1.4168
14102TIP3   OH263720   6.751   5.304   3.589 -0.9387  0.1510 -0.2161
14102TIP3    H163721   6.674   5.302   3.645 -0.5461 -0.1500  0.3189
14102TIP3    H263722   6.728   5.248   3.514 -0.9092 -0.6796  0.3825
14103TIP3   OH263723   4.580   4.949  14.853 -0.0683 -0.2974 -0.0367
14103TIP3    H163724   4.614   4.982  14.936  2.6761 -2.1532 -0.2950
14103TIP3    H263725   4.536   4.867  14.876  3.1952 -2.3602 -0.5752
14104TIP3   OH263726   1.979   2.648   2.435 -0.2150 -0.0171 -0.0324
14104TIP3    H163727   1.978   2.589   2.511  0.3326 -2.1989 -1.6080
14104TIP3    H263728   1.900   2.626   2.386  1.2213 -1.3143 -1.9122
14105TIP3   OH263729   6.510   4.000   2.437  0.3713 -0.3722  0.1906
14105TIP3    H163730   6.559   3.958   2.366  0.1233  2.9628 -2.2098
14105TIP3    H263731   6.419   4.000   2.407 -0.1145 -0.7007  1.5552
14106TIP3   OH263732   4.542   6.023   4.389 -0.1484  0.1588 -0.1229
14106TIP3    H163733   4.497   6.094   4.435 -0.6681 -0.1998 -0.0725
14106TIP3    H263734   4.560   6.058   4.302 -0.2486  0.4120 -0.0414
14107TIP3   OH263735   0.855   1.600   3.795  0.1209  0.0965 -0.1203
14107TIP3    H163736   0.866   1.685   3.750 -0.6755  0.3598  0.1550
14107TIP3    H263737   0.769   1.569   3.765  0.1478 -0.3309  0.2421
14108TIP3   OH263738   2.860   0.891   1.957 -0.2189  0.1859 -0.0209
14108TIP3    H163739   2.815   0.854   2.032  1.1600 -0.3688  0.5711
14108TIP3    H263740   2.856   0.986   1.971 -3.1106  0.3262 -1.1619
14109TIP3   OH263741   0.313   5.734   4.772  0.3033 -0.1050 -0.4581
14109TIP3    H163742   0.334   5.788   4.696  3.9900 -1.9504 -0.9357
14109TIP3    H263743   0.312   5.644   4.739  0.2662 -0.8174  1.3534
14110TIP3   OH263744   3.568   6.376  16.907  0.2873  0.5641  0.8069
14110TIP3    H163745   3.569   6.393  17.001  2.3976  3.1565  0.4528
14110TIP3    H263746   3.644   6.425  16.873  0.0840 -0.9317 -2.1417
14111TIP3   OH263747   6.306   1.463  14.304 -0.6142  0.0089 -0.4939
14111TIP3    H163748   6.347   1.495  14.223 -0.0892 -1.8188 -0.9880
14111TIP3    H263749   6.234   1.525  14.320  0.0813  1.1647 -1.6189
14112TIP3   OH263750   0.143   1.674  14.799  0.2003 -0.1892 -0.3245
14112TIP3    H163751   0.097   1.598  14.836  1.0842 -1.3678 -1.5742
14112TIP3    H263752   0.096   1.749  14.836 -0.2611 -1.2952  1.5243
14113TIP3   OH263753   0.808   0.631   5.785 -0.1064 -0.2075 -0.1436
14113TIP3    H163754   0.744   0.577   5.830 -0.5906 -0.3933 -1.0254
14113TIP3    H263755   0.812   0.595   5.696  0.9583  0.0222 -0.2077
14114TIP3   OH263756   5.665   0.761   3.866  0.5299 -0.6769 -0.6021
14114TIP3    H163757   5.636   0.757   3.775  0.1554 -1.6720 -0.4555
14114TIP3    H263758   5.753   0.724   3.865  0.2024 -1.5028 -0.4551
14115TIP3   OH263759   6.750   1.665   0.511  0.0873 -0.1136  0.4258
14115TIP3    H163760   6.672   1.617   0.482 -0.3019  1.2166 -0.8587
14115TIP3    H263761   6.813   1.596   0.533 -0.4871 -1.2357 -1.2061
14116TIP3   OH263762   1.775   3.922   5.867 -0.0821  0.1829  0.0627
14116TIP3    H163763   1.735   3.984   5.928  0.4633  0.4037  0.1988
14116TIP3    H263764   1.709   3.909   5.799  1.2676  4.0853 -2.2779
14117TIP3   OH263765   6.617   0.307   4.766  0.4644  0.0076  0.0331
14117TIP3    H163766   6.532   0.298   4.808 -0.7284  0.3848 -2.1634
14117TIP3    H263767   6.675   0.339   4.836 -0.8102 -1.5935  1.9219
14118TIP3   OH263768   0.582   2.249  13.340  0.3967 -0.2039 -0.5604
14118TIP3    H163769   0.523   2.189  13.295  0.0228 -0.3550  0.1122
14118TIP3    H263770   0.539   2.335  13.333  0.3040 -0.2396 -0.4494
14119TIP3   OH263771   6.466   3.628  11.167  0.1865  0.2302  0.1993
14119TIP3    H163772   6.418   3.709  11.189  0.4480  0.5265 -0.3105
14119TIP3    H263773   6.406   3.558  11.192 -0.8462  0.6001 -1.1262
14120TIP3   OH263774   4.729   5.369   4.221 -0.5569 -0.7668 -0.4323
14120TIP3    H163775   4.738   5.435   4.152 -0.1044 -0.3026  0.0571
14120TIP3    H263776   4.748   5.286   4.178  1.9116 -0.2742 -0.4220
14121TIP3   OH263777   2.698   5.956  12.980 -0.0089  0.8183  0.1236
14121TIP3    H163778   2.691   5.952  12.884  0.8484  0.0458  0.0764
14121TIP3    H263779   2.791   5.970  12.996 -0.2256  1.5142  0.8480
14122TIP3   OH263780   4.698   6.748  14.696 -0.2755 -0.1820  0.0691
14122TIP3    H163781   4.633   6.738  14.765 -1.1123 -1.1759 -0.8251
14122TIP3    H263782   4.685   6.672  14.639  1.1039  0.0434 -0.6041
14123TIP3   OH263783   6.690   3.152   3.223  0.3911 -0.4132  0.3832
14123TIP3    H163784   6.781   3.155   3.251  1.2858 -0.1656 -2.2702
14123TIP3    H263785   6.692   3.176   3.130 -2.5001  0.5371  0.4463
14124TIP3   OH263786   1.367   3.372   1.738  0.0290  0.1214  0.0625
14124TIP3    H163787   1.336   3.420   1.814 -0.5996 -0.2989  0.0839
14124TIP3    H263788   1.302   3.302   1.726  0.6012 -0.3570 -0.3183
14125TIP3   OH263789   4.471   5.964  11.637  0.0619  0.4904 -0.6259
14125TIP3    H163790   4.457   6.044  11.586  0.5713 -0.1508 -1.7874
14125TIP3    H263791   4.443   5.893  11.580  0.9561 -0.2719 -0.1430
14126TIP3   OH263792   6.720   3.505  14.550 -0.2222  0.4456  0.1467
14126TIP3    H163793   6.802   3.555  14.546  0.3735 -0.4793  0.4062
14126TIP3    H263794   6.698   3.501  14.643 -1.0085  1.3718  0.0141
14127TIP3   OH263795   1.924   0.469  13.967  0.0891 -0.1553 -0.5595
14127TIP3    H163796   1.955   0.386  13.931  1.1802  0.3217 -0.7633
14127TIP3    H263797   1.863   0.502  13.902  0.8441 -0.0589 -1.2334
14128TIP3   OH263798   4.092   6.720   5.804  0.3718  0.2615 -0.4664
14128TIP3    H163799   4.164   6.740   5.864 -0.8474 -1.8731  1.9314
14128TIP3    H263800   4.094   6.625   5.795 -2.2280  0.1124 -0.1483
14129TIP3   OH263801   1.178   1.461  12.311  0.0217  0.0566  0.2946
14129TIP3    H163802   1.146   1.371  12.312 -0.0663  0.0510 -1.2489
14129TIP3    H263803   1.225   1.469  12.228 -0.6696  1.6673  0.0300
14130TIP3   OH263804   4.124   4.941   5.763  0.5159  0.5036  0.5552
14130TIP3    H163805   4.067   4.985   5.701  1.0093 -0.2326 -0.4435
14130TIP3    H263806   4.065   4.895   5.822  0.0490  1.0537  0.5252
14131TIP3   OH263807   6.801   2.330   1.077  0.4375  0.2706 -0.1456
14131TIP3    H163808   6.768   2.419   1.068 -0.7163 -0.1843 -0.6626
14131TIP3    H263809   6.724   2.279   1.104  1.2818 -0.4151  1.0803
14132TIP3   OH263810   3.378   2.210  16.243  0.0794 -0.7226 -0.2082
14132TIP3    H163811   3.395   2.129  16.195 -1.4862  0.3023 -2.6723
14132TIP3    H263812   3.285   2.206  16.266 -0.3503  0.9078 -1.5181
14133TIP3   OH263813   0.073   0.727  11.676  0.0222  0.7716  0.3985
14133TIP3    H163814   0.066   0.754  11.585  0.0008  0.3082  0.2620
14133TIP3    H263815   0.143   0.781  11.712  0.2148  0.7612  0.0359
14134TIP3   OH263816   4.689   5.509   0.881  0.2760 -0.1742 -0.4398
14134TIP3    H163817   4.677   5.573   0.811 -0.2972  0.7279  0.4607
14134TIP3    H263818   4.710   5.428   0.836 -0.4549  0.3031 -1.6744
14135TIP3   OH263819   4.312   6.547   4.450 -0.2444  0.0242  0.2051
14135TIP3    H163820   4.303   6.629   4.499 -1.7979 -0.4192  0.7285
14135TIP3    H263821   4.334   6.574   4.361 -0.0910  0.9738  0.5254
14136TIP3   OH263822   6.583   3.117  11.806  0.2103 -0.7706 -0.0513
14136TIP3    H163823   6.554   3.097  11.895  0.3782 -1.7128 -0.1992
14136TIP3    H263824   6.635   3.196  11.815  0.3171 -0.9194  0.7115
14137TIP3   OH263825   0.584   6.152   3.775  0.0121 -0.3684 -0.3471
14137TIP3    H163826   0.663   6.136   3.725  2.1027  1.3873  2.1020
14137TIP3    H263827   0.565   6.069   3.819  1.7993 -0.3144  0.6234
14138TIP3   OH263828   0.758   1.496   5.788  0.4728 -0.9751  0.2476
14138TIP3    H163829   0.784   1.572   5.737 -0.3217 -1.1960 -0.5136
14138TIP3    H263830   0.828   1.432   5.773  0.0119 -1.2114 -0.9766
14139TIP3   OH263831   1.424   6.289   0.605 -0.2207  0.0471 -0.6511
14139TIP3    H163832   1.425   6.236   0.525  1.6818  1.8711 -1.9428
14139TIP3    H263833   1.391   6.230   0.673 -0.4338 -2.0332 -2.4648
14140TIP3   OH263834   5.632   3.586   3.675  0.4056 -0.2160 -0.1017
14140TIP3    H163835   5.550   3.618   3.712  0.4430 -1.7411  1.4189
14140TIP3    H263836   5.674   3.664   3.639 -0.4719  1.0656  1.5120
14141TIP3   OH263837   2.020   1.068  11.687  0.7105 -0.0041  0.1494
14141TIP3    H163838   2.027   1.004  11.758 -0.6352 -0.8315 -0.4308
14141TIP3    H263839   1.987   1.018  11.613  0.4598  1.1991 -0.5790
14142TIP3   OH263840   1.299   3.738   2.525  0.0066 -0.4272 -0.2257
14142TIP3    H163841   1.228   3.749   2.462 -0.8553 -2.1817  0.3653
14142TIP3    H263842   1.377   3.725   2.472 -0.0787  1.4799 -0.8848
14143TIP3   OH263843   1.063   5.109   5.938 -0.3592  0.4022 -0.0527
14143TIP3    H163844   1.148   5.149   5.954 -0.3463 -0.3124  2.0537
14143TIP3    H263845   1.083   5.024   5.898 -0.1713  0.7038 -0.6148
14144TIP3   OH263846   1.377   3.152   0.005  0.6820 -0.0967  0.4312
14144TIP3    H163847   1.386   3.244  -0.018  2.2970 -0.5260 -0.8524
14144TIP3    H263848   1.458   3.111  -0.026 -1.1500 -2.4568 -1.7901
14145TIP3   OH263849   3.132   2.269  11.854 -0.1466  0.4274 -0.3021
14145TIP3    H163850   3.151   2.305  11.767 -0.7454 -0.6200 -0.8977
14145TIP3    H263851   3.104   2.345  11.906  0.3696  1.0944 -0.9709
14146TIP3   OH263852   0.833   4.698  14.323 -0.3288 -0.1150 -0.0827
14146TIP3    H163853   0.861   4.767  14.262 -0.3368  0.7247  0.8398
14146TIP3    H263854   0.740   4.714  14.336  0.0813  1.1034  1.8194
14147TIP3   OH263855   1.897   1.967  11.292 -0.1009  0.0248 -0.5108
14147TIP3    H163856   1.985   1.936  11.315  0.6733  0.7094 -2.3281
14147TIP3    H263857   1.907   2.001  11.203 -1.9035  1.3900 -0.2348
14148TIP3   OH263858   5.957   1.715  12.210  0.5336  0.7868  0.0668
14148TIP3    H163859   6.022   1.721  12.280 -0.2066  3.7322  0.6170
14148TIP3    H263860   6.001   1.752  12.133 -0.1802  1.9491  0.2102
14149TIP3   OH263861   5.463   0.651   0.557 -0.7506 -0.6082  0.1130
14149TIP3    H163862   5.423   0.568   0.581  1.3031 -0.7702  3.8633
14149TIP3    H263863   5.539   0.658   0.614  1.1698  2.3211 -2.4743
14150TIP3   OH263864   0.066   3.266   2.644 -0.1758  0.8630 -0.1527
14150TIP3    H163865   0.035   3.187   2.599  0.1631  0.6958 -0.0951
14150TIP3    H263866   0.096   3.323   2.573 -1.7302  1.5422 -0.3197
14151TIP3   OH263867   2.694   3.218   4.384 -0.0924  0.1081 -0.4240
14151TIP3    H163868   2.697   3.308   4.350  1.9894  0.1780 -0.1641
14151TIP3    H263869   2.740   3.166   4.319 -0.5905 -0.6497 -0.1789
14152TIP3   OH263870   5.316   4.907  16.615 -0.3730  0.0948 -0.8850
14152TIP3    H163871   5.241   4.851  16.639  0.6678 -0.4229  1.4688
14152TIP3    H263872   5.286   4.954  16.538 -3.0610 -0.2643 -0.1936
14153TIP3   OH263873   2.322   5.649  12.726  0.0456  0.7491  0.5103
14153TIP3    H163874   2.382   5.591  12.773 -1.1205 -0.0985  0.9982
14153TIP3    H263875   2.259   5.677  12.793 -0.7538  0.7324 -0.2270
14154TIP3   OH263876   1.677   5.511  14.272 -0.1834 -0.1071 -0.1261
14154TIP3    H163877   1.635   5.425  14.272 -0.9040  0.2477  0.1513
14154TIP3    H263878   1.605   5.574  14.274  0.3578  0.5048  0.5216
14155TIP3   OH263879   1.673   5.883   2.435 -0.8663 -0.4685  0.2016
14155TIP3    H163880   1.749   5.940   2.448 -1.1831 -0.2875  1.3623
14155TIP3    H263881   1.659   5.883   2.341 -0.6067  1.0639  0.1298
14156TIP3   OH263882   6.289   3.505  12.784  0.5245  0.0966 -0.2695
14156TIP3    H163883   6.237   3.483  12.707 -2.2905  0.8941  1.2391
14156TIP3    H263884   6.316   3.596  12.770 -0.0718  0.2731 -0.3108
14157TIP3   OH263885   5.707   2.943  10.738 -0.2268 -0.4568 -0.1327
14157TIP3    H163886   5.620   2.955  10.777 -1.4022 -0.8087 -2.4454
14157TIP3    H263887   5.736   2.858  10.770 -0.7931 -0.4062  0.5489
14158TIP3   OH263888   6.489   2.059   4.591 -0.4393  0.3201 -0.1474
14158TIP3    H163889   6.455   2.009   4.666 -0.0540 -0.5329 -0.5285
14158TIP3    H263890   6.508   2.146   4.627  1.4395 -0.5865  1.2037
14159TIP3   OH263891   6.362   0.140   4.938  0.4259 -0.5085 -0.0224
14159TIP3    H163892   6.373   0.059   4.987 -0.4327  0.5715  2.0627
14159TIP3    H263893   6.274   0.134   4.900  1.8362 -2.2678 -3.3990
14160TIP3   OH263894   5.507   0.001   0.294 -0.2824  0.0564  0.1881
14160TIP3    H163895   5.538  -0.058   0.363 -0.5309 -0.3164 -0.0112
14160TIP3    H263896   5.421  -0.035   0.269 -0.8633  1.0460  0.7062
14161TIP3   OH263897   5.361   4.679   0.247  0.6404  0.1399  0.5387
14161TIP3    H163898   5.294   4.712   0.306  0.9927  1.6619  0.1492
14161TIP3    H263899   5.313   4.651   0.169  0.4222  1.2885  0.2313
14162TIP3   OH263900   0.032   2.786  11.187 -0.5361  0.4400  0.4777
14162TIP3    H163901   0.120   2.805  11.154 -1.3222 -0.0004 -2.1351
14162TIP3    H263902  -0.025   2.840  11.133 -2.0356 -1.2428  0.3165
14163TIP3   OH263903   5.788   2.270  15.834  0.3735  0.4194  0.4573
14163TIP3    H163904   5.713   2.329  15.820 -0.0295 -0.6039 -2.3403
14163TIP3    H263905   5.831   2.265  15.748  1.5339 -1.8167  1.0904
14164TIP3   OH263906   4.926   6.538   3.201  0.9949 -0.4181  0.1156
14164TIP3    H163907   4.917   6.458   3.150  0.3380  0.1092 -0.6059
14164TIP3    H263908   4.906   6.512   3.291 -3.4335 -0.3269 -0.6357
14165TIP3   OH263909   0.411   2.668   6.634 -0.5204 -0.1637  0.7870
14165TIP3    H163910   0.471   2.616   6.580  0.3599  0.0595  1.5104
14165TIP3    H263911   0.416   2.756   6.597 -1.8869 -0.5343 -0.3374
14166TIP3   OH263912   4.281   4.228   6.343  0.0046 -0.5294 -0.2394
14166TIP3    H163913   4.289   4.322   6.355  0.8983 -0.5865 -0.3229
14166TIP3    H263914   4.189   4.214   6.321 -0.3657  0.2043  0.7710
14167TIP3   OH263915   6.165   1.680  10.521  0.8614 -0.0945  0.9571
14167TIP3    H163916   6.260   1.682  10.508  1.1569 -0.7395  2.6822
14167TIP3    H263917   6.139   1.772  10.515  1.9032  0.3247  2.2233
14168TIP3   OH263918   3.759   6.177   2.644 -0.0243  0.6019  0.1072
14168TIP3    H163919   3.754   6.086   2.616  1.3996  0.6726 -0.4565
14168TIP3    H263920   3.840   6.210   2.607 -0.1944  1.9367  0.8215
14169TIP3   OH263921   1.181   3.447  16.210 -0.4985  0.6031  1.2263
14169TIP3    H163922   1.249   3.461  16.276 -0.4450 -0.4320  1.4210
14169TIP3    H263923   1.195   3.356  16.181  0.0669  1.3073 -0.8877
14170TIP3   OH263924   5.131   2.305   5.363 -0.3604  0.1041 -0.5530
14170TIP3    H163925   5.091   2.219   5.377  1.3074 -0.4867  1.0626
14170TIP3    H263926   5.132   2.345   5.450 -0.5465  1.5012 -1.1803
14171TIP3   OH263927   5.105   2.223   0.233 -0.0550 -0.2982  0.0073
14171TIP3    H163928   5.036   2.170   0.193 -0.1579 -0.3886  0.3071
14171TIP3    H263929   5.172   2.160   0.261 -0.5271 -0.3457  1.0632
14172TIP3   OH263930   0.765   2.025  14.555  0.3347  0.1223 -0.3873
14172TIP3    H163931   0.677   2.054  14.582  0.7616 -0.0256  1.2761
14172TIP3    H263932   0.759   2.015  14.460 -1.3434  0.4748 -0.3489
14173TIP3   OH263933   4.861   3.409  13.173  0.3410 -0.2215  0.0365
14173TIP3    H163934   4.923   3.410  13.100  0.8408  0.1608  0.4595
14173TIP3    H263935   4.893   3.476  13.233 -0.8006  0.3897  0.0022
14174TIP3   OH263936   6.762   2.686  11.679  0.8099  0.1436  0.0504
14174TIP3    H163937   6.785   2.717  11.591  0.7187 -0.1928 -0.0938
14174TIP3    H263938   6.839   2.707  11.732  0.3473  1.5889  0.2015
14175TIP3   OH263939   3.936   2.207  14.483 -0.2018  0.3301  0.0598
14175TIP3    H163940   3.879   2.238  14.553  1.0142 -0.4945  1.4772
14175TIP3    H263941   3.942   2.280  14.422 -0.9400  1.2323  1.0418
14176TIP3   OH263942   1.957   4.664  14.652 -0.6533  0.0754  0.4037
14176TIP3    H163943   1.874   4.652  14.697 -0.3842 -0.5341  0.7420
14176TIP3    H263944   1.986   4.576  14.630  0.3168  0.2184  1.0494
14177TIP3   OH263945   5.524   4.947   3.087  0.4528 -0.3809 -0.1048
14177TIP3    H163946   5.472   4.937   3.166  0.9057  0.6474  0.3405
14177TIP3    H263947   5.581   4.870   3.086  2.4275  0.9012  2.1229
14178TIP3   OH263948   3.015   0.771   3.269 -0.1964  0.0066  0.7926
14178TIP3    H163949   3.012   0.717   3.348  0.9447 -1.2582  0.0197
14178TIP3    H263950   3.032   0.709   3.198 -2.9015  0.8594 -0.7460
14179TIP3   OH263951   4.082   3.467  11.253  0.0991 -0.2352 -0.7419
14179TIP3    H163952   4.090   3.382  11.210  0.8009  0.2908 -1.6883
14179TIP3    H263953   4.168   3.507  11.244 -0.1558  0.4891 -0.0988
14180TIP3   OH263954   4.587   2.533   0.571  0.7209 -0.0261  0.0140
14180TIP3    H163955   4.669   2.565   0.535  0.4830 -0.0491 -0.5527
14180TIP3    H263956   4.612   2.487   0.651  1.0526  1.9433  1.1086
14181TIP3   OH263957   3.836   6.200   0.156  0.1192 -0.1631 -0.3525
14181TIP3    H163958   3.801   6.267   0.215 -0.2354  1.1089 -1.9255
14181TIP3    H263959   3.801   6.224   0.070  3.0157 -0.1513 -1.6320
14182TIP3   OH263960   4.800   0.387  15.194  0.3290 -0.1334 -0.4821
14182TIP3    H163961   4.855   0.426  15.262  1.0496 -1.0454 -0.5098
14182TIP3    H263962   4.762   0.461  15.148  2.8188  0.5984 -1.4921
14183TIP3   OH263963   0.384   2.314  14.443 -0.9223 -0.5120 -0.0636
14183TIP3    H163964   0.336   2.255  14.385 -1.4695 -1.1238  0.9775
14183TIP3    H263965   0.318   2.377  14.474 -0.8024 -0.6274  0.4461
14184TIP3   OH263966   3.238   1.311   0.307  0.4874 -0.1602 -0.3034
14184TIP3    H163967   3.240   1.397   0.266 -1.1553 -0.4639 -1.0870
14184TIP3    H263968   3.295   1.257   0.253  1.6055  0.4429  0.2506
14185TIP3   OH263969   0.687   3.017  16.339 -0.1689  0.0181 -0.4185
14185TIP3    H163970   0.597   2.984  16.330  0.0204 -0.0897 -2.3239
14185TIP3    H263971   0.733   2.983  16.262  1.4737  0.2424  0.4173
14186TIP3   OH263972   5.642   4.586   0.389  0.0177  0.0918  0.4307
14186TIP3    H163973   5.564   4.557   0.435 -0.4755  1.9830  0.8506
14186TIP3    H263974   5.708   4.596   0.457 -0.3776  1.7576  0.6137
14187TIP3   OH263975   3.550   6.687  11.883 -0.0829  0.2507  0.1730
14187TIP3    H163976   3.621   6.747  11.861  0.6138 -0.9555 -1.0066
14187TIP3    H263977   3.534   6.638  11.803 -1.3212 -0.4573  0.8168
14188TIP3   OH263978   5.302   4.316  14.938 -0.4207  0.0849 -0.2126
14188TIP3    H163979   5.255   4.247  14.985  1.0969 -1.2402 -0.5534
14188TIP3    H263980   5.344   4.271  14.865  0.5266  1.3982 -0.5122
14189TIP3   OH263981   2.548   5.354   2.290  1.0886 -1.0743 -0.1395
14189TIP3    H163982   2.453   5.341   2.281  0.4392  2.2436  0.7366
14189TIP3    H263983   2.578   5.273   2.332 -1.8388 -1.2622  1.9864
14190TIP3   OH263984   4.948   1.035   3.854  0.0315 -0.0121  0.1911
14190TIP3    H163985   5.021   0.986   3.815 -0.4726 -1.5832  1.1387
14190TIP3    H263986   4.884   1.043   3.784 -0.7847 -2.6444  0.5061
14191TIP3   OH263987   5.002   4.093  14.110  0.0097 -0.0414 -0.0331
14191TIP3    H163988   5.046   4.099  14.025 -0.4918  1.7940 -0.2101
14191TIP3    H263989   4.935   4.026  14.097 -0.1458  0.3012 -1.1464
14192TIP3   OH263990   5.897   3.046  15.347  0.7324 -0.3695  0.1518
14192TIP3    H163991   5.939   3.124  15.383  1.0509  0.0662 -1.1210
14192TIP3    H263992   5.809   3.075  15.322  0.3259 -0.8001  1.0233
14193TIP3   OH263993   3.097   0.384  16.800 -0.0286 -0.1519 -0.7833
14193TIP3    H163994   3.005   0.377  16.827  0.4713 -0.7192  0.9352
14193TIP3    H263995   3.134   0.298  16.817  1.0185  0.2964 -0.6640
14194TIP3   OH263996   1.994   4.046   1.388 -0.6184  1.1671  0.2587
14194TIP3    H163997   1.925   3.980   1.384  0.5720 -0.1970  1.3347
14194TIP3    H263998   1.991   4.078   1.478 -0.5288  1.8746  0.0138
14195TIP3   OH263999   1.725   4.747  13.549  0.5127 -0.3856  0.2815
14195TIP3    H164000   1.714   4.654  13.570  1.5889 -0.3763  0.9669
14195TIP3    H264001   1.697   4.793  13.628  1.4998 -0.2064  0.5414
14196TIP3   OH264002   2.255   4.484  14.254 -0.2188 -0.1189  0.1215
14196TIP3    H164003   2.174   4.536  14.255  0.6428  1.3416 -1.2042
14196TIP3    H264004   2.241   4.416  14.320 -3.0759 -0.7747 -0.9869
14197TIP3   OH264005   1.920   5.593   5.624 -0.2210 -0.8641 -0.3716
14197TIP3    H164006   2.001   5.594   5.573 -0.0071 -0.5208 -0.0323
14197TIP3    H264007   1.894   5.500   5.627  0.2094 -0.9863 -0.4044
14198TIP3   OH264008   4.158   0.525  14.050  0.4711 -0.2186  0.0918
14198TIP3    H164009   4.078   0.480  14.076  0.7450 -1.4676 -1.0994
14198TIP3    H264010   4.226   0.489  14.108  0.3023  0.3013  0.6151
14199TIP3   OH264011   3.503   1.882  10.900 -0.0847 -0.4846 -0.0585
14199TIP3    H164012   3.435   1.949  10.909 -1.0101 -1.3962 -0.0507
14199TIP3    H264013   3.455   1.799  10.899  0.8915 -1.0849 -1.6653
14200TIP3   OH264014   5.733   5.169  11.331  0.2197  0.1240  0.1450
14200TIP3    H164015   5.649   5.152  11.375  0.7479 -0.5614  0.9124
14200TIP3    H264016   5.713   5.158  11.238 -0.7344  0.8206  0.2512
14201TIP3   OH264017   2.310   6.746  15.571  0.6996 -0.0447  0.1859
14201TIP3    H164018   2.291   6.681  15.638  2.2016  0.0238  0.7139
14201TIP3    H264019   2.237   6.739  15.509 -1.9710  1.4398  2.9172
14202TIP3   OH264020   4.300   3.657  12.492  0.0199 -0.1865  0.1477
14202TIP3    H164021   4.244   3.734  12.480  0.4365 -0.0961 -1.4188
14202TIP3    H264022   4.291   3.635  12.584  0.0934  1.8933  0.6892
14203TIP3   OH264023   0.316   4.328   1.730  0.4914  0.2500  0.2823
14203TIP3    H164024   0.410   4.328   1.746  0.3868 -0.7852  1.0278
14203TIP3    H264025   0.277   4.348   1.815  0.0258  0.2104  0.0832
14204TIP3   OH264026   0.304   4.113  14.708 -0.0733  0.3880 -0.3854
14204TIP3    H164027   0.301   4.080  14.618  1.0271  0.2865 -0.3912
14204TIP3    H264028   0.312   4.035  14.763  2.0551  0.5530 -0.3750
14205TIP3   OH264029   1.166   1.160   2.127 -0.2781 -0.3982 -0.5444
14205TIP3    H164030   1.250   1.120   2.104 -0.1203  0.0728 -0.8040
14205TIP3    H264031   1.155   1.231   2.063  1.4538  2.7670  2.3173
14206TIP3   OH264032   6.422   0.281   5.420  0.1430 -0.3193  0.3496
14206TIP3    H164033   6.333   0.314   5.406 -0.3294 -1.3566  0.8366
14206TIP3    H264034   6.469   0.357   5.454 -0.6761  0.1262  0.5388
14207TIP3   OH264035   6.145   5.169   4.971  0.0462  0.2383  0.3680
14207TIP3    H164036   6.109   5.082   4.989 -0.5414  0.8136  2.1485
14207TIP3    H264037   6.239   5.159   4.983 -0.1412  0.1216  1.8996
14208TIP3   OH264038   1.179   3.956  13.493 -0.6765 -0.1469 -0.2835
14208TIP3    H164039   1.195   4.021  13.425 -2.9348 -0.2150 -0.9479
14208TIP3    H264040   1.200   3.872  13.453  0.5056 -0.0049 -0.0059
14209TIP3   OH264041   1.111   6.640  13.599  0.2874 -0.3156 -0.8670
14209TIP3    H164042   1.084   6.648  13.691  0.3130  1.3547 -0.9697
14209TIP3    H264043   1.061   6.708  13.554 -0.8295 -2.0422 -2.3805
14210TIP3   OH264044   5.773   2.777  14.364  0.1292 -0.5568 -0.2772
14210TIP3    H164045   5.767   2.778  14.268  0.4836  1.5603 -0.3240
14210TIP3    H264046   5.683   2.794  14.393  0.1387 -0.5742 -0.2376
14211TIP3   OH264047   5.418   4.447  15.167 -0.4238  0.2303  0.2875
14211TIP3    H164048   5.507   4.414  15.156 -0.7518 -0.5490 -0.1118
14211TIP3    H264049   5.373   4.421  15.087 -0.6809  1.7633 -0.1095
14212TIP3   OH264050   1.481   3.132   5.652  0.3579 -0.1931 -0.1784
14212TIP3    H164051   1.423   3.100   5.582 -1.3978  1.6910  0.2929
14212TIP3    H264052   1.569   3.121   5.617 -0.3618 -1.3653 -1.7621
14213TIP3   OH264053   3.513   0.789   2.941  0.0325 -0.4270 -0.2568
14213TIP3    H164054   3.425   0.752   2.943 -0.3065  0.2431 -1.7069
14213TIP3    H264055   3.560   0.743   3.010 -1.1030 -1.6715 -0.2841
14214TIP3   OH264056   5.537   5.732  11.941  0.4310  0.0801  0.0290
14214TIP3    H164057   5.572   5.760  11.857  1.3029 -1.6893 -0.2611
14214TIP3    H264058   5.469   5.668  11.919  0.1485  0.1519  0.6589
14215TIP3   OH264059   1.754   5.861  14.706  0.2543 -0.8009  0.0937
14215TIP3    H164060   1.703   5.881  14.784  1.1830 -0.0583  0.5242
14215TIP3    H264061   1.737   5.933  14.646  0.5279 -0.7255  0.1053
14216TIP3   OH264062   4.048   4.382   4.799  0.0165 -0.3582  0.5646
14216TIP3    H164063   4.086   4.295   4.813  0.6136 -0.0758  0.7213
14216TIP3    H264064   4.101   4.421   4.730  0.1737  0.1294  0.9511
14217TIP3   OH264065   2.843   1.391  13.530  0.5609 -0.5907  0.1754
14217TIP3    H164066   2.923   1.413  13.577  0.5391  0.3501 -0.2231
14217TIP3    H264067   2.785   1.356  13.598  0.9860 -0.4357  0.6234
14218TIP3   OH264068   5.546   4.707   4.848  0.1609  0.3027  0.0449
14218TIP3    H164069   5.477   4.767   4.821  1.0910  0.7865 -1.3851
14218TIP3    H264070   5.502   4.623   4.860 -0.7646  0.7302 -0.2776
14219TIP3   OH264071   2.639   1.221  11.660  0.1195 -0.0158  0.3786
14219TIP3    H164072   2.634   1.191  11.570  1.0519  0.6087  0.1103
14219TIP3    H264073   2.618   1.144  11.713 -0.7696 -0.3020 -0.3681
14220TIP3   OH264074   4.308   6.512   2.013 -0.2504 -0.2672  0.2296
14220TIP3    H164075   4.267   6.427   2.001  0.3603 -0.5092 -0.2089
14220TIP3    H264076   4.332   6.515   2.105 -1.4578 -0.0168  0.5549
14221TIP3   OH264077   5.527   5.891   1.570  0.2586 -0.1954 -0.3431
14221TIP3    H164078   5.493   5.967   1.618  0.1398  0.2017 -1.0510
14221TIP3    H264079   5.477   5.817   1.604 -0.6321  0.2450 -0.6745
14222TIP3   OH264080   5.696   6.422  11.921 -0.0907 -0.0822  0.3227
14222TIP3    H164081   5.637   6.463  11.985  0.8668  0.2968  0.9797
14222TIP3    H264082   5.734   6.348  11.969 -0.2552 -0.5110 -0.1989
14223TIP3   OH264083   5.807   4.103   0.370 -0.0381 -0.8630  0.3436
14223TIP3    H164084   5.862   4.070   0.441 -0.4297 -3.2668 -0.3769
14223TIP3    H264085   5.744   4.160   0.413  0.5083 -1.3011  1.7703
14224TIP3   OH264086   6.446   4.430  13.589  0.5214 -0.4455 -0.2537
14224TIP3    H164087   6.537   4.400  13.595  0.7405  0.1867 -0.2939
14224TIP3    H264088   6.398   4.356  13.553  0.8989 -1.0186  0.4123
14225TIP3   OH264089   1.186   3.762   1.355 -0.0197  0.4528  0.0218
14225TIP3    H164090   1.198   3.813   1.275 -0.3113 -0.8550 -0.8743
14225TIP3    H264091   1.131   3.817   1.410  1.5218  2.0972  0.0323
14226TIP3   OH264092   6.061   0.526   1.634 -0.0071  0.5094 -0.0991
14226TIP3    H164093   6.154   0.542   1.655  0.2448 -0.1475 -0.6815
14226TIP3    H264094   6.051   0.556   1.544  0.3179 -1.7905 -0.9978
14227TIP3   OH264095   2.927   5.156   2.425 -0.1229 -0.1471 -0.1268
14227TIP3    H164096   2.847   5.104   2.416  0.3188 -0.8349 -0.1485
14227TIP3    H264097   2.896   5.246   2.435 -0.8710 -0.2923 -1.0138
14228TIP3   OH264098   4.833   4.429  14.603 -0.2782  0.3460  0.1678
14228TIP3    H164099   4.822   4.440  14.509 -1.3388  1.1453  0.3664
14228TIP3    H264100   4.870   4.512  14.633  1.7938 -0.5371  0.2361
14229TIP3   OH264101   6.143   6.286  14.441 -0.0124 -0.4464  0.8175
14229TIP3    H164102   6.136   6.326  14.528 -0.2548  0.0939  0.5532
14229TIP3    H264103   6.085   6.210  14.444 -1.4364  0.6014  0.5543
14230TIP3   OH264104   1.956   5.478  11.786  0.1680  0.2022 -0.2473
14230TIP3    H164105   1.986   5.551  11.840 -0.5411  0.1352  0.2444
14230TIP3    H264106   2.032   5.420  11.781  0.2971  0.2893  0.5420
14231TIP3   OH264107   0.701   5.372  14.653 -0.4198 -0.0205  0.4171
14231TIP3    H164108   0.699   5.299  14.591 -1.9605  0.0768  0.3328
14231TIP3    H264109   0.636   5.350  14.719 -0.8143  1.2035  0.4647
14232TIP3   OH264110   2.385   2.643   1.081  0.0024 -0.1871 -0.4587
14232TIP3    H164111   2.424   2.571   1.031  0.4323 -1.0410  1.0334
14232TIP3    H264112   2.355   2.705   1.015  2.0635 -0.4476 -1.7341
14233TIP3   OH264113   3.346   0.596  13.685 -0.0014  0.2987 -0.3077
14233TIP3    H164114   3.251   0.606  13.693 -0.3190 -1.4738 -1.1909
14233TIP3    H264115   3.378   0.592  13.776 -0.8333  0.4114 -0.0036
14234TIP3   OH264116   6.648   4.713   3.630 -0.5622 -0.2388 -0.3210
14234TIP3    H164117   6.743   4.714   3.642 -0.4502 -0.7116 -1.0915
14234TIP3    H264118   6.633   4.647   3.562 -1.4224 -0.0197 -0.3582
14235TIP3   OH264119   1.708   4.267   5.409 -0.6295 -0.0631  0.1912
14235TIP3    H164120   1.680   4.357   5.391  0.6357  0.6702  1.6862
14235TIP3    H264121   1.691   4.256   5.502 -0.0181 -1.1117  0.1823
14236TIP3   OH264122   2.396   4.203   3.283  0.2886  0.7263  0.1670
14236TIP3    H164123   2.450   4.273   3.318  1.6963  0.4054 -1.2561
14236TIP3    H264124   2.340   4.245   3.218 -1.3683  1.0837  1.7343
14237TIP3   OH264125   0.236   3.591  14.055 -0.1098 -0.6918  0.3709
14237TIP3    H164126   0.171   3.538  14.009  0.4951 -1.2001  0.0911
14237TIP3    H264127   0.197   3.679  14.058 -0.3847 -0.7637 -0.6694
14238TIP3   OH264128   0.515   2.184   4.710  0.5131 -0.4767  0.5327
14238TIP3    H164129   0.444   2.248   4.714 -0.1313 -1.0725 -0.8826
14238TIP3    H264130   0.587   2.231   4.667  0.3472 -0.4292  0.3046
14239TIP3   OH264131   0.742   6.732   4.495  0.0629 -0.0487  0.3906
14239TIP3    H164132   0.717   6.675   4.567  2.8785 -1.4821  0.3596
14239TIP3    H264133   0.816   6.782   4.529  0.1430  0.7345 -0.8763
14240TIP3   OH264134   1.496   2.309   3.581 -0.4051 -0.5797 -0.3106
14240TIP3    H164135   1.501   2.330   3.674 -0.6274 -0.4205 -0.3340
14240TIP3    H264136   1.587   2.311   3.551 -0.2837 -1.1122  0.0075
14241TIP3   OH264137   0.419   0.511  12.915  0.7270  0.2536 -0.4631
14241TIP3    H164138   0.447   0.440  12.973  1.4446  1.1151  0.2771
14241TIP3    H264139   0.420   0.472  12.828 -1.4453 -1.3995  0.1566
14242TIP3   OH264140   0.471   2.148  13.859 -0.3546 -0.6732  0.0668
14242TIP3    H164141   0.507   2.062  13.881 -1.6390 -0.9932  1.0797
14242TIP3    H264142   0.406   2.130  13.791 -1.6438 -0.7393  1.2750
14243TIP3   OH264143   4.908   4.310   4.309  0.1371 -0.4521 -0.2565
14243TIP3    H164144   4.886   4.224   4.274 -0.0831 -0.6628  0.3927
14243TIP3    H264145   4.826   4.343   4.346  0.1461  0.1733 -0.7685
14244TIP3   OH264146   2.257   1.925   2.822  0.0886 -0.4647 -0.1354
14244TIP3    H164147   2.285   1.851   2.769 -2.0944  0.0054 -2.1258
14244TIP3    H264148   2.219   1.987   2.759 -1.1121  0.8790  1.7930
14245TIP3   OH264149   5.997   0.940   6.247  0.7914  0.0813 -0.4726
14245TIP3    H164150   5.916   0.938   6.297  0.6951 -1.2785 -0.6282
14245TIP3    H264151   5.980   1.000   6.174  0.3036  0.6252  0.0818
14246TIP3   OH264152   1.752   3.035   4.857  0.3407  0.1683  0.1607
14246TIP3    H164153   1.748   2.995   4.770 -0.9224 -0.1253  0.3266
14246TIP3    H264154   1.809   3.111   4.846 -0.3394  0.5264 -1.0938
14247TIP3   OH264155   3.947   3.296  16.267  0.2031 -0.5679  0.2643
14247TIP3    H164156   4.009   3.225  16.256  0.7303  0.0298 -0.7906
14247TIP3    H264157   3.971   3.360  16.199  1.0710  1.5689  2.4275
14248TIP3   OH264158   0.511   6.660  14.020  0.4891 -0.4712 -0.3034
14248TIP3    H164159   0.485   6.576  13.984  0.3085 -0.6835  0.3032
14248TIP3    H264160   0.582   6.640  14.081  0.9215 -0.0994 -0.6778
14249TIP3   OH264161   4.506   1.929  14.913 -1.1856 -0.2225  0.1381
14249TIP3    H164162   4.552   1.861  14.962 -0.7171  1.1828  1.7268
14249TIP3    H264163   4.506   2.005  14.971  0.5050  1.9801 -2.4864
14250TIP3   OH264164   6.308   5.765  11.901  0.4553 -0.4032 -0.1002
14250TIP3    H164165   6.270   5.839  11.948  1.6806  0.2443 -0.0847
14250TIP3    H264166   6.368   5.805  11.838 -0.4537 -1.2953 -1.6170
14251TIP3   OH264167   2.841   2.925   5.560 -0.1287  0.0323 -0.1347
14251TIP3    H164168   2.820   2.887   5.645 -0.8801  0.3597 -0.1670
14251TIP3    H264169   2.825   3.018   5.571 -2.9991 -0.2117 -1.4104
14252TIP3   OH264170   2.497   4.303   1.163 -0.4419 -0.2512  0.1331
14252TIP3    H164171   2.459   4.351   1.090  0.6275 -1.0499 -0.9994
14252TIP3    H264172   2.542   4.369   1.215  0.7206  0.0667 -1.2088
14253TIP3   OH264173   1.087   0.111   2.980  0.0813  0.3190  0.4377
14253TIP3    H164174   1.097   0.030   3.030  0.3264 -0.5592 -0.9658
14253TIP3    H264175   1.158   0.167   3.010  1.3480 -0.8899 -0.2014
14254TIP3   OH264176   2.208   5.467   0.070 -0.1593  0.1745  0.4896
14254TIP3    H164177   2.212   5.551   0.025  0.7683  0.7356  1.5877
14254TIP3    H264178   2.299   5.439   0.078 -0.5283 -2.1042 -1.9151
14255TIP3   OH264179   2.074   1.881  12.581 -0.6660  0.1160 -0.3756
14255TIP3    H164180   2.043   1.968  12.605 -0.8218 -0.3055  1.0596
14255TIP3    H264181   2.128   1.895  12.504 -0.5999  1.4929 -0.1010
14256TIP3   OH264182   0.629   4.280   0.615  0.5564 -0.0447 -0.2488
14256TIP3    H164183   0.570   4.238   0.553  0.2974 -0.8635  0.5307
14256TIP3    H264184   0.680   4.209   0.652 -1.0654  0.0110  2.3424
14257TIP3   OH264185   3.489   6.489   4.497  0.0059 -0.0394  0.0802
14257TIP3    H164186   3.480   6.394   4.502  1.2371 -0.1726  0.1583
14257TIP3    H264187   3.552   6.503   4.425 -0.5608  0.7403 -0.2759
14258TIP3   OH264188   0.640   6.577  11.491  0.1576 -0.0601  0.2883
14258TIP3    H164189   0.637   6.549  11.583 -1.1195  1.0399  0.6254
14258TIP3    H264190   0.726   6.551  11.461  0.4320 -0.8740  1.6699
14259TIP3   OH264191   6.630   6.191   0.455  0.2540  0.4252 -0.3732
14259TIP3    H164192   6.708   6.138   0.435  0.1284  0.5073 -1.0933
14259TIP3    H264193   6.620   6.249   0.380  1.7653  3.1690  1.3713
14260TIP3   OH264194   5.142   1.940  13.757 -0.4024 -0.2604  0.0164
14260TIP3    H164195   5.140   1.873  13.689 -1.1291  0.6468 -0.8854
14260TIP3    H264196   5.151   1.891  13.838  2.9456 -1.3099 -0.8112
14261TIP3   OH264197   1.782   5.592   4.434 -0.0181 -0.6896 -0.0758
14261TIP3    H164198   1.866   5.567   4.471  0.1776 -1.3452 -0.9343
14261TIP3    H264199   1.797   5.594   4.340 -0.9828 -0.8728 -0.2424
14262TIP3   OH264200   4.644   5.440   5.572  0.9607 -0.2151 -0.2731
14262TIP3    H164201   4.700   5.499   5.522  1.5755 -0.3027  0.2968
14262TIP3    H264202   4.591   5.395   5.506 -0.8119  2.2349 -0.6331
14263TIP3   OH264203   3.016   0.464   1.833 -0.3108 -0.1495  0.0883
14263TIP3    H164204   3.090   0.517   1.861 -0.8819  0.7786 -0.1211
14263TIP3    H264205   3.031   0.448   1.740  1.6014 -3.2574  0.7878
14264TIP3   OH264206   1.409   6.199  14.532 -0.2544 -0.1957  0.0172
14264TIP3    H164207   1.390   6.173  14.622  3.3672 -3.2703  0.1663
14264TIP3    H264208   1.354   6.142  14.478  0.5879 -1.3797  0.3689
14265TIP3   OH264209   0.396   6.390   1.163 -0.3084 -0.3027  0.8024
14265TIP3    H164210   0.470   6.439   1.129 -0.0440  0.2895  2.1712
14265TIP3    H264211   0.387   6.316   1.103 -0.0512  0.8132 -0.6994
14266TIP3   OH264212   3.580   0.125   4.562 -0.1180 -0.2527 -0.1303
14266TIP3    H164213   3.565   0.112   4.468 -0.3966 -1.5109  0.0663
14266TIP3    H264214   3.646   0.059   4.584  0.7715  0.7768  0.3441
14267TIP3   OH264215   4.953   4.301   3.524 -0.1697 -0.3186 -0.2222
14267TIP3    H164216   4.973   4.208   3.517  0.2773 -0.1762 -1.0177
14267TIP3    H264217   4.979   4.338   3.439  2.0456  0.9538  0.9105
14268TIP3   OH264218   3.688   3.797  16.614  0.2801  0.4339 -0.4038
14268TIP3    H164219   3.661   3.717  16.659  0.6287 -0.7503 -2.1758
14268TIP3    H264220   3.781   3.806  16.632  0.1566  0.6751  0.1235
14269TIP3   OH264221   5.739   3.708   5.793 -0.6826  0.1992  0.3278
14269TIP3    H164222   5.717   3.623   5.754 -0.1787  0.6666 -1.0188
14269TIP3    H264223   5.834   3.707   5.801 -0.8318 -0.6359  3.4062
14270TIP3   OH264224   1.654   3.239  12.492  0.5323  0.4502  0.5953
14270TIP3    H164225   1.627   3.163  12.544  1.0450 -0.1577 -0.0087
14270TIP3    H264226   1.615   3.314  12.537  0.9207 -0.0609  1.8270
14271TIP3   OH264227   2.143   1.110  15.521  0.0214  0.1693  0.2400
14271TIP3    H164228   2.121   1.203  15.513 -1.8942 -0.2574 -0.0761
14271TIP3    H264229   2.108   1.070  15.441 -1.6595 -1.1996  1.5534
14272TIP3   OH264230   5.848   6.103  16.003 -0.3229 -0.0314 -0.2526
14272TIP3    H164231   5.786   6.080  15.933  0.0814  0.5739 -0.8237
14272TIP3    H264232   5.918   6.038  15.995  0.2052  0.6089 -1.0632
14273TIP3   OH264233   0.611   6.002   2.258  0.2663  0.2188 -0.4462
14273TIP3    H164234   0.650   5.915   2.268 -0.8592 -0.2705 -0.1118
14273TIP3    H264235   0.611   6.040   2.346  1.7099  1.0055 -0.7602
14274TIP3   OH264236   1.120   1.473   5.702 -0.0118  0.7879 -0.5298
14274TIP3    H164237   1.204   1.437   5.673  0.4754  0.9457  0.6319
14274TIP3    H264238   1.069   1.397   5.728  0.5435  0.7941  0.6907
14275TIP3   OH264239   5.523   6.215   2.852  0.5037 -0.1817  0.1904
14275TIP3    H164240   5.480   6.300   2.858 -0.6504 -0.8370  1.8826
14275TIP3    H264241   5.609   6.234   2.813  0.5889  1.8513  1.2403
14276TIP3   OH264242   2.729   4.677  14.472  0.1242 -0.0673  0.0367
14276TIP3    H164243   2.772   4.688  14.387 -0.3661 -0.6869 -0.3044
14276TIP3    H264244   2.643   4.640  14.450  0.1920 -0.7119  0.8299
14277TIP3   OH264245   4.501   6.699   4.722 -0.2439  0.5290  0.0750
14277TIP3    H164246   4.507   6.609   4.754  2.0084  1.2089  1.8176
14277TIP3    H264247   4.407   6.715   4.714 -0.7111 -1.7799  0.2169
14278TIP3   OH264248   5.192   2.847  14.540  0.4191 -0.1756 -0.1643
14278TIP3    H164249   5.108   2.802  14.553  0.0690  0.6187  0.4363
14278TIP3    H264250   5.256   2.792  14.585  0.2100 -0.7397 -0.5448
14279TIP3   OH264251   4.603   6.075   2.142  0.5624  0.3528  0.0643
14279TIP3    H164252   4.611   6.090   2.047  0.2202 -1.2213 -0.2314
14279TIP3    H264253   4.692   6.085   2.176  0.6586  1.1013 -0.3871
14280TIP3   OH264254   3.569   1.248  15.627 -0.4027  0.1335  0.1226
14280TIP3    H164255   3.492   1.290  15.588 -0.6920 -0.7146 -0.2285
14280TIP3    H264256   3.597   1.184  15.561  0.3256  0.1149  0.4489
14281TIP3   OH264257   1.481   6.116  12.158 -0.0997 -0.0044 -0.0159
14281TIP3    H164258   1.411   6.059  12.128 -0.3036 -0.3559  1.0876
14281TIP3    H264259   1.519   6.070  12.233 -0.1587  1.2073  0.7834
14282TIP3   OH264260   5.552   3.779   4.507 -0.2469 -0.2043 -0.0796
14282TIP3    H164261   5.499   3.813   4.435 -0.1652  1.1208  0.4507
14282TIP3    H264262   5.490   3.731   4.562 -0.6195  0.1168 -0.2188
14283TIP3   OH264263   4.753   4.217  11.624  0.4115 -0.1037  0.1144
14283TIP3    H164264   4.726   4.255  11.540 -0.4310  0.3242  0.5655
14283TIP3    H264265   4.684   4.156  11.646  1.1329 -0.9771  0.0253
14284TIP3   OH264266   4.007   5.821   6.070 -0.0661 -0.7232 -0.0642
14284TIP3    H164267   4.063   5.899   6.063  0.9309 -1.4161  0.1105
14284TIP3    H264268   4.054   5.763   6.129 -0.8527 -1.4278 -0.1231
14285TIP3   OH264269   5.074   2.138   1.347  0.2549  0.1652  0.6405
14285TIP3    H164270   5.149   2.092   1.308  1.6086  2.9870 -0.3114
14285TIP3    H264271   5.103   2.160   1.436  0.5703  1.2361  0.2813
14286TIP3   OH264272   0.310   1.947  14.950 -0.0806 -0.2307 -0.1787
14286TIP3    H164273   0.304   1.937  15.045  0.1015 -1.5648 -0.2743
14286TIP3    H264274   0.222   1.926  14.918 -0.1938  0.4105 -0.2954
14287TIP3   OH264275   6.038   3.394   2.837 -0.2237  0.0358 -0.5861
14287TIP3    H164276   6.047   3.308   2.878 -2.8134  0.3111  0.7534
14287TIP3    H264277   6.038   3.376   2.743  2.4751 -0.9991 -0.4788
14288TIP3   OH264278   1.939   6.181  10.734  0.6320  0.3428 -0.4690
14288TIP3    H164279   1.972   6.196  10.645  0.8073  0.6559 -0.3499
14288TIP3    H264280   2.011   6.134  10.778  0.3161 -0.3458 -0.6651
14289TIP3   OH264281   3.768   4.920  11.560 -0.2282  0.1848  0.6892
14289TIP3    H164282   3.689   4.893  11.514  0.3484 -0.0219 -0.2142
14289TIP3    H264283   3.779   5.012  11.538 -0.3644  0.2821  1.0294
14290TIP3   OH264284   1.368   4.168   1.018  0.7523 -0.3117  0.2571
14290TIP3    H164285   1.375   4.183   0.924 -0.5373  0.4856  0.2703
14290TIP3    H264286   1.434   4.226   1.057  1.1280 -0.4716 -0.1309
14291TIP3   OH264287   5.834   2.430  14.885 -0.5124  0.1990  0.7679
14291TIP3    H164288   5.890   2.484  14.940 -0.2785 -1.1840  1.9622
14291TIP3    H264289   5.810   2.356  14.942 -0.2309 -1.3126 -0.9885
14292TIP3   OH264290   6.314   4.134   4.215 -0.3596  0.0321 -0.2109
14292TIP3    H164291   6.391   4.146   4.159 -0.8905 -0.6096 -1.1116
14292TIP3    H264292   6.321   4.203   4.281 -0.5171  1.8512 -1.9879
14293TIP3   OH264293   4.790   0.605   3.138  0.4824 -0.0737 -0.1658
14293TIP3    H164294   4.799   0.538   3.071 -0.5776 -0.3321 -0.0688
14293TIP3    H264295   4.744   0.561   3.210 -1.7650  1.1349 -0.7462
14294TIP3   OH264296   1.806   2.285  16.191  0.3557  0.3724 -0.0264
14294TIP3    H164297   1.757   2.334  16.125  1.1664 -0.8580 -1.6078
14294TIP3    H264298   1.811   2.344  16.266 -0.0240  2.0906 -1.2885
14295TIP3   OH264299   1.116   1.842  14.496 -0.0660  0.1209  0.6554
14295TIP3    H164300   1.153   1.758  14.468 -0.4145  0.5148 -1.1052
14295TIP3    H264301   1.072   1.876  14.418 -2.1180  0.7840  2.0206
14296TIP3   OH264302   6.121   0.197   2.323  0.2517  0.0077  0.1074
14296TIP3    H164303   6.059   0.239   2.383 -0.3507 -1.9247  0.9316
14296TIP3    H264304   6.195   0.173   2.379  0.2754 -0.6168 -0.1866
14297TIP3   OH264305   4.756   1.257  12.842  0.5906 -0.1725  0.1957
14297TIP3    H164306   4.672   1.300  12.856 -0.0751 -1.5255  0.5747
14297TIP3    H264307   4.782   1.284  12.754 -0.9180 -0.7847 -0.4774
14298TIP3   OH264308   0.146   2.000   3.703 -0.2532  0.0660 -0.9476
14298TIP3    H164309   0.107   1.941   3.638 -0.4729  0.1540 -0.8982
14298TIP3    H264310   0.149   2.085   3.659 -0.7593  0.2095 -0.7087
14299TIP3   OH264311   2.941   5.054   3.669 -0.4345 -0.5340  0.7228
14299TIP3    H164312   2.952   5.149   3.671 -0.0100 -0.5684  0.0978
14299TIP3    H264313   2.932   5.030   3.761 -1.8822  0.2549  0.8238
14300TIP3   OH264314   1.454   2.533  12.284 -0.3387 -0.2113 -0.1348
14300TIP3    H164315   1.488   2.615  12.322 -1.9441  0.2540  0.4009
14300TIP3    H264316   1.394   2.562  12.215 -2.2441 -0.8280  1.1807
14301TIP3   OH264317   1.549   0.917  11.054  0.6348 -0.3495 -0.0897
14301TIP3    H164318   1.638   0.954  11.051 -0.0277  1.3828  0.3875
14301TIP3    H264319   1.512   0.935  10.968 -0.6971  2.9236  1.0152
14302TIP3   OH264320   4.877   0.856   5.541 -0.3244 -0.0593 -0.3330
14302TIP3    H164321   4.890   0.762   5.527 -0.7672 -0.4147  1.3657
14302TIP3    H264322   4.845   0.862   5.631  2.2139  1.9246  0.5461
14303TIP3   OH264323   4.892   1.105  11.930 -0.6651 -0.2193  0.3588
14303TIP3    H164324   4.862   1.195  11.941 -2.0226 -0.5934 -0.0842
14303TIP3    H264325   4.923   1.079  12.017  0.1968  0.8102  0.3807
14304TIP3   OH264326   1.468   5.677   3.884  0.2209 -0.2694  0.1815
14304TIP3    H164327   1.431   5.761   3.909  0.2661 -0.4049  0.7277
14304TIP3    H264328   1.549   5.698   3.839 -0.8688  0.0669 -1.7345
14305TIP3   OH264329   0.415   0.082   0.104  0.4223 -0.4789  0.3898
14305TIP3    H164330   0.411   0.123   0.190  1.1275 -1.3977  0.8722
14305TIP3    H264331   0.506   0.092   0.077  0.4390 -1.0885  0.2008
14306TIP3   OH264332   4.714   4.778   3.619  0.2736 -0.0199 -0.2931
14306TIP3    H164333   4.626   4.775   3.580  0.1284 -1.5416  0.0608
14306TIP3    H264334   4.730   4.688   3.647  1.7459  0.3484  0.1270
14307TIP3   OH264335   0.532   3.557   5.815 -0.2793 -0.2490 -0.4598
14307TIP3    H164336   0.447   3.514   5.808 -0.6112 -0.0700  1.7938
14307TIP3    H264337   0.562   3.536   5.903  0.6326  2.1823 -0.1207
14308TIP3   OH264338   2.094   4.582   3.323  0.5637  0.4222  0.2091
14308TIP3    H164339   2.014   4.614   3.366  0.1143 -0.4687  0.0525
14308TIP3    H264340   2.072   4.493   3.294  1.7249  0.0430  0.4579
14309TIP3   OH264341   4.691   2.456  16.668  0.2324  0.4548 -0.0255
14309TIP3    H164342   4.748   2.502  16.606  1.0486  1.6932  1.5745
14309TIP3    H264343   4.603   2.488  16.648  0.6713  1.9817  0.3766
14310TIP3   OH264344   1.784   4.655   4.982  0.4317 -0.2609  0.6048
14310TIP3    H164345   1.696   4.685   4.960  0.8803  1.2952  0.8472
14310TIP3    H264346   1.842   4.722   4.946  1.3983 -0.0837  2.4103
14311TIP3   OH264347   0.986   5.093  13.584  0.2159 -0.8459  0.1577
14311TIP3    H164348   0.913   5.117  13.642  0.4277 -0.4480  0.2615
14311TIP3    H264349   0.989   4.997  13.589 -1.0603 -0.9577 -0.7895
14312TIP3   OH264350   5.265   4.035  15.352  0.1710  0.2706  0.0769
14312TIP3    H164351   5.300   3.948  15.374  0.1520  0.4169  0.7282
14312TIP3    H264352   5.327   4.096  15.392 -0.7784  0.5334  1.2025
14313TIP3   OH264353   2.473   3.829  14.966  0.6385  0.2253  0.0778
14313TIP3    H164354   2.449   3.915  14.999 -1.3990 -0.0135 -0.6183
14313TIP3    H264355   2.518   3.786  15.039  2.0362  1.9769  0.2978
14314TIP3   OH264356   6.231   3.202   4.882 -0.2829  0.3512  0.0969
14314TIP3    H164357   6.313   3.227   4.839 -0.0936  0.8876  0.7397
14314TIP3    H264358   6.179   3.159   4.814  0.1683  0.8174 -0.5500
14315TIP3   OH264359   6.592   5.313   5.350  0.0045 -0.0609 -0.2123
14315TIP3    H164360   6.580   5.368   5.272  0.1159  0.0957 -0.1190
14315TIP3    H264361   6.548   5.231   5.328 -0.4343  0.1785 -0.2271
14316TIP3   OH264362   1.985   3.492  12.359  0.2455  0.0049  0.1379
14316TIP3    H164363   1.997   3.544  12.280  0.9209 -1.1607 -0.5428
14316TIP3    H264364   1.891   3.496  12.376  0.0195 -0.1522 -1.0188
14317TIP3   OH264365   4.426   2.617   2.182 -0.6988 -0.2181 -0.1041
14317TIP3    H164366   4.391   2.648   2.098 -1.0408  1.3239  0.5596
14317TIP3    H264367   4.351   2.578   2.226 -0.4800 -1.1906 -0.5607
14318TIP3   OH264368   6.340   6.413   4.132 -0.1253  0.2486 -0.0547
14318TIP3    H164369   6.304   6.324   4.128 -5.5322  2.0911 -0.4399
14318TIP3    H264370   6.377   6.427   4.045 -0.4347 -1.1616 -0.4422
14319TIP3   OH264371   2.753   4.375   4.964 -0.1885  0.3200  0.0472
14319TIP3    H164372   2.783   4.434   5.033 -1.5450 -0.9270  1.7847
14319TIP3    H264373   2.662   4.400   4.948 -0.1903 -0.0554 -0.5728
14320TIP3   OH264374   2.177   3.342   2.211  0.3429 -0.3553 -0.4250
14320TIP3    H164375   2.187   3.247   2.217 -1.5782 -0.5027  1.3167
14320TIP3    H264376   2.259   3.372   2.172  0.6019 -2.7931 -1.9468
14321TIP3   OH264377   2.989   4.687  13.365 -0.7441  0.4549  0.1825
14321TIP3    H164378   2.908   4.640  13.382 -0.6007  1.0376  2.8873
14321TIP3    H264379   3.056   4.640  13.415  0.4101  0.6129 -1.1300
14322TIP3   OH264380   3.418   2.768   0.228  0.2412  0.3229 -0.0442
14322TIP3    H164381   3.346   2.756   0.166  0.2662 -2.0442  0.2927
14322TIP3    H264382   3.406   2.857   0.262 -3.4902 -0.4481  1.1725
14323TIP3   OH264383   0.630   0.081   2.564  0.1540  0.3908  0.3301
14323TIP3    H164384   0.593   0.017   2.502 -0.9541  0.2878  1.0736
14323TIP3    H264385   0.570   0.079   2.638  0.7223  1.5106  0.8278
14324TIP3   OH264386   5.570   5.876   0.202 -0.0914  0.2035 -0.1139
14324TIP3    H164387   5.570   5.880   0.107  2.8339 -0.5571 -0.2209
14324TIP3    H264388   5.555   5.967   0.230 -2.2832  0.2328 -1.2112
14325TIP3   OH264389   0.534   3.117   6.132 -0.2165 -0.5643 -0.5301
14325TIP3    H164390   0.620   3.088   6.162 -0.0019 -1.5755 -2.0020
14325TIP3    H264391   0.504   3.178   6.200  0.8293 -1.6373  0.9598
14326TIP3   OH264392   4.984   0.386  15.763  0.3603  0.1469  0.2465
14326TIP3    H164393   4.977   0.339  15.846 -0.6394 -0.0940  0.0317
14326TIP3    H264394   5.043   0.459  15.782  2.9678 -1.8045  0.2894
14327TIP3   OH264395   4.221   0.923   0.499 -0.6015 -0.1403  0.3121
14327TIP3    H164396   4.250   1.009   0.531  0.4490  0.1081 -1.1944
14327TIP3    H264397   4.299   0.868   0.507 -0.2751 -0.0559 -1.7628
14328TIP3   OH264398   4.174   6.504   0.355 -0.3968  0.2142  0.6577
14328TIP3    H164399   4.084   6.530   0.372 -0.4053  0.3896  0.3636
14328TIP3    H264400   4.170   6.411   0.333 -0.6045  0.3980 -0.1036
14329TIP3   OH264401   6.058   4.755   1.437 -0.0110 -0.3566 -0.6635
14329TIP3    H164402   6.052   4.829   1.376  1.2770  0.9493  0.7147
14329TIP3    H264403   5.967   4.733   1.457 -0.4246  0.4671 -1.5348
14330TIP3   OH264404   3.569   5.204   0.155  0.1594  0.2463  0.0092
14330TIP3    H164405   3.581   5.188   0.061  1.6144  0.6458  0.1075
14330TIP3    H264406   3.618   5.134   0.198 -1.1436 -0.4045  0.5122
14331TIP3   OH264407   4.026   0.229  16.269  0.0656  0.2127  0.0160
14331TIP3    H164408   3.952   0.279  16.303  0.5038  0.2127  1.0034
14331TIP3    H264409   3.989   0.145  16.244 -0.8223  1.2203 -2.3313
14332TIP3   OH264410   5.672   4.507  13.081  0.5615  1.0183  0.0397
14332TIP3    H164411   5.655   4.417  13.109  0.5119  1.1798  0.5386
14332TIP3    H264412   5.600   4.528  13.021  0.2461  0.9270  0.3873
14333TIP3   OH264413   1.260   1.656   3.574  0.9035 -0.5111 -0.1839
14333TIP3    H164414   1.255   1.729   3.636 -1.9185 -0.4466 -0.3630
14333TIP3    H264415   1.299   1.584   3.625 -0.7575 -0.2710  1.5452
14334TIP3   OH264416   3.531   5.694   1.438 -0.0533 -0.0186 -0.3219
14334TIP3    H164417   3.537   5.632   1.510  0.0443 -0.8225 -1.0175
14334TIP3    H264418   3.484   5.769   1.475 -0.1783 -0.5029  0.5155
14335TIP3   OH264419   4.676   0.940  15.855  0.1494  0.0877 -0.1933
14335TIP3    H164420   4.754   0.892  15.831  1.7858  1.3456  2.2159
14335TIP3    H264421   4.613   0.873  15.882  1.2171 -0.8364  0.0330
14336TIP3   OH264422   0.846   0.334   2.114 -0.7636 -0.1264  0.1217
14336TIP3    H164423   0.789   0.380   2.053  1.2420  0.4893 -1.3743
14336TIP3    H264424   0.908   0.400   2.144  1.1514 -1.4104 -0.8059
14337TIP3   OH264425   6.501   4.389   5.605 -0.0205  0.4055  0.0089
14337TIP3    H164426   6.589   4.354   5.590 -0.9317 -2.2125  0.2933
14337TIP3    H264427   6.464   4.399   5.517 -0.3891 -1.2571 -0.0616
14338TIP3   OH264428   6.579   1.460  13.526  0.1034  0.3095  0.0831
14338TIP3    H164429   6.618   1.442  13.441 -0.4421 -4.0332  0.5217
14338TIP3    H264430   6.485   1.461  13.510 -0.1256 -2.3869  0.7114
14339TIP3   OH264431   2.689   4.216  12.220 -0.0663 -0.3978  0.5464
14339TIP3    H164432   2.613   4.183  12.268  0.1255 -1.3754  0.2026
14339TIP3    H264433   2.709   4.148  12.157 -0.2297  0.8038 -0.8565
14340TIP3   OH264434   0.041   5.495  11.425 -0.5262  0.1885 -0.4244
14340TIP3    H164435   0.101   5.429  11.459  0.2533  0.6592 -0.8599
14340TIP3    H264436  -0.043   5.449  11.416 -0.0499 -0.6807 -0.5127
14341TIP3   OH264437   4.973   2.418   0.374  0.3616  0.4850 -0.4291
14341TIP3    H164438   4.984   2.494   0.430  0.1262  1.8511 -2.1503
14341TIP3    H264439   5.062   2.384   0.362  0.4625  0.4406  0.3732
14342TIP3   OH264440   3.293   0.946   4.316  0.4397  0.1666 -0.3298
14342TIP3    H164441   3.231   0.930   4.387 -0.9118 -1.2682 -1.7640
14342TIP3    H264442   3.346   0.867   4.312  0.2459  0.0654 -1.1306
14343TIP3   OH264443   1.267   6.443   1.530 -0.5857 -0.0491 -0.0891
14343TIP3    H164444   1.229   6.356   1.537 -2.1134  0.5229 -0.8129
14343TIP3    H264445   1.336   6.435   1.465 -1.5590 -0.4740 -1.1017
14344TIP3   OH264446   3.610   6.316   1.358  0.7220  0.6554  0.1950
14344TIP3    H164447   3.613   6.374   1.282  0.1737  0.0835 -0.2713
14344TIP3    H264448   3.644   6.233   1.325 -0.9749 -0.0557  0.1372
14345TIP3   OH264449   5.895   3.913  11.860  0.7080 -0.0888  0.2262
14345TIP3    H164450   5.952   3.836  11.870  1.1346 -0.1564 -2.1333
14345TIP3    H264451   5.881   3.944  11.949  0.9378 -2.5952  1.2208
14346TIP3   OH264452   3.238   3.556  14.006  0.3154 -0.2149 -0.1494
14346TIP3    H164453   3.205   3.495  13.940  0.6627 -0.3800 -0.1707
14346TIP3    H264454   3.189   3.533  14.085  1.2291 -1.2621  0.1273
14347TIP3   OH264455   3.609   6.357  11.199 -0.3257 -0.3156  0.5503
14347TIP3    H164456   3.538   6.378  11.259  0.2124 -0.1761  1.1423
14347TIP3    H264457   3.672   6.309  11.252 -0.5860 -1.6570 -0.2885
14348TIP3   OH264458   4.655   2.139  15.130  0.1456 -0.0390 -1.1028
14348TIP3    H164459   4.560   2.129  15.125 -0.0545 -0.0790  1.4596
14348TIP3    H264460   4.677   2.118  15.220  2.7124 -0.7184 -1.7979
14349TIP3   OH264461   1.277   1.028   4.568  0.8905  0.2621 -0.1229
14349TIP3    H164462   1.277   1.112   4.614 -1.7007 -0.7232  1.9024
14349TIP3    H264463   1.272   1.052   4.475  1.1350  2.3292  0.3534
14350TIP3   OH264464   5.470   1.195  12.034 -0.2140  0.2333 -0.6017
14350TIP3    H164465   5.405   1.265  12.034 -0.3514  0.5469  5.0112
14350TIP3    H264466   5.419   1.116  12.014 -1.1362  1.0777 -1.7257
14351TIP3   OH264467   4.299   4.910  15.864  0.0672 -0.0593  0.5128
14351TIP3    H164468   4.266   4.921  15.953  1.0538  0.3892  0.8473
14351TIP3    H264469   4.363   4.839  15.871 -0.0164 -0.1785  0.1082
14352TIP3   OH264470   4.021   3.916  12.276 -0.3008  0.1956 -0.0999
14352TIP3    H164471   4.051   3.888  12.363 -1.0657 -1.5036 -0.3421
14352TIP3    H264472   3.926   3.907  12.279 -0.2544 -1.0958 -1.4882
14353TIP3   OH264473   2.229   5.123   6.531  0.1232 -0.2838  0.2966
14353TIP3    H164474   2.167   5.140   6.603 -0.8762 -0.1887 -0.5675
14353TIP3    H264475   2.176   5.127   6.452  1.0866 -1.0579 -0.4162
14354TIP3   OH264476   0.416   0.992   2.904 -0.0441 -0.7190 -0.0821
14354TIP3    H164477   0.481   0.937   2.948  0.7873 -0.0223 -0.4275
14354TIP3    H264478   0.415   0.962   2.814  0.7268  0.1017 -0.3750
14355TIP3   OH264479   4.463   2.046  13.983  0.2532 -0.1301  0.4830
14355TIP3    H164480   4.500   2.125  13.944  0.3210  0.4930  1.7592
14355TIP3    H264481   4.375   2.039  13.945  0.6323 -0.0227 -0.4156
14356TIP3   OH264482   1.098   6.789   5.404 -0.1860 -0.5490  0.3520
14356TIP3    H164483   1.006   6.779   5.383 -0.4106 -0.2948  1.1957
14356TIP3    H264484   1.102   6.792   5.500  0.9109 -2.6756  0.4322
14357TIP3   OH264485   3.568   5.537   5.109  0.0621  0.3226 -0.1337
14357TIP3    H164486   3.629   5.595   5.063  0.9303 -0.4055  0.0646
14357TIP3    H264487   3.538   5.476   5.042 -1.4097  1.4235 -0.5042
14358TIP3   OH264488   6.046   2.869  14.717 -0.4074 -0.1701 -0.3175
14358TIP3    H164489   6.016   2.784  14.685  0.0975 -0.7969  0.7948
14358TIP3    H264490   6.140   2.870  14.698 -0.6035  0.6232 -1.3213
14359TIP3   OH264491   1.107   4.579   3.061  0.0570 -0.4504 -0.6709
14359TIP3    H164492   1.092   4.487   3.039 -1.0352 -0.5095  0.2240
14359TIP3    H264493   1.079   4.587   3.153  0.7812  0.6217 -0.5241
14360TIP3   OH264494   4.248   6.252  15.828  0.0077 -0.3558 -0.1616
14360TIP3    H164495   4.254   6.167  15.871  3.8524 -0.1410  0.0365
14360TIP3    H264496   4.218   6.312  15.896 -1.6150 -1.2967 -0.0063
14361TIP3   OH264497   6.046   1.073   0.105 -0.2074 -0.0202 -0.2241
14361TIP3    H164498   5.983   1.027   0.049  0.7345  0.9211 -2.1581
14361TIP3    H264499   6.112   1.007   0.126 -0.0475 -0.1454 -1.0855
14362TIP3   OH264500   3.061   3.601  11.879  0.4626 -0.0449 -0.0858
14362TIP3    H164501   2.972   3.586  11.846 -0.2980  1.0830  1.3414
14362TIP3    H264502   3.066   3.548  11.958  1.8778 -1.8404 -1.2855
14363TIP3   OH264503   4.406   2.134  15.053 -0.3269  0.2218 -0.3501
14363TIP3    H164504   4.321   2.103  15.086 -0.1204  1.7995  1.8774
14363TIP3    H264505   4.384   2.209  14.998 -0.4654 -0.2940 -1.0000
14364TIP3   OH264506   4.210   3.837   4.500  0.0737 -0.5669  0.1422
14364TIP3    H164507   4.146   3.840   4.572  0.8499 -0.5310  0.8489
14364TIP3    H264508   4.231   3.744   4.491  1.2785 -0.4195  1.1645
14365TIP3   OH264509   6.576   1.549   2.069 -0.0702 -0.4326  0.5094
14365TIP3    H164510   6.499   1.492   2.074 -0.2587 -0.2218  0.0892
14365TIP3    H264511   6.650   1.489   2.065 -0.3228 -0.6776 -0.9045
14366TIP3   OH264512   6.389   2.504  16.413  0.8351  0.2208 -0.7037
14366TIP3    H164513   6.392   2.593  16.378  1.8910  0.8424  0.8436
14366TIP3    H264514   6.396   2.516  16.508 -1.6128 -1.3791 -0.2202
14367TIP3   OH264515   2.503   2.235  10.493 -0.6829  0.2327 -0.3360
14367TIP3    H164516   2.508   2.144  10.462 -1.2444  0.7005 -1.8667
14367TIP3    H264517   2.552   2.285  10.428 -0.0836  1.0141  0.6777
14368TIP3   OH264518   3.535   6.262  16.280 -0.2095  0.1536 -0.3751
14368TIP3    H164519   3.516   6.330  16.345  0.5866  1.9224 -1.9062
14368TIP3    H264520   3.449   6.227  16.257 -0.4412 -1.5526  2.5736
14369TIP3   OH264521   2.031   5.434   4.561  0.0773  0.1195  0.0201
14369TIP3    H164522   1.963   5.366   4.564  0.5216 -0.4383 -1.5586
14369TIP3    H264523   2.112   5.387   4.542 -0.0240  1.1975 -4.2257
14370TIP3   OH264524   2.210   2.716   5.144  0.0358 -0.3057  0.1895
14370TIP3    H164525   2.196   2.810   5.139 -0.0554 -0.3357 -0.1364
14370TIP3    H264526   2.223   2.689   5.054 -1.9863 -0.9237  0.0270
14371TIP3   OH264527   5.379   4.956   0.110  0.2853  0.8086  0.0831
14371TIP3    H164528   5.321   4.914   0.047  0.3660  1.4792 -0.4552
14371TIP3    H264529   5.424   5.024   0.059  3.1224 -1.0208 -0.0756
14372TIP3   OH264530   1.016   2.674   0.419 -0.3115 -0.3884 -0.0052
14372TIP3    H164531   1.072   2.616   0.472 -1.6235  0.5792  2.6454
14372TIP3    H264532   1.058   2.760   0.426 -0.7846 -0.1500 -0.0514
14373TIP3   OH264533   5.798   1.449   5.519  0.2757  0.0640 -0.1666
14373TIP3    H164534   5.815   1.367   5.472  1.5678  1.3003 -2.0002
14373TIP3    H264535   5.861   1.450   5.590  0.0543 -0.6558  0.0457
14374TIP3   OH264536   3.506   0.339  13.711 -0.1624 -0.1366 -0.0172
14374TIP3    H164537   3.446   0.407  13.680  0.5896  0.3880 -0.3254
14374TIP3    H264538   3.534   0.369  13.797 -0.1309 -0.2509  0.0133
14375TIP3   OH264539   3.192   4.464  13.405 -0.1744 -0.1169 -0.3366
14375TIP3    H164540   3.141   4.476  13.484  1.0105 -1.2680  0.6418
14375TIP3    H264541   3.166   4.378  13.372 -0.1976  0.0867 -0.8751
14376TIP3   OH264542   3.747   6.800  14.531 -0.6040  0.1649  0.3013
14376TIP3    H164543   3.703   6.741  14.470 -2.4368  0.5441  1.1796
14376TIP3    H264544   3.698   6.790  14.613  2.0824 -0.7094  1.9062
14377TIP3   OH264545   3.711   6.376  13.083 -0.3012 -0.1548  0.4104
14377TIP3    H164546   3.741   6.449  13.029  0.6587 -0.5039  0.4623
14377TIP3    H264547   3.735   6.400  13.173 -1.4300  0.1883  0.6391
14378TIP3   OH264548   3.771   4.153   1.503  0.0475 -0.3310 -0.2257
14378TIP3    H164549   3.777   4.154   1.407  0.9715 -0.9239 -0.1913
14378TIP3    H264550   3.733   4.067   1.523  0.4181 -0.4529 -0.0397
14379TIP3   OH264551   2.016   6.028   0.643  0.0847 -0.0074 -0.1564
14379TIP3    H164552   2.091   6.017   0.702 -0.4911 -1.4086  0.3449
14379TIP3    H264553   1.987   6.118   0.659  2.0220  0.7958 -0.8418
14380TIP3   OH264554   3.219   4.953  17.050  0.0457 -0.2593 -0.7954
14380TIP3    H164555   3.226   5.029  17.109 -1.1479  1.0310 -2.2359
14380TIP3    H264556   3.285   4.892  17.083 -0.6475  0.3142  1.9635
14381TIP3   OH264557   1.786   0.173   4.064  0.0906  0.0394 -0.0800
14381TIP3    H164558   1.857   0.140   4.120  0.5598 -1.2572 -1.3974
14381TIP3    H264559   1.825   0.180   3.977 -1.4535 -0.9498 -0.8835
14382TIP3   OH264560   1.741   3.452  10.989 -0.0912 -0.9055 -0.1246
14382TIP3    H164561   1.804   3.402  10.937 -0.9895  0.7482 -2.9826
14382TIP3    H264562   1.686   3.385  11.030  2.2075 -2.3212  0.8823
14383TIP3   OH264563   0.046   6.153  14.429 -0.1168 -0.3445  0.1587
14383TIP3    H164564   0.075   6.095  14.358  0.3142 -0.0752  0.1114
14383TIP3    H264565   0.092   6.235  14.413  0.7148 -0.5618  1.2606
14384TIP3   OH264566   0.749   5.141   6.307 -0.1755  0.4702  0.2266
14384TIP3    H164567   0.800   5.151   6.227  1.5174  0.5409  1.2606
14384TIP3    H264568   0.751   5.228   6.348  1.5207 -0.2086  1.7455
14385TIP3   OH264569   0.952   5.031   2.915 -0.2083  1.0334  0.0119
14385TIP3    H164570   0.907   5.008   2.834 -0.0212  2.1460 -0.4251
14385TIP3    H264571   1.017   4.962   2.927 -0.7942  0.4150 -0.3353
14386TIP3   OH264572   6.449   0.402   3.450  0.1544  0.5656  0.1633
14386TIP3    H164573   6.496   0.486   3.451  1.4110 -0.1040  1.4623
14386TIP3    H264574   6.411   0.395   3.538 -1.9508  0.8075 -0.6649
14387TIP3   OH264575   1.224   1.852   4.269  0.1588 -0.0066 -0.3026
14387TIP3    H164576   1.203   1.900   4.350  0.5193 -2.3848  1.3118
14387TIP3    H264577   1.307   1.808   4.289 -0.9946 -2.6646 -0.9995
14388TIP3   OH264578   4.231   6.743  10.565  0.2707 -0.5363  0.1075
14388TIP3    H164579   4.155   6.773  10.514  1.2976 -0.0074 -1.1712
14388TIP3    H264580   4.288   6.702  10.500  0.5703 -1.9829  1.2464
14389TIP3   OH264581   3.801   2.416   0.251  0.5589  0.0032 -0.2502
14389TIP3    H164582   3.778   2.506   0.274  0.3438 -0.2345  0.4814
14389TIP3    H264583   3.728   2.385   0.198  0.9832  0.5032 -1.1420
14390TIP3   OH264584   0.879   3.001   4.747  0.3144  0.6299 -0.2099
14390TIP3    H164585   0.792   3.024   4.715 -0.9774 -1.9585  1.1073
14390TIP3    H264586   0.880   3.031   4.837  0.9435  0.9954 -0.3361
14391TIP3   OH264587   3.132   4.270   6.327 -0.2878  0.7937 -0.1813
14391TIP3    H164588   3.155   4.341   6.387 -0.1532  0.2206  0.4494
14391TIP3    H264589   3.164   4.191   6.369  0.8745  0.4952 -1.5722
14392TIP3   OH264590   2.753   0.992   5.482  0.0546  0.0919  0.2662
14392TIP3    H164591   2.783   1.036   5.561 -1.7081  0.5115  0.7558
14392TIP3    H264592   2.827   0.938   5.454  0.6851 -0.1411  2.2550
14393TIP3   OH264593   4.939   3.463   0.724  0.3270 -0.4750  0.5572
14393TIP3    H164594   4.859   3.477   0.675 -0.4106  0.5861  1.9903
14393TIP3    H264595   4.973   3.379   0.692 -1.8428 -1.4119  0.5716
14394TIP3   OH264596   5.024   0.828  13.974  0.2295  0.3055  0.1455
14394TIP3    H164597   4.961   0.771  13.929  0.3428  0.7946 -0.6443
14394TIP3    H264598   5.107   0.780  13.970  0.1981  0.2646  0.0106
14395TIP3   OH264599   0.910   5.302  12.242  0.0798 -0.6996  0.0311
14395TIP3    H164600   0.991   5.271  12.284 -0.5492 -2.1239  0.2626
14395TIP3    H264601   0.925   5.395  12.227  1.3016 -0.6757  1.1652
14396TIP3   OH264602   0.560   0.110  12.898  0.6331 -0.0105 -0.4586
14396TIP3    H164603   0.536   0.198  12.930  1.8030  0.0897  0.1983
14396TIP3    H264604   0.549   0.115  12.803  0.5212  0.7953 -0.4094
14397TIP3   OH264605   3.274   3.619   5.728 -0.9519 -0.0468  0.3252
14397TIP3    H164606   3.271   3.584   5.639  1.3670 -0.8279  0.4966
14397TIP3    H264607   3.367   3.626   5.749 -1.3641  2.6275  1.7652
14398TIP3   OH264608   1.949   0.293  14.424 -0.5410  0.9649  0.6576
14398TIP3    H164609   1.898   0.336  14.356  1.5034  1.2872 -0.7708
14398TIP3    H264610   2.020   0.249  14.377  0.4271  0.4167  2.5101
14399TIP3   OH264611   1.198   1.526  13.121  0.3071 -0.1955  0.3466
14399TIP3    H164612   1.122   1.496  13.170  0.5477 -1.2033  0.1187
14399TIP3    H264613   1.175   1.614  13.093 -1.0296 -0.7171 -0.2556
14400TIP3   OH264614   5.473   5.550  13.158 -0.3784  0.5583  0.2866
14400TIP3    H164615   5.538   5.488  13.125 -1.3818  0.4869 -1.7516
14400TIP3    H264616   5.524   5.624  13.191  0.8218 -0.9982  2.1538
14401TIP3   OH264617   3.186   3.989   4.419  0.4262 -0.1140 -0.5557
14401TIP3    H164618   3.263   4.043   4.435  1.4698 -1.8246  0.5706
14401TIP3    H264619   3.122   4.018   4.485  0.6535  0.2963 -0.5117
14402TIP3   OH264620   6.233   2.677  15.243  0.3322 -0.3877 -0.1725
14402TIP3    H164621   6.304   2.679  15.178  0.9221 -0.9727  0.4368
14402TIP3    H264622   6.233   2.766  15.280 -0.3832  0.1229 -1.3422
14403TIP3   OH264623   3.011   5.219   4.457 -0.2667  0.3084  0.0243
14403TIP3    H164624   3.064   5.299   4.451  0.5627 -0.0992  1.5392
14403TIP3    H264625   3.040   5.176   4.538 -0.6128 -1.6042 -0.8133
14404TIP3   OH264626   5.868   5.712  13.650  0.2847 -0.5106 -0.2631
14404TIP3    H164627   5.817   5.793  13.650 -1.6366 -1.6308  1.3415
14404TIP3    H264628   5.820   5.653  13.591  1.3195 -0.7119 -0.9354
14405TIP3   OH264629   6.003   2.173   2.011  0.3273  0.3002  0.2712
14405TIP3    H164630   6.040   2.170   1.923  1.8884  0.0203  0.9134
14405TIP3    H264631   5.988   2.266   2.028 -2.4375  0.2299 -1.2272
14406TIP3   OH264632   0.664   2.874  12.266 -0.3742  0.3572 -0.4835
14406TIP3    H164633   0.751   2.842  12.239 -0.4305  0.3673 -0.6841
14406TIP3    H264634   0.624   2.800  12.312 -0.1726  0.4280 -0.1937
14407TIP3   OH264635   6.572   1.695   1.595  0.6946 -0.4250 -0.2572
14407TIP3    H164636   6.503   1.635   1.625  0.5208 -1.6521 -2.8616
14407TIP3    H264637   6.653   1.657   1.629  0.3804 -0.8624  0.0191
14408TIP3   OH264638   0.478   5.592  12.893  0.0621  0.0515 -0.1605
14408TIP3    H164639   0.541   5.552  12.834  0.5746 -1.2822  1.2191
14408TIP3    H264640   0.527   5.663  12.935  1.0530 -1.5897  1.6277
14409TIP3   OH264641   5.281   3.416   5.968  0.5287  0.2600  0.7170
14409TIP3    H164642   5.319   3.493   6.010  0.8628  0.6043 -0.1752
14409TIP3    H264643   5.191   3.442   5.946  0.9475  0.7914 -0.4956
14410TIP3   OH264644   2.987   5.902  13.653 -0.4138 -0.1648  0.6298
14410TIP3    H164645   2.934   5.979  13.671 -1.6498 -0.6641 -0.6285
14410TIP3    H264646   2.990   5.855  13.736 -1.4347  0.2033  0.8967
14411TIP3   OH264647   2.972   2.871  13.779 -0.7641  0.1344 -0.1443
14411TIP3    H164648   2.973   2.809  13.852  1.0124 -0.3233 -0.5174
14411TIP3    H264649   2.921   2.945  13.811 -2.3217 -1.1829  0.5684
14412TIP3   OH264650   2.795   0.820   3.905  0.0220 -0.0585 -0.4863
14412TIP3    H164651   2.862   0.763   3.944 -1.2676  0.2717  2.5042
14412TIP3    H264652   2.821   0.908   3.931 -0.7538  0.2136 -0.6184
14413TIP3   OH264653   2.733   4.078  16.659 -0.2815  0.0374  0.1020
14413TIP3    H164654   2.739   4.102  16.567 -1.2889 -0.2785 -0.0603
14413TIP3    H264655   2.668   4.139  16.695  0.1957  0.2384  0.6383
14414TIP3   OH264656   3.262   4.410   2.037  0.2600 -0.2582 -1.2192
14414TIP3    H164657   3.171   4.403   2.063  0.2564 -1.0960 -1.4112
14414TIP3    H264658   3.298   4.322   2.050  0.8691 -0.1026 -1.7502
14415TIP3   OH264659   5.121   1.723  15.248 -0.2173 -0.7928  0.1949
14415TIP3    H164660   5.193   1.675  15.290 -0.1727 -0.8971  0.0015
14415TIP3    H264661   5.048   1.715  15.309  0.1146 -0.1500  0.6923
14416TIP3   OH264662   2.496   6.731   3.882 -0.2669  0.6465 -0.4799
14416TIP3    H164663   2.449   6.697   3.806 -1.1524  1.1955 -0.1960
14416TIP3    H264664   2.589   6.726   3.857 -0.3601 -1.5000 -0.6364
14417TIP3   OH264665   2.890   0.720  14.641  0.0615  0.2131 -0.3893
14417TIP3    H164666   2.931   0.653  14.587 -0.8683 -1.7858  1.2412
14417TIP3    H264667   2.813   0.747  14.591  0.0925 -0.4128 -0.7856
14418TIP3   OH264668   2.988   1.278   0.820 -0.0284  0.3742  0.5449
14418TIP3    H164669   2.920   1.339   0.791  0.0476  1.3341  2.2619
14418TIP3    H264670   2.944   1.218   0.879 -0.3087 -1.9373 -1.8379
14419TIP3   OH264671   6.284   1.156  15.003  0.7221  0.6640 -0.0821
14419TIP3    H164672   6.200   1.199  14.988  0.2956 -0.4513 -0.9512
14419TIP3    H264673   6.334   1.172  14.923  1.7052  2.0723  0.7579
14420TIP3   OH264674   2.044   1.299  16.597  0.0600 -0.4283 -0.2901
14420TIP3    H164675   2.026   1.255  16.514  0.6662 -0.7151 -0.2728
14420TIP3    H264676   1.957   1.311  16.637 -0.1556 -1.1315 -0.5356
14421TIP3   OH264677   1.287   3.524   4.359 -0.1792  0.2817  0.2161
14421TIP3    H164678   1.356   3.575   4.316 -0.0186 -0.7528 -0.8140
14421TIP3    H264679   1.223   3.589   4.388  0.5232  1.1394 -0.1234
14422TIP3   OH264680   6.244   2.901   5.599 -0.0261 -0.3649 -0.0150
14422TIP3    H164681   6.197   2.842   5.658  1.0747 -1.3980 -0.1323
14422TIP3    H264682   6.198   2.893   5.515 -0.9120  0.2591  0.3939
14423TIP3   OH264683   0.302   0.777  14.987  0.2829  0.1557  0.0175
14423TIP3    H164684   0.239   0.735  14.928  2.4210 -1.7798 -1.0277
14423TIP3    H264685   0.250   0.797  15.065 -1.5560 -1.7406 -0.5995
14424TIP3   OH264686   1.953   5.388   2.943  0.5184  0.2210  0.0422
14424TIP3    H164687   1.924   5.362   2.856  0.2405  2.1967 -0.5038
14424TIP3    H264688   1.933   5.313   2.999  0.4456 -0.9733 -1.5236
14425TIP3   OH264689   6.697   6.524   3.469 -0.0249 -0.2253  0.3574
14425TIP3    H164690   6.718   6.546   3.559 -0.1480  1.7728 -0.0425
14425TIP3    H264691   6.603   6.540   3.461  0.0241 -0.1720 -0.1790
14426TIP3   OH264692   3.662   3.163  11.622  0.0537 -0.4053  0.4546
14426TIP3    H164693   3.750   3.184  11.656 -0.5581  1.1048  1.2113
14426TIP3    H264694   3.627   3.248  11.595 -0.2756 -1.2801 -2.1735
14427TIP3   OH264695   1.364   5.709   1.877 -0.1263  0.2829  0.8158
14427TIP3    H164696   1.284   5.663   1.849 -0.1484  0.2098  1.0003
14427TIP3    H264697   1.331   5.786   1.923 -0.0894  0.4169  0.6188
14428TIP3   OH264698   4.627   6.532  15.825  0.0138 -0.2762 -0.1064
14428TIP3    H164699   4.709   6.536  15.777  1.3307  0.9740  2.1132
14428TIP3    H264700   4.584   6.615  15.807  0.5213  0.2061  0.8267
14429TIP3   OH264701   2.486   0.969   4.515 -0.2633 -0.0229  0.3875
14429TIP3    H164702   2.475   1.064   4.520  3.2280  0.7535 -2.8502
14429TIP3    H264703   2.437   0.943   4.436  1.7572 -0.2172 -0.8614
14430TIP3   OH264704   6.110   5.583  11.781  0.6682 -0.1301  0.0593
14430TIP3    H164705   6.148   5.656  11.830  0.0540 -0.9047  1.7497
14430TIP3    H264706   6.145   5.505  11.823 -2.0493 -0.8647  1.1878
14431TIP3   OH264707   1.603   3.992   6.563 -0.1466  0.1549  0.2914
14431TIP3    H164708   1.654   3.923   6.606  1.4988  1.7870  1.1253
14431TIP3    H264709   1.597   4.061   6.629 -1.7686  0.8142 -0.4996
14432TIP3   OH264710   4.443   0.900   3.882 -0.4170  0.2297 -0.2492
14432TIP3    H164711   4.536   0.882   3.869 -0.2572  0.0843  0.9575
14432TIP3    H264712   4.409   0.914   3.794  0.5048 -0.8752 -0.8172
14433TIP3   OH264713   1.748   2.854   5.854  0.5668 -0.0796  0.4185
14433TIP3    H164714   1.806   2.928   5.836  1.0761 -0.2020  1.4575
14433TIP3    H264715   1.798   2.777   5.827  0.5603 -0.1319  0.5548
14434TIP3   OH264716   1.884   3.062   0.162  0.5035  0.1876 -0.4541
14434TIP3    H164717   1.845   3.118   0.095  2.2759  0.5478 -1.2334
14434TIP3    H264718   1.883   2.974   0.124 -0.3133  0.0440 -0.1151
14435TIP3   OH264719   1.738   0.407  11.087 -0.1766  0.1031  0.2694
14435TIP3    H164720   1.812   0.467  11.081  0.0162 -0.1448  0.1989
14435TIP3    H264721   1.772   0.322  11.060 -0.1922 -0.2675  1.3680
14436TIP3   OH264722   5.866   4.390  13.675 -0.0045  0.1292 -0.3194
14436TIP3    H164723   5.793   4.329  13.684  2.0010 -2.3416  0.3764
14436TIP3    H264724   5.833   4.473  13.709 -2.0156 -1.2897  1.4387
14437TIP3   OH264725   4.250   0.642   3.619  0.0171  0.8407 -0.2043
14437TIP3    H164726   4.261   0.557   3.660 -0.8996  0.2588 -1.1254
14437TIP3    H264727   4.224   0.622   3.529  2.5738  2.0505 -1.3090
14438TIP3   OH264728   3.181   3.333  11.232 -0.1393 -0.2490  0.4649
14438TIP3    H164729   3.261   3.288  11.206  0.8995  0.4517  2.2623
14438TIP3    H264730   3.138   3.273  11.293  0.5570  0.5723  1.8029
14439TIP3   OH264731   0.792   0.781  15.421  0.1827  0.2173  0.6130
14439TIP3    H164732   0.812   0.695  15.385  2.2121  0.7701  0.2855
14439TIP3    H264733   0.728   0.818  15.360  1.5949  0.1114 -1.0254
14440TIP3   OH264734   2.165   5.693   5.109 -0.2673 -0.7352  1.0441
14440TIP3    H164735   2.074   5.723   5.109  0.1491  0.7168 -0.8886
14440TIP3    H264736   2.160   5.603   5.076 -1.0278 -0.7379  1.1398
14441TIP3   OH264737   5.387   5.081   3.425  0.4849  0.1884 -0.0777
14441TIP3    H164738   5.466   5.106   3.473  0.6466  0.4034 -0.4490
14441TIP3    H264739   5.346   5.014   3.479  1.3261 -0.4927 -0.2553
14442TIP3   OH264740   4.151   1.050   0.899 -0.1688  0.7236 -0.1184
14442TIP3    H164741   4.222   1.055   0.835 -0.3254 -0.1424 -0.3711
14442TIP3    H264742   4.101   0.973   0.873  0.4916 -0.4163  1.7927
14443TIP3   OH264743   3.604   3.019  15.431  0.0807 -0.0444 -0.0297
14443TIP3    H164744   3.650   2.995  15.350 -1.9520 -2.3831 -0.6201
14443TIP3    H264745   3.665   2.997  15.501  0.7536 -0.8945 -0.8495
14444TIP3   OH264746   4.760   3.651  17.125  0.2480 -0.3438  0.3018
14444TIP3    H164747   4.775   3.702  17.046 -0.0722 -0.1877  0.3430
14444TIP3    H264748   4.700   3.581  17.098 -1.3978  0.8155  0.8233
14445TIP3   OH264749   4.320   3.016   4.687  0.3404 -0.1755 -0.4126
14445TIP3    H164750   4.339   2.924   4.667  0.1925 -0.2158 -0.3675
14445TIP3    H264751   4.224   3.021   4.690  0.3532 -0.0821 -0.1171
14446TIP3   OH264752   6.646   2.153  14.531 -0.2597  0.1367  0.7375
14446TIP3    H164753   6.671   2.239  14.564 -1.4895  1.4494 -1.4700
14446TIP3    H264754   6.564   2.168  14.484  0.9686 -1.5734 -2.2632
14447TIP3   OH264755   3.739   4.608   6.307  0.2721  0.3277  0.4871
14447TIP3    H164756   3.820   4.643   6.270  0.5703 -2.0991 -1.3950
14447TIP3    H264757   3.757   4.599   6.400  1.8839  0.5695  0.2207
14448TIP3   OH264758   3.161   2.652  15.842  0.1887 -0.9309  0.9611
14448TIP3    H164759   3.119   2.701  15.913  1.3213  0.7770  0.5119
14448TIP3    H264760   3.250   2.637  15.873  0.6076 -0.4118  0.0413
14449TIP3   OH264761   2.242   4.059   5.736  0.0133  0.2552  0.1194
14449TIP3    H164762   2.147   4.072   5.734 -0.1566 -0.8976 -1.2144
14449TIP3    H264763   2.279   4.146   5.723 -0.8940  0.5774 -0.3803
14450TIP3   OH264764   2.590   2.565   1.879  0.1149  0.0297  0.6214
14450TIP3    H164765   2.499   2.542   1.896  0.3823  0.5914  3.0683
14450TIP3    H264766   2.640   2.490   1.911  0.5828  0.3967  0.7577
14451TIP3   OH264767   6.326   3.038  13.655  0.2409  0.1861  0.8150
14451TIP3    H164768   6.274   3.044  13.575  1.2610 -0.9394  0.0322
14451TIP3    H264769   6.348   2.945  13.662  0.8040  0.3885  2.0067
14452TIP3   OH264770   4.155   6.756  11.484 -0.6212 -0.2879 -0.5829
14452TIP3    H164771   4.209   6.690  11.442  1.2746 -0.5596  1.9867
14452TIP3    H264772   4.191   6.839  11.453  1.3478 -0.4700  1.0132
14453TIP3   OH264773   5.698   5.354   0.213  0.0925  0.5119  0.1666
14453TIP3    H164774   5.771   5.412   0.233  3.0081 -2.4403 -0.9761
14453TIP3    H264775   5.685   5.302   0.293  0.0961  0.2085 -0.0257
14454TIP3   OH264776   4.134   2.045  12.490 -0.2497  0.2085 -0.3713
14454TIP3    H164777   4.202   2.016  12.429 -0.4602 -0.2294 -0.4025
14454TIP3    H264778   4.051   2.022  12.447 -0.4191 -2.4521  1.1201
14455TIP3   OH264779   3.366   0.645  15.498  0.2057  0.6877 -0.4787
14455TIP3    H164780   3.446   0.605  15.464 -0.9503 -0.3757 -2.1632
14455TIP3    H264781   3.295   0.600  15.450 -1.5964 -0.4790  2.9592
14456TIP3   OH264782   1.987   1.216  16.229 -0.8428 -0.9352 -0.0746
14456TIP3    H164783   1.948   1.148  16.173  1.5982 -2.7968  0.2790
14456TIP3    H264784   2.062   1.249  16.178 -0.2027 -0.7082  0.9694
14457TIP3   OH264785   5.164   2.368   2.332 -0.5714  0.2096 -0.3241
14457TIP3    H164786   5.207   2.357   2.247  0.8266  0.5903  0.3068
14457TIP3    H264787   5.105   2.442   2.321 -0.0879  0.5166 -0.8480
14458TIP3   OH264788   1.329   4.847  14.850 -0.4096 -0.4237 -0.1233
14458TIP3    H164789   1.292   4.867  14.765 -2.5184  1.2525  1.0975
14458TIP3    H264790   1.258   4.806  14.899 -0.2485  1.4013  1.7725
14459TIP3   OH264791   0.281   0.759   1.871 -0.2195  0.2669 -0.5588
14459TIP3    H164792   0.271   0.665   1.856  0.4800  0.2860 -1.2021
14459TIP3    H264793   0.192   0.793   1.873 -0.4728 -0.3944 -0.4180
14460TIP3   OH264794   3.785   2.840  13.377 -0.0547 -0.4806 -0.4637
14460TIP3    H164795   3.730   2.889  13.438 -1.0104 -1.2649 -0.6538
14460TIP3    H264796   3.755   2.749  13.386  1.0492 -0.8932 -0.7690
14461TIP3   OH264797   0.740   0.409  16.637 -0.1363  0.4028 -0.0500
14461TIP3    H164798   0.712   0.357  16.562  0.5659 -0.7801  0.4664
14461TIP3    H264799   0.696   0.493  16.627 -0.4756  0.0716 -1.4835
14462TIP3   OH264800   3.919   3.391  15.460 -0.1066 -0.2957 -0.2752
14462TIP3    H164801   3.983   3.321  15.450 -0.3645 -0.5239 -0.3347
14462TIP3    H264802   3.834   3.348  15.454 -0.2702  0.0376 -0.4368
14463TIP3   OH264803   5.329   2.759   1.985 -0.2866  0.2135 -0.4016
14463TIP3    H164804   5.362   2.756   2.075  0.1775  0.0219 -0.5715
14463TIP3    H264805   5.356   2.675   1.947  0.5735  0.7697 -1.0687
14464TIP3   OH264806   1.694   4.057  14.718 -0.2336 -0.0346 -0.0226
14464TIP3    H164807   1.665   3.966  14.706  0.6136 -0.3852  0.5106
14464TIP3    H264808   1.657   4.104  14.643 -2.4419 -0.3792  0.7889
14465TIP3   OH264809   6.135   0.327   1.101 -0.2636  0.0779  0.0590
14465TIP3    H164810   6.079   0.405   1.108 -0.5263  0.4123 -3.8215
14465TIP3    H264811   6.075   0.254   1.118 -0.8747  0.6024  0.2137
14466TIP3   OH264812   4.163   1.911  16.933 -0.4879 -0.3553  0.3574
14466TIP3    H164813   4.238   1.905  16.874 -1.0360 -1.3665 -0.2649
14466TIP3    H264814   4.196   1.958  17.009  0.4593  0.2383 -0.3949
14467TIP3   OH264815   3.651   1.298  16.867 -0.5678 -0.1575 -0.1454
14467TIP3    H164816   3.643   1.313  16.961  0.8268 -2.1950  0.3530
14467TIP3    H264817   3.739   1.328  16.845 -0.4873 -0.7023 -0.5835
14468TIP3   OH264818   2.502   4.611   0.759 -0.5491  0.2736 -0.5973
14468TIP3    H164819   2.578   4.558   0.780 -0.4649  0.8770  0.7042
14468TIP3    H264820   2.427   4.552   0.771 -0.3480 -0.1271 -1.2342
14469TIP3   OH264821   2.245   2.271   2.781 -0.4453 -0.0026  0.4675
14469TIP3    H164822   2.332   2.240   2.809  0.4933  0.8021 -1.3748
14469TIP3    H264823   2.227   2.345   2.838  1.5240  1.7564 -1.0284
14470TIP3   OH264824   0.528   1.610   1.452 -0.4999 -0.1296 -0.4920
14470TIP3    H164825   0.469   1.539   1.479  0.3813 -0.2197  1.3654
14470TIP3    H264826   0.603   1.564   1.413 -0.5352 -0.1516 -0.5343
14471TIP3   OH264827   4.209   6.114  15.104 -0.2877 -0.1034  0.6442
14471TIP3    H164828   4.251   6.187  15.150  1.4874 -0.8607  0.3233
14471TIP3    H264829   4.164   6.155  15.030  1.8170  0.5950 -0.3227
14472TIP3   OH264830   4.523   2.525   4.218  0.0422  0.0184  0.2886
14472TIP3    H164831   4.594   2.557   4.273 -2.3908  2.5313  2.2663
14472TIP3    H264832   4.564   2.506   4.134  3.0919  0.7849  1.4733
14473TIP3   OH264833   3.748   6.684  12.136  0.1763  0.5947  0.1157
14473TIP3    H164834   3.832   6.637  12.135  0.8146  1.7009 -0.2822
14473TIP3    H264835   3.716   6.677  12.046 -0.1137  0.2602  0.2431
14474TIP3   OH264836   5.396   2.636   3.105  0.6765  0.6242 -0.2843
14474TIP3    H164837   5.475   2.605   3.148  0.5052 -0.2214 -0.5666
14474TIP3    H264838   5.348   2.557   3.081 -0.2979  1.1198 -0.0461
14475TIP3   OH264839   2.092   0.091   5.370 -0.3114 -0.0644 -0.0278
14475TIP3    H164840   2.088   0.009   5.419  2.0409 -0.2615 -0.0544
14475TIP3    H264841   2.162   0.141   5.412  0.7336  0.4074 -2.1611
14476TIP3   OH264842   2.203   4.436   0.483  0.2842 -0.1054 -0.2263
14476TIP3    H164843   2.186   4.403   0.394  0.3077 -0.5546 -0.0650
14476TIP3    H264844   2.115   4.448   0.520  0.2787 -0.5653 -0.0774
14477TIP3   OH264845   4.975   1.507  14.710 -0.1196 -0.5514  0.3368
14477TIP3    H164846   4.964   1.521  14.616  1.2650  2.3218  0.4790
14477TIP3    H264847   4.888   1.518  14.746 -0.6637 -1.6423 -0.5722
14478TIP3   OH264848   5.553   4.592  11.043  0.4022  0.2512 -0.1711
14478TIP3    H164849   5.592   4.661  10.989 -1.0748 -0.0730 -1.7392
14478TIP3    H264850   5.486   4.637  11.094  1.0000  0.3483  0.5469
14479TIP3   OH264851   0.420   4.924   0.270 -0.0059  0.0214 -0.9179
14479TIP3    H164852   0.364   4.850   0.289  0.4701 -0.5111 -1.5691
14479TIP3    H264853   0.424   4.973   0.353  0.4933 -1.2238 -0.1813
14480TIP3   OH264854   1.077   4.235   1.963  0.0875 -0.0042  0.2063
14480TIP3    H164855   0.984   4.256   1.960  0.1800  0.3544 -0.4180
14480TIP3    H264856   1.089   4.167   1.896  0.5601  1.2096 -0.9983
14481TIP3   OH264857   0.291   6.247  12.888  0.3518 -0.0212 -0.1388
14481TIP3    H164858   0.347   6.169  12.891 -0.0363 -0.2859  2.4785
14481TIP3    H264859   0.218   6.222  12.831  1.0701 -0.9358 -0.7040
14482TIP3   OH264860   4.707   6.077  11.007 -0.7107  0.0970 -1.2888
14482TIP3    H164861   4.717   6.030  11.090  3.0380  3.8181  0.7482
14482TIP3    H264862   4.773   6.038  10.950 -1.6129 -0.8389 -1.7252
14483TIP3   OH264863   0.829   1.669   5.586  0.5072  0.3544  0.1468
14483TIP3    H164864   0.880   1.621   5.522 -0.4951  1.7424 -1.7927
14483TIP3    H264865   0.866   1.757   5.586 -1.7218  1.3906 -1.2887
14484TIP3   OH264866   3.116   2.257   1.932 -0.3637  0.5501  0.4443
14484TIP3    H164867   3.030   2.297   1.918 -0.8558 -0.5548  0.2216
14484TIP3    H264868   3.105   2.204   2.011 -0.8667 -2.1367 -1.3090
14485TIP3   OH264869   2.653   3.709   1.993  0.3643 -0.7874 -0.1367
14485TIP3    H164870   2.576   3.749   1.953  1.9346  1.0578 -1.4667
14485TIP3    H264871   2.661   3.753   2.078 -0.9802 -2.2553  0.8255
14486TIP3   OH264872   0.117   1.822   4.045  0.1216 -0.4875 -0.3542
14486TIP3    H164873   0.143   1.809   3.953  0.5017  0.5023 -0.4014
14486TIP3    H264874   0.091   1.735   4.075  0.2043 -0.8670 -1.3378
14487TIP3   OH264875   1.154   3.279  11.161  0.0730 -0.0798  0.1948
14487TIP3    H164876   1.117   3.192  11.177 -0.5731  0.1692  0.0602
14487TIP3    H264877   1.131   3.329  11.238  1.7709 -0.4400  0.9872
14488TIP3   OH264878   5.778   2.708  16.794  0.3217  0.1674  0.5522
14488TIP3    H164879   5.830   2.721  16.715 -1.2716  2.5618 -0.2320
14488TIP3    H264880   5.759   2.615  16.796  1.9751 -0.2492 -0.8353
14489TIP3   OH264881   3.442   6.007  15.031 -0.1668  0.3557  0.1244
14489TIP3    H164882   3.394   5.990  15.113 -1.1693 -0.2878 -0.5759
14489TIP3    H264883   3.384   5.974  14.962  0.0420  2.1138 -0.9564
14490TIP3   OH264884   3.633   4.142   5.795 -0.1368 -0.8888  0.2260
14490TIP3    H164885   3.615   4.214   5.735  0.6436  1.3829  2.5461
14490TIP3    H264886   3.550   4.094   5.801 -1.1041  0.6439 -0.2953
14491TIP3   OH264887   5.908   2.011  15.959 -0.2794  0.2420  0.3976
14491TIP3    H164888   5.854   2.088  15.942 -1.1953 -0.7221 -1.4221
14491TIP3    H264889   5.993   2.046  15.985 -1.1672  1.8317  1.2953
14492TIP3   OH264890   1.615   3.805  16.136 -0.3545 -0.1757 -0.4013
14492TIP3    H164891   1.566   3.887  16.130 -0.2434 -0.0349  0.4856
14492TIP3    H264892   1.705   3.833  16.153  0.2229 -0.3959 -2.6721
14493TIP3   OH264893   2.816   2.958  14.138  0.4623  0.1286 -0.2803
14493TIP3    H164894   2.732   2.971  14.182  1.2480  0.2883  1.2452
14493TIP3    H264895   2.794   2.957  14.045 -1.4319 -1.3745  0.1104
14494TIP3   OH264896   1.324   2.875   1.187  0.2660 -0.2007 -0.0817
14494TIP3    H164897   1.261   2.824   1.136 -1.5839 -1.1168  2.8746
14494TIP3    H264898   1.395   2.814   1.204  0.5706 -0.0957 -0.9013
14495TIP3   OH264899   2.225   0.173   0.396  0.3629 -0.2870 -0.7670
14495TIP3    H164900   2.192   0.189   0.484 -0.4066 -5.1065  0.0780
14495TIP3    H264901   2.156   0.207   0.339 -0.6389  0.0981  0.6091
14496TIP3   OH264902   0.244   0.916  12.738  0.5454 -0.1518 -0.1452
14496TIP3    H164903   0.266   0.874  12.655 -0.4118 -0.4809 -0.2424
14496TIP3    H264904   0.328   0.939  12.777  1.0642 -1.6803 -0.3336
14497TIP3   OH264905   1.948   2.694  14.702 -0.1262 -0.1158  0.0614
14497TIP3    H164906   1.865   2.648  14.719 -0.2212 -0.3984 -1.0305
14497TIP3    H264907   1.932   2.784  14.731 -0.9100 -0.1074 -0.3425
14498TIP3   OH264908   2.531   5.667   4.637  0.8615 -0.5733  0.1030
14498TIP3    H164909   2.472   5.740   4.657  2.3382  0.8135 -0.4479
14498TIP3    H264910   2.583   5.655   4.717  0.2247 -1.4563  0.4068
14499TIP3   OH264911   2.041   3.795   0.476 -0.2230 -0.3099  0.7295
14499TIP3    H164912   1.974   3.733   0.506 -0.1746 -1.1106 -0.7641
14499TIP3    H264913   2.044   3.861   0.546 -4.5035  1.3003 -0.2619
14500TIP3   OH264914   3.441   4.882   6.469 -0.2579 -0.9593 -0.1577
14500TIP3    H164915   3.504   4.856   6.537  0.1537 -1.8454 -0.8519
14500TIP3    H264916   3.380   4.808   6.464 -1.8485  0.2036  1.0421
14501TIP3   OH264917   2.491   1.449   2.695  0.0039 -0.3248 -0.5530
14501TIP3    H164918   2.585   1.464   2.682 -0.2105  2.3666  0.4079
14501TIP3    H264919   2.449   1.504   2.629 -0.8771  1.3971  1.3398
14502TIP3   OH264920   3.221   4.883   3.914  0.4074  0.2816 -0.6508
14502TIP3    H164921   3.238   4.970   3.879 -0.5663  1.0958  0.8161
14502TIP3    H264922   3.293   4.867   3.975  1.5198 -0.6947 -2.1413
14503TIP3   OH264923   2.002   2.468   2.757  0.2342 -0.1655 -0.1945
14503TIP3    H164924   1.933   2.485   2.820 -1.1047 -1.5688 -1.2126
14503TIP3    H264925   2.079   2.512   2.793 -0.8709  0.4040  1.5838
14504TIP3   OH264926   4.867   2.866  11.593  0.4972 -0.3228  0.0157
14504TIP3    H164927   4.850   2.873  11.687  1.5627 -0.3760  0.2212
14504TIP3    H264928   4.959   2.889  11.583  0.5951 -1.0481 -0.9270
14505TIP3   OH264929   0.192   4.812  12.713 -0.1687  0.1416  0.1881
14505TIP3    H164930   0.208   4.872  12.640  0.0405 -0.9610 -0.6873
14505TIP3    H264931   0.212   4.864  12.791 -1.7807  1.8011 -0.4348
14506TIP3   OH264932   5.930   1.343  11.967 -0.3179 -0.2430 -0.5132
14506TIP3    H164933   5.865   1.411  11.949 -1.2281 -1.5143 -2.3428
14506TIP3    H264934   5.882   1.278  12.020  0.4576  0.3404  0.9653
14507TIP3   OH264935   4.005   5.427   1.078 -0.0775  0.1746 -0.4067
14507TIP3    H164936   4.050   5.414   1.161  1.3860 -0.6075 -1.2736
14507TIP3    H264937   4.031   5.514   1.049 -3.4499  2.0456  1.5662
14508TIP3   OH264938   5.066   0.353  16.204 -0.2878 -0.4657 -0.7250
14508TIP3    H164939   5.156   0.322  16.195  0.1676  0.3495  0.6294
14508TIP3    H264940   5.039   0.323  16.290 -0.6060  0.9328 -0.3083
14509TIP3   OH264941   5.821   6.550  12.580  0.4122  0.3667 -0.1318
14509TIP3    H164942   5.866   6.634  12.585 -0.1305  0.7648 -1.5786
14509TIP3    H264943   5.877   6.490  12.630  1.4051  1.3266 -0.0617
14510TIP3   OH264944   1.255   0.307  11.389 -0.1533 -0.1918 -0.0807
14510TIP3    H164945   1.335   0.325  11.340 -1.1594  2.1005 -0.9983
14510TIP3    H264946   1.203   0.252  11.330 -0.3590  0.5735 -0.6309
14511TIP3   OH264947   5.160   4.102  15.097  0.6414  0.1388  0.1414
14511TIP3    H164948   5.211   4.078  15.175 -2.6992  0.4395  2.6404
14511TIP3    H264949   5.116   4.184  15.122 -1.3606 -0.3160 -1.6539
14512TIP3   OH264950   1.021   5.901  11.375  0.1173  0.3533  0.0811
14512TIP3    H164951   1.114   5.905  11.355  0.0828 -1.6012 -0.6436
14512TIP3    H264952   1.016   5.921  11.469  1.1452  1.4336 -0.0798
14513TIP3   OH264953   0.072   2.785   0.877  0.5031 -0.5084 -0.5416
14513TIP3    H164954   0.032   2.774   0.791 -0.2010 -0.0673 -0.2870
14513TIP3    H264955   0.025   2.859   0.916  1.4813 -0.0698 -0.1618
14514TIP3   OH264956   0.694   4.557   0.547  0.3564  0.3967 -0.3179
14514TIP3    H164957   0.718   4.564   0.639  1.2492  1.4190 -0.5987
14514TIP3    H264958   0.700   4.464   0.528  3.5412  0.4458 -0.1344
14515TIP3   OH264959   3.307   5.692   2.314 -0.2708 -0.3225 -0.1571
14515TIP3    H164960   3.389   5.709   2.361 -0.5554  0.6207  0.0276
14515TIP3    H264961   3.298   5.597   2.315 -0.2174 -0.3518  1.6505
14516TIP3   OH264962   1.046   2.759  13.368 -0.0863 -0.3711 -0.0848
14516TIP3    H164963   1.093   2.825  13.317 -0.3286 -0.0490  0.1094
14516TIP3    H264964   0.985   2.720  13.305  0.0954 -0.4522 -0.2131
14517TIP3   OH264965   0.881   4.282   5.322  0.4187 -0.0158 -0.0036
14517TIP3    H164966   0.964   4.307   5.282  1.0366  1.2976  1.9412
14517TIP3    H264967   0.892   4.190   5.346  1.3538  0.1684  0.2959
14518TIP3   OH264968   2.124   0.051  14.053 -0.3003 -0.0181 -0.2359
14518TIP3    H164969   2.174   0.072  14.132 -0.0281  0.6783 -0.5789
14518TIP3    H264970   2.033   0.048  14.083 -0.0208 -1.9150  0.5120
14519TIP3   OH264971   2.844   3.098  13.872  0.4583 -0.2764  0.4550
14519TIP3    H164972   2.857   3.189  13.898  0.7845  0.0896 -0.8834
14519TIP3    H264973   2.762   3.098  13.823  0.2379 -0.7856  0.8158
14520TIP3   OH264974   2.101   4.085  14.494  0.3842  0.1065  0.2892
14520TIP3    H164975   2.127   4.100  14.585  0.0619 -0.8601  0.5510
14520TIP3    H264976   2.157   4.014  14.464 -0.0335 -0.0970 -0.0253
14521TIP3   OH264977   2.302   3.013   2.832  0.1662  0.4890 -0.4650
14521TIP3    H164978   2.330   2.924   2.856  1.0002  0.6584 -0.7750
14521TIP3    H264979   2.321   3.019   2.738  0.7150  1.2083 -0.3169
14522TIP3   OH264980   0.047   5.970   2.198 -0.4434  0.9306 -0.5480
14522TIP3    H164981  -0.000   5.971   2.115 -0.7793  1.3918 -0.3522
14522TIP3    H264982   0.098   6.051   2.198 -1.0662  1.3271  0.0502
14523TIP3   OH264983   4.470   1.105  16.942 -0.2115  0.1479 -0.1117
14523TIP3    H164984   4.412   1.168  16.985  0.4868  0.3416  0.5745
14523TIP3    H264985   4.442   1.105  16.850 -0.9137  0.6591  0.0916
14524TIP3   OH264986   1.992   2.091  16.008  0.1666  0.2330  0.1420
14524TIP3    H164987   2.031   2.101  15.922  1.4997 -2.1668  0.3842
14524TIP3    H264988   1.927   2.161  16.013  1.5360  1.7681 -1.9287
14525TIP3   OH264989   6.549   1.062  11.893  0.5259  0.3278  0.5433
14525TIP3    H164990   6.583   1.003  11.826 -1.6360  0.3209 -0.6244
14525TIP3    H264991   6.455   1.045  11.894  0.2384  1.8314  2.1125
14526TIP3   OH264992   5.411   1.534  12.658  0.1460  0.6874 -0.1413
14526TIP3    H164993   5.342   1.568  12.715 -0.3079  1.5133 -1.1440
14526TIP3    H264994   5.365   1.506  12.579  0.7219 -0.7925  0.0321
14527TIP3   OH264995   0.882   4.889   2.334  0.5948 -0.5819  0.1721
14527TIP3    H164996   0.899   4.976   2.299  0.0900 -0.8260 -0.7137
14527TIP3    H264997   0.800   4.898   2.382  1.6529 -0.0778  1.9704
14528TIP3   OH264998   2.709   1.142   1.476 -0.5183  0.4875  0.0691
14528TIP3    H164999   2.790   1.173   1.434  0.7754 -2.0998  0.4378
14528TIP3    H265000   2.737   1.069   1.531 -3.3403 -1.7881 -1.2496
14529TIP3   OH265001   3.391   3.511   1.200 -0.1395  0.1136 -0.0880
14529TIP3    H165002   3.436   3.544   1.122  0.4445 -2.5546 -1.0025
14529TIP3    H265003   3.419   3.568   1.271  2.4871  0.2609 -1.1444
14530TIP3   OH265004   0.599   4.332   1.684  0.2505 -0.3426 -0.2308
14530TIP3    H165005   0.628   4.291   1.603 -0.2172  1.0177 -1.1078
14530TIP3    H265006   0.625   4.424   1.676  0.1379 -0.1601  1.1372
14531TIP3   OH265007   5.781   3.629  11.976  0.4323  0.6663  0.3974
14531TIP3    H165008   5.832   3.558  11.939 -1.2748 -0.9939  1.0770
14531TIP3    H265009   5.720   3.653  11.907 -0.1418  0.2575  0.7513
14532TIP3   OH265010   4.172   5.448  14.851 -0.0739  0.0256 -0.3952
14532TIP3    H165011   4.100   5.429  14.911  1.1382 -0.1709  1.0755
14532TIP3    H265012   4.137   5.428  14.764 -1.8428  0.1697  0.2438
14533TIP3   OH265013   6.304   6.759  14.440  0.1278  0.6814 -0.1627
14533TIP3    H165014   6.380   6.723  14.394  0.7199  1.7239 -0.0285
14533TIP3    H265015   6.332   6.764  14.532 -0.3470  0.4394 -0.0021
14534TIP3   OH265016   4.323   4.777  11.413 -0.1802  0.2561 -0.7520
14534TIP3    H165017   4.315   4.745  11.503 -0.0628  0.5000 -0.6540
14534TIP3    H265018   4.331   4.872  11.422  0.3240  0.2399 -0.9910
14535TIP3   OH265019   6.482   2.318   0.219  0.4683 -0.3398 -0.3432
14535TIP3    H165020   6.519   2.347   0.135  1.3938 -0.1641  0.1069
14535TIP3    H265021   6.554   2.328   0.281 -0.3388 -0.0331  0.5663
14536TIP3   OH265022   1.553   1.880  11.689 -0.7430 -0.1338 -0.3303
14536TIP3    H165023   1.564   1.829  11.769 -0.5769  2.3202  1.3319
14536TIP3    H265024   1.640   1.883  11.649 -0.4969 -0.1754  0.1965
14537TIP3   OH265025   6.184   5.057  13.938  0.2337 -0.0390 -0.1906
14537TIP3    H165026   6.256   5.021  13.886  0.0258  0.1321 -0.6016
14537TIP3    H265027   6.179   5.149  13.911  1.9621  0.8445  2.1668
14538TIP3   OH265028   2.194   0.009   1.442 -0.5621  0.3727  0.1436
14538TIP3    H165029   2.186  -0.083   1.467  1.9324 -0.2414 -0.9786
14538TIP3    H265030   2.224   0.053   1.522 -0.4961 -0.0191  0.3363
14539TIP3   OH265031   5.869   1.276   0.736 -0.0089  0.0486  0.3190
14539TIP3    H165032   5.940   1.339   0.736 -1.6830  2.0507  0.9063
14539TIP3    H265033   5.902   1.202   0.787  2.3792 -0.0699 -1.2713
14540TIP3   OH265034   6.431   0.760   4.457 -0.1832 -0.4488 -0.1198
14540TIP3    H165035   6.348   0.797   4.487  1.3726  1.3715  2.3699
14540TIP3    H265036   6.455   0.696   4.524  0.7275 -0.4644 -0.4425
14541TIP3   OH265037   4.875   3.840  11.914  0.6908  0.1885 -0.2723
14541TIP3    H165038   4.848   3.912  11.971  1.7840  1.3429 -1.1739
14541TIP3    H265039   4.838   3.862  11.828  0.0907 -0.9177 -0.3194
14542TIP3   OH265040   3.783   5.965   0.502 -0.1144  0.4479  0.3099
14542TIP3    H165041   3.705   5.929   0.460  1.2859  1.1340 -3.2375
14542TIP3    H265042   3.795   5.911   0.580 -2.0688 -2.0409 -0.9589
14543TIP3   OH265043   2.087   0.752   0.228 -0.3514 -0.5352  0.1435
14543TIP3    H165044   1.997   0.758   0.196 -0.1546 -0.8425 -0.4913
14543TIP3    H265045   2.126   0.681   0.176  0.7115  0.6034 -0.7001
14544TIP3   OH265046   6.657   2.121   3.209 -0.1233 -0.2647 -0.9954
14544TIP3    H165047   6.663   2.213   3.187 -0.0455 -0.0124  0.0205
14544TIP3    H265048   6.748   2.095   3.227 -0.2230 -0.3652 -0.6274
14545TIP3   OH265049   0.485   1.230  12.664 -0.1833 -0.3642 -0.2493
14545TIP3    H165050   0.444   1.308  12.700 -0.4830 -1.4268  1.8939
14545TIP3    H265051   0.421   1.194  12.603 -1.8390 -1.1426  1.8558
14546TIP3   OH265052   6.731   1.691  16.582 -0.3639 -0.4012 -0.3146
14546TIP3    H165053   6.806   1.642  16.614  0.5830  1.2919  0.2123
14546TIP3    H265054   6.767   1.748  16.514 -1.5319 -0.8554 -1.3409
14547TIP3   OH265055   4.201   1.851  14.988 -0.1189 -0.2555 -0.0411
14547TIP3    H165056   4.291   1.884  14.988 -1.2827  3.3018  0.0195
14547TIP3    H265057   4.182   1.833  14.896  0.0147  1.0222 -0.3304
14548TIP3   OH265058   5.827   2.076  12.635 -0.0784 -0.3758  0.2809
14548TIP3    H165059   5.775   2.117  12.566 -0.4475  0.0405  0.7984
14548TIP3    H265060   5.918   2.100  12.615 -0.1816 -0.2695 -0.0630
14549TIP3   OH265061   5.670   6.056  16.231  0.6893  0.4282  0.7817
14549TIP3    H165062   5.620   6.076  16.151 -2.2132 -0.4780  2.2102
14549TIP3    H265063   5.762   6.061  16.204 -0.0806 -1.9704 -3.2247
14550TIP3   OH265064   4.364   4.939   0.763  0.1060  0.5273  0.5004
14550TIP3    H165065   4.366   4.988   0.846  2.3131 -2.9840  2.8098
14550TIP3    H265066   4.452   4.949   0.727  0.3640 -0.9701  0.6377
14551TIP3   OH265067   0.255   3.431  14.292  0.3743 -0.2981 -0.1304
14551TIP3    H165068   0.264   3.485  14.214  2.4940 -0.9114 -0.3792
14551TIP3    H265069   0.203   3.356  14.263 -0.2555  0.2671 -0.4996
14552TIP3   OH265070   4.300   2.491  12.763 -0.0023 -0.1372 -0.2118
14552TIP3    H165071   4.276   2.571  12.716  0.4802 -0.3146 -0.7793
14552TIP3    H265072   4.227   2.432  12.747 -0.9322  0.5753  1.2126
14553TIP3   OH265073   6.311   4.372   2.207  0.6027 -0.4176 -0.3063
14553TIP3    H165074   6.358   4.309   2.153  0.4922 -0.3717 -0.4562
14553TIP3    H265075   6.372   4.445   2.219  0.6128 -0.4120 -0.3976
14554TIP3   OH265076   6.403   6.423   5.140  0.0571 -0.4500 -0.3994
14554TIP3    H165077   6.325   6.383   5.101  0.0030 -1.3889  0.5953
14554TIP3    H265078   6.433   6.358   5.204  1.2678  0.1882 -0.2884
14555TIP3   OH265079   6.677   3.389  13.586 -0.1437  0.2909 -0.3152
14555TIP3    H165080   6.746   3.450  13.613 -1.0385  1.4258 -0.5352
14555TIP3    H265081   6.658   3.338  13.664  1.2309 -0.3451 -0.3589
14556TIP3   OH265082   6.640   0.013   2.236 -0.6519 -0.0443 -0.1233
14556TIP3    H165083   6.567   0.074   2.250  0.2606  1.1944 -0.6070
14556TIP3    H265084   6.614  -0.037   2.159 -0.2602  1.6024 -1.3911
14557TIP3   OH265085   1.922   4.263  16.362 -0.5363 -0.5440  0.0199
14557TIP3    H165086   1.886   4.323  16.298 -0.4207 -1.6176 -1.0952
14557TIP3    H265087   1.846   4.222  16.404 -0.6162 -0.6175 -0.1973
14558TIP3   OH265088   4.860   6.647   2.533  0.6095  0.4780  0.0100
14558TIP3    H165089   4.819   6.707   2.470 -0.7673 -0.2557  0.1552
14558TIP3    H265090   4.811   6.662   2.614  1.5183  0.4935  0.5654
14559TIP3   OH265091   3.110   3.634   1.962  0.0806  0.4917  0.2441
14559TIP3    H165092   3.067   3.681   1.890  0.1599  1.2552  0.6750
14559TIP3    H265093   3.040   3.583   2.002 -0.0526  0.3900 -0.1107
14560TIP3   OH265094   0.058   2.728  13.555 -0.5413 -0.4011  0.3027
14560TIP3    H165095   0.044   2.728  13.650 -0.3265  0.6775  0.3469
14560TIP3    H265096  -0.010   2.786  13.521 -1.8956 -2.3358 -0.4434
14561TIP3   OH265097   3.368   2.843   6.027 -0.4527 -0.4480  0.2578
14561TIP3    H165098   3.337   2.777   5.965 -4.8724  2.0665 -0.6105
14561TIP3    H265099   3.311   2.833   6.103  0.8508  0.4627  1.4016
14562TIP3   OH265100   0.717   4.316   5.778  0.1592 -0.6241  0.8404
14562TIP3    H165101   0.733   4.409   5.792 -1.6974 -0.2837  0.9591
14562TIP3    H265102   0.670   4.287   5.856 -0.5651 -1.3112  0.1642
14563TIP3   OH265103   5.285   0.820   1.146  0.3711 -0.0408  0.3397
14563TIP3    H165104   5.214   0.758   1.164 -0.4378  0.4113 -1.1070
14563TIP3    H265105   5.342   0.815   1.223  0.9896 -3.4216 -0.1857
14564TIP3   OH265106   0.142   3.036   0.673  0.3856 -0.0658  0.7344
14564TIP3    H165107   0.075   3.011   0.737 -0.1370 -0.0567  0.2040
14564TIP3    H265108   0.152   2.958   0.618 -0.6176  0.5638 -0.3932
14565TIP3   OH265109   3.054   0.387  16.507 -0.3799 -0.2795 -0.2789
14565TIP3    H165110   3.108   0.398  16.585 -1.8723 -0.0633  0.7748
14565TIP3    H265111   2.981   0.333  16.536 -2.3579  1.9433 -0.7498
14566TIP3   OH265112   0.529   4.170  12.973  0.1355  0.2693 -0.0477
14566TIP3    H165113   0.441   4.177  12.934 -0.6472 -1.4731  1.2635
14566TIP3    H265114   0.585   4.140  12.902 -1.1786 -2.4647 -0.0652
14567TIP3   OH265115   6.290   4.388   3.235  0.0750  0.4209  0.5444
14567TIP3    H165116   6.203   4.357   3.211 -0.1743  0.4042  1.4455
14567TIP3    H265117   6.317   4.330   3.307  1.0899  0.0219 -0.1328
14568TIP3   OH265118   6.072   3.402   2.538 -0.1132  0.1320  0.4340
14568TIP3    H165119   6.144   3.361   2.489  0.2700 -0.2939  1.3295
14568TIP3    H265120   5.997   3.398   2.479  0.4918  0.2210 -0.3651
14569TIP3   OH265121   2.407   0.805   0.036 -0.4011  0.1777  0.3804
14569TIP3    H165122   2.392   0.840   0.124  0.0296  1.9714 -0.2249
14569TIP3    H265123   2.447   0.877  -0.013 -0.2614 -0.9030 -1.1871
14570TIP3   OH265124   5.762   5.674   4.148 -0.3891  0.2615  0.2409
14570TIP3    H165125   5.727   5.682   4.237  0.1821  2.2712  0.3257
14570TIP3    H265126   5.694   5.627   4.100 -0.6435 -1.0177  1.7574
14571TIP3   OH265127   0.437   3.810   6.404 -0.3679 -0.0470 -0.1139
14571TIP3    H165128   0.423   3.901   6.428 -0.9620 -0.1256 -0.1630
14571TIP3    H265129   0.525   3.809   6.365 -0.1090  0.3878  0.4557
14572TIP3   OH265130   3.984   1.884  13.389  0.1155  0.6568 -0.0104
14572TIP3    H165131   3.991   1.908  13.481 -1.2112  0.7007  0.0988
14572TIP3    H265132   4.053   1.819  13.375  0.9957  1.3986  0.7418
14573TIP3   OH265133   3.826   5.922   2.180 -0.3328  0.0487 -0.4980
14573TIP3    H165134   3.734   5.907   2.158 -0.4286  0.8272 -0.6609
14573TIP3    H265135   3.825   5.991   2.245  0.0686 -0.9954  0.6631
14574TIP3   OH265136   5.269   0.561   3.197  0.3155  0.5711 -0.5077
14574TIP3    H165137   5.199   0.627   3.193  1.4768  1.8377 -0.9389
14574TIP3    H265138   5.331   0.596   3.262  1.0949  0.0628 -0.9634
14575TIP3   OH265139   3.782   3.547  11.022  0.8463 -0.3544  0.2219
14575TIP3    H165140   3.839   3.484  10.979  0.5273 -1.1160  0.8919
14575TIP3    H265141   3.707   3.496  11.053  1.4697 -0.0479  2.4777
14576TIP3   OH265142   5.707   4.354   3.786 -0.0255 -0.3774 -0.3535
14576TIP3    H165143   5.629   4.321   3.830 -0.8049 -0.3140 -1.6328
14576TIP3    H265144   5.717   4.444   3.819  0.7688 -1.0671  1.4000
14577TIP3   OH265145   0.345   2.758   0.948  0.3398  0.1640  0.0915
14577TIP3    H165146   0.255   2.741   0.918  0.4787 -2.0274  0.7517
14577TIP3    H265147   0.344   2.850   0.974 -1.0635  0.8568 -2.0664
14578TIP3   OH265148   1.400   0.916   5.647  1.1469  0.2839  0.4407
14578TIP3    H165149   1.457   0.919   5.571  1.3829  0.1081  0.6065
14578TIP3    H265150   1.438   0.978   5.709  1.2174  0.0949  0.5899
14579TIP3   OH265151   6.727   4.028  14.181 -0.3548 -0.9457 -0.2583
14579TIP3    H165152   6.722   4.118  14.148 -1.9316 -0.5715  0.8858
14579TIP3    H265153   6.645   4.016  14.230  0.8904 -2.1740  1.6641
14580TIP3   OH265154   5.226   6.033  11.358  0.0174  0.0913  0.3577
14580TIP3    H165155   5.279   6.109  11.334 -0.3833  1.0046  2.1466
14580TIP3    H265156   5.284   5.980  11.413  0.2149 -0.8055 -0.6771
14581TIP3   OH265157   3.933   5.935   0.099 -0.4864 -0.9349 -0.4479
14581TIP3    H165158   3.840   5.913   0.097 -1.0794  1.4007 -1.2463
14581TIP3    H265159   3.938   6.015   0.151  1.0077 -0.7310 -0.8531
14582TIP3   OH265160   5.279   0.911  16.931  0.1093  0.2599 -0.2391
14582TIP3    H165161   5.253   0.971  17.000  0.1218 -0.9575  0.8592
14582TIP3    H265162   5.224   0.833  16.945 -0.4787  0.2703 -2.0949
14583TIP3   OH265163   2.074   0.314  16.384 -1.2496 -0.1535 -0.3733
14583TIP3    H165164   2.088   0.220  16.393 -1.1855 -0.0534  0.7066
14583TIP3    H265165   2.097   0.333  16.293 -0.8901 -1.1094 -0.4966
14584TIP3   OH265166   1.534   3.652  12.772 -0.6802 -0.2221  0.0627
14584TIP3    H165167   1.540   3.697  12.856  1.3090  0.2591 -0.2838
14584TIP3    H265168   1.556   3.719  12.707  1.5470 -1.4262 -0.5195
14585TIP3   OH265169   1.366   1.028  14.585  0.0080 -0.1167  0.2761
14585TIP3    H165170   1.444   0.973  14.584 -0.4710 -0.8209  0.2458
14585TIP3    H265171   1.305   0.981  14.642  0.1213  1.1703  1.4970
14586TIP3   OH265172   4.710   3.191  13.057 -0.1839  0.1637 -0.4192
14586TIP3    H165173   4.655   3.205  12.980 -0.4679 -0.0283 -0.2480
14586TIP3    H265174   4.726   3.279  13.091  0.6518  0.3292 -1.1923
14587TIP3   OH265175   6.218   1.827   1.188 -0.0984  0.4091  0.4130
14587TIP3    H165176   6.246   1.858   1.274  0.2424 -1.0296  0.8564
14587TIP3    H265177   6.299   1.825   1.136 -0.0864  0.1217  0.4406
14588TIP3   OH265178   5.537   5.202   0.639 -0.3567 -0.4204  0.4128
14588TIP3    H165179   5.446   5.221   0.661 -0.2676 -1.3889  1.7702
14588TIP3    H265180   5.558   5.263   0.569 -2.5712 -1.2755 -1.1463
14589TIP3   OH265181   4.364   5.807   4.393 -0.4269  0.1694 -0.4195
14589TIP3    H165182   4.426   5.878   4.377 -0.8887  0.3778 -1.3780
14589TIP3    H265183   4.287   5.851   4.431  1.3984 -0.5176  5.0135
14590TIP3   OH265184   4.030   4.110  16.886 -0.1951 -0.3418  0.0788
14590TIP3    H165185   3.982   4.037  16.924  0.9116 -0.3685  1.5003
14590TIP3    H265186   4.044   4.085  16.794 -1.0281 -1.2643  0.1891
14591TIP3   OH265187   0.658   2.731  14.513 -0.1760  0.6528  0.1096
14591TIP3    H165188   0.688   2.810  14.468  1.7351  0.3790  0.7754
14591TIP3    H265189   0.698   2.736  14.600  3.2309 -2.7112 -0.9758
14592TIP3   OH265190   4.960   6.721  13.831 -0.0349  0.1563  0.4404
14592TIP3    H165191   4.941   6.741  13.740  3.2911  2.4472  0.0804
14592TIP3    H265192   4.927   6.796  13.880 -0.2056 -0.2247  0.9230
14593TIP3   OH265193   3.149   1.853  13.493 -0.5179  0.4247 -0.1268
14593TIP3    H165194   3.202   1.830  13.569 -1.1995 -0.9223 -0.0323
14593TIP3    H265195   3.164   1.781  13.431  0.9081  2.0340 -1.7730
14594TIP3   OH265196   3.109   1.483   3.818  0.2966  0.3047 -0.3088
14594TIP3    H165197   3.152   1.439   3.890  2.0503  1.5857 -0.5010
14594TIP3    H265198   3.149   1.446   3.739  0.0351  0.5195 -0.5489
14595TIP3   OH265199   5.759   3.655  16.445 -0.3657  0.7662 -0.2061
14595TIP3    H165200   5.839   3.706  16.446 -0.6932  1.3099 -0.9932
14595TIP3    H265201   5.779   3.580  16.389  0.0189  0.1650  0.7108
14596TIP3   OH265202   0.117   1.704  12.677  0.2213  0.3232  0.5348
14596TIP3    H165203   0.110   1.796  12.651  1.0852  0.3295  0.2842
14596TIP3    H265204   0.144   1.707  12.768  0.8316  0.3304  0.3592
14597TIP3   OH265205   6.009   0.636   2.457 -0.3588 -0.5846 -0.3984
14597TIP3    H165206   5.948   0.576   2.500 -0.3164  0.5877  1.4119
14597TIP3    H265207   6.058   0.581   2.396  0.1097 -2.5457  1.6171
14598TIP3   OH265208   1.126   3.882   3.809 -0.5542  0.7209 -0.3780
14598TIP3    H165209   1.140   3.850   3.720 -0.3630 -1.0540  0.2381
14598TIP3    H265210   1.090   3.970   3.799 -0.7849  0.4415 -2.2038
14599TIP3   OH265211   2.482   0.105  16.025  0.5758  0.0622  0.6636
14599TIP3    H165212   2.465   0.142  15.938  1.3013 -0.8142  0.1168
14599TIP3    H265213   2.450   0.014  16.018  0.6839 -0.0255  1.2975
14600TIP3   OH265214   1.821   5.241   2.021 -0.5386  0.1892  0.1810
14600TIP3    H165215   1.853   5.154   1.995  1.0483  0.6279  0.5475
14600TIP3    H265216   1.735   5.224   2.059 -0.8406 -1.0543 -0.9444
14601TIP3   OH265217   2.824   4.395   0.008 -0.0250 -0.2772  0.0585
14601TIP3    H165218   2.791   4.370   0.094 -0.4197 -0.3244 -0.1026
14601TIP3    H265219   2.846   4.488   0.018 -0.2110 -0.2440  0.1669
14602TIP3   OH265220   6.395   3.188   1.835 -0.4190 -0.2220  0.4616
14602TIP3    H165221   6.459   3.223   1.773 -1.7599  1.3777 -0.0883
14602TIP3    H265222   6.382   3.258   1.898 -1.3520 -0.6772  0.7909
14603TIP3   OH265223   2.451   5.873  11.721  0.2338  0.2432 -0.0045
14603TIP3    H165224   2.491   5.956  11.695  1.7685 -0.2486  0.6269
14603TIP3    H265225   2.520   5.808  11.707 -0.4895 -0.7242  0.7500
14604TIP3   OH265226   0.091   4.485  13.942 -0.0947 -0.5825 -0.3839
14604TIP3    H165227   0.124   4.438  13.866  0.0733  0.8638 -1.2521
14604TIP3    H265228   0.145   4.564  13.946 -0.0491 -0.6586  1.2950
14605TIP3   OH265229   6.516   1.997  16.369 -0.1289 -0.3468  0.0316
14605TIP3    H165230   6.585   2.058  16.342  0.6634 -1.4093 -0.4366
14605TIP3    H265231   6.437   2.030  16.327  0.7044 -0.8936 -2.1397
14606TIP3   OH265232   3.185   4.034  11.509  0.0902  0.0215  0.2061
14606TIP3    H165233   3.158   4.118  11.547 -0.6334 -0.6188  1.1437
14606TIP3    H265234   3.154   4.038  11.418  1.0563  1.2076 -0.1019
14607TIP3   OH265235   0.533   5.052   5.581 -0.1107 -0.1434  0.9003
14607TIP3    H165236   0.553   4.964   5.550 -0.7366 -0.0292  0.1548
14607TIP3    H265237   0.611   5.078   5.630  1.2832 -0.0107 -1.2520
14608TIP3   OH265238   1.177   0.225  15.881  0.2885  0.4169 -0.5443
14608TIP3    H165239   1.219   0.156  15.830  0.5292 -1.8246  2.4026
14608TIP3    H265240   1.248   0.287  15.901  0.2146  1.2548 -2.6644
14609TIP3   OH265241   3.509   4.242   1.558  0.7902  0.1687 -0.5585
14609TIP3    H165242   3.512   4.207   1.648 -1.1369  0.4052 -0.3420
14609TIP3    H265243   3.597   4.229   1.524  2.3078  2.2328  2.1470
14610TIP3   OH265244   2.001   2.314  12.754 -0.3617 -0.1183  0.0612
14610TIP3    H165245   2.081   2.366  12.756 -0.1943 -0.2744 -1.5323
14610TIP3    H265246   1.931   2.377  12.771 -0.0551  0.3992 -0.5376
14611TIP3   OH265247   6.710   5.732   0.897 -0.5713  0.3138 -0.1286
14611TIP3    H165248   6.761   5.651   0.902  0.9940  1.3217  1.5858
14611TIP3    H265249   6.699   5.747   0.803 -0.4291 -1.5715 -0.4947
14612TIP3   OH265250   0.058   2.524  10.981 -0.4473 -0.1411 -0.2248
14612TIP3    H165251  -0.022   2.490  10.941 -1.6944  1.3303  0.8407
14612TIP3    H265252   0.063   2.615  10.950 -0.4830  0.4872  1.5089
14613TIP3   OH265253   0.071   5.892  12.283  0.1667 -0.2150 -0.3333
14613TIP3    H165254   0.163   5.912  12.264  0.1441 -0.3359 -0.5782
14613TIP3    H265255   0.060   5.801  12.254 -1.0353  0.9505 -4.0578
14614TIP3   OH265256   5.358   5.250   4.506  0.0979  0.0019 -0.4914
14614TIP3    H165257   5.342   5.221   4.596  0.1303 -1.3601 -0.8998
14614TIP3    H265258   5.363   5.346   4.512 -0.1280 -0.0524  0.9110
14615TIP3   OH265259   1.675   0.241  15.957 -0.7743  0.1367  0.4151
14615TIP3    H165260   1.749   0.263  15.901 -0.6220  1.9810  1.2771
14615TIP3    H265261   1.700   0.158  15.998  0.1102 -0.0530 -0.4651
14616TIP3   OH265262   2.732   5.068   1.788  1.0559  0.1429  0.0849
14616TIP3    H165263   2.797   5.124   1.745  2.3520 -0.2417  1.4134
14616TIP3    H265264   2.649   5.090   1.746  1.6408  2.4627 -0.0212
14617TIP3   OH265265   4.429   4.799   3.009  0.3795  0.0457  0.3296
14617TIP3    H165266   4.347   4.818   3.055  0.0873  0.4327 -0.3228
14617TIP3    H265267   4.449   4.881   2.962  0.4091 -0.4764 -0.5935
14618TIP3   OH265268   3.247   2.603  13.611 -0.6001 -0.2076 -0.0950
14618TIP3    H165269   3.188   2.558  13.671 -0.1390 -0.3610  0.2479
14618TIP3    H265270   3.328   2.553  13.615 -0.8551 -0.7722 -1.5652
14619TIP3   OH265271   2.356   2.027  11.304 -0.3725  0.3046 -0.0602
14619TIP3    H165272   2.336   2.100  11.363  2.6236 -1.5500  3.6900
14619TIP3    H265273   2.430   2.058  11.253 -1.1180  0.9085 -0.8067
14620TIP3   OH265274   1.815   2.429  16.676  0.2556 -0.1601  0.4715
14620TIP3    H165275   1.721   2.413  16.669  0.3939 -0.1178 -2.6453
14620TIP3    H265276   1.822   2.494  16.746 -1.9566 -0.5442  1.1475
14621TIP3   OH265277   1.401   4.503  14.820 -0.4323 -0.4028  0.1618
14621TIP3    H165278   1.317   4.482  14.779 -0.2509  0.2341 -0.5588
14621TIP3    H265279   1.424   4.425  14.870 -1.7589 -0.3646  0.8797
14622TIP3   OH265280   0.946   6.556  10.502 -0.3749  0.7053 -0.3006
14622TIP3    H165281   1.016   6.577  10.440 -1.3300  0.4679 -1.4746
14622TIP3    H265282   0.936   6.635  10.555 -0.4476  1.3752 -1.3116
14623TIP3   OH265283   0.186   5.164   1.194 -0.0211 -0.0892  0.0431
14623TIP3    H165284   0.268   5.122   1.169 -0.0002  0.3074 -0.5934
14623TIP3    H265285   0.191   5.172   1.289  0.5351 -0.3598  0.0413
14624TIP3   OH265286   4.606   2.096  10.833  0.0510  0.0482  0.4641
14624TIP3    H165287   4.673   2.149  10.789  0.2854 -0.3029  0.3842
14624TIP3    H265288   4.614   2.009  10.792 -2.2931  0.6545 -1.5122
14625TIP3   OH265289   5.093   5.555   2.567  0.1595  0.0970 -0.2457
14625TIP3    H165290   5.024   5.603   2.614  0.5311 -0.0400  0.4549
14625TIP3    H265291   5.090   5.591   2.478  0.2995  1.2846  0.2061
14626TIP3   OH265292   3.818   4.240   2.320 -0.2506 -0.1912 -0.6321
14626TIP3    H165293   3.883   4.295   2.364 -1.5859  0.3849  0.7063
14626TIP3    H265294   3.797   4.172   2.384 -1.2757 -0.1146 -0.8717
14627TIP3   OH265295   0.456   4.730   2.625 -0.5768 -0.0167 -1.0014
14627TIP3    H165296   0.512   4.680   2.566 -0.7910 -0.9990 -0.3961
14627TIP3    H265297   0.393   4.666   2.658  0.0291  0.3170  0.9091
14628TIP3   OH265298   4.338   4.048   1.119 -0.2385  0.2648  0.1951
14628TIP3    H165299   4.428   4.059   1.150 -0.0294 -1.9912  0.5822
14628TIP3    H265300   4.346   4.000   1.037 -1.0687  0.2117  0.1357
14629TIP3   OH265301   5.656   2.748   4.237 -0.2384  0.1504  0.4345
14629TIP3    H165302   5.751   2.752   4.227 -0.3847  1.3442 -0.7946
14629TIP3    H265303   5.623   2.819   4.181 -2.0040 -2.1148 -1.6297
14630TIP3   OH265304   3.302   4.693  13.692  0.4499 -0.1753  1.2085
14630TIP3    H165305   3.342   4.772  13.729 -0.6817  0.6020  0.8445
14630TIP3    H265306   3.317   4.702  13.597 -0.6630  0.2042  1.0502
14631TIP3   OH265307   1.627   1.117  11.619  0.0762  0.3276 -0.1992
14631TIP3    H165308   1.631   1.114  11.714 -0.2144 -1.4092 -0.2140
14631TIP3    H265309   1.540   1.081  11.598 -0.2468  1.5513 -1.1068
14632TIP3   OH265310   1.631   0.226   1.925 -0.7273 -0.2541 -0.1592
14632TIP3    H165311   1.550   0.238   1.976 -0.8507 -0.4952 -0.2968
14632TIP3    H265312   1.626   0.294   1.857 -0.9465 -0.4414 -0.3329
14633TIP3   OH265313   0.211   3.399  12.174  0.1120 -0.2337 -0.6812
14633TIP3    H165314   0.179   3.355  12.096 -1.5555 -0.4581  0.0784
14633TIP3    H265315   0.168   3.485  12.171 -0.7568 -0.6022  0.4491
14634TIP3   OH265316   6.084   2.176   5.852 -0.2817  0.4578  0.2931
14634TIP3    H165317   6.066   2.113   5.782 -2.0985  0.5899  0.6103
14634TIP3    H265318   6.050   2.134   5.931 -0.3537  1.3077  0.7211
14635TIP3   OH265319   1.085   3.748  16.570 -0.3007  0.3603 -0.2180
14635TIP3    H165320   1.159   3.706  16.614  0.0200  0.5686 -0.5578
14635TIP3    H265321   1.045   3.677  16.519 -0.1680  0.3167 -0.2606
14636TIP3   OH265322   1.808   4.251  17.021 -0.0163  0.0520 -0.3559
14636TIP3    H165323   1.720   4.245  17.057 -0.2516 -0.8060 -1.0454
14636TIP3    H265324   1.834   4.160  17.006  1.0342  0.2884 -0.0635
14637TIP3   OH265325   5.697   1.618  16.917 -0.0988  0.1500 -0.0052
14637TIP3    H165326   5.652   1.631  17.000 -0.3005  0.9168 -0.2164
14637TIP3    H265327   5.704   1.706  16.880 -1.6063 -0.3321 -1.6086
14638TIP3   OH265328   4.556   4.415   4.201  0.1552 -0.9956  0.0593
14638TIP3    H165329   4.493   4.343   4.196  0.9418 -1.6255 -1.0499
14638TIP3    H265330   4.509   4.491   4.168  0.2839 -1.6894 -1.7962
14639TIP3   OH265331   0.729   5.880  11.632  0.0385  0.5712  0.0029
14639TIP3    H165332   0.816   5.903  11.666  0.4403 -0.9782  0.1129
14639TIP3    H265333   0.742   5.795  11.589 -1.3669  0.4398 -0.2148
14640TIP3   OH265334   5.929   0.686  16.974  0.0349  0.3000  0.8368
14640TIP3    H165335   5.914   0.595  16.949 -0.8053  0.4363  0.7993
14640TIP3    H265336   6.023   0.693  16.987  0.3725 -0.0545 -1.1746
14641TIP3   OH265337   3.795   6.677   1.255  0.5607  0.0115  0.1351
14641TIP3    H165338   3.713   6.646   1.217 -0.2949  0.4283  1.6024
14641TIP3    H265339   3.810   6.761   1.212 -0.5401  0.6095  0.8908
14642TIP3   OH265340   6.385   5.114   5.320 -0.0856 -0.2914 -0.1055
14642TIP3    H165341   6.428   5.135   5.403  0.1751 -0.8833 -0.0815
14642TIP3    H265342   6.343   5.029   5.336 -1.4435  0.3707 -0.0674
14643TIP3   OH265343   4.027   6.142   5.095 -0.4785 -0.0082  0.0261
14643TIP3    H165344   4.106   6.090   5.110  0.2027  0.9117 -0.3433
14643TIP3    H265345   4.043   6.224   5.140 -0.3479  0.9919 -1.7718
14644TIP3   OH265346   1.599   3.151   0.694  0.3731  0.0029 -0.6097
14644TIP3    H165347   1.509   3.161   0.724 -0.7745  0.4144 -3.8506
14644TIP3    H265348   1.631   3.074   0.741 -1.0690  0.7645  1.8021
14645TIP3   OH265349   6.628   4.044   5.549  0.3576 -0.3879 -0.0205
14645TIP3    H165350   6.648   4.130   5.514 -2.4084  0.4859  0.2794
14645TIP3    H265351   6.665   4.045   5.638  0.3327  0.4920 -0.0115
14646TIP3   OH265352   3.010   2.779  14.587 -0.6676 -0.0896  0.0873
14646TIP3    H165353   2.929   2.737  14.618 -1.7338  0.5703 -1.6626
14646TIP3    H265354   2.987   2.871  14.577  0.0881 -0.0063 -1.0713
14647TIP3   OH265355   2.762   6.014  13.338  0.4474 -0.1968  0.0162
14647TIP3    H165356   2.841   6.069  13.338 -0.9740  1.9812  0.4766
14647TIP3    H265357   2.764   5.970  13.423  1.3682 -0.5111 -0.1515
14648TIP3   OH265358   5.585   3.861   0.537 -0.2256  0.0958 -0.4007
14648TIP3    H165359   5.560   3.866   0.445  1.0322 -0.3530 -0.7815
14648TIP3    H265360   5.502   3.851   0.584 -0.9134  0.7173 -1.4419
14649TIP3   OH265361   1.265   4.183  12.609  0.2365  0.5353  0.0222
14649TIP3    H165362   1.275   4.270  12.647  0.4017  1.0805 -1.2225
14649TIP3    H265363   1.186   4.189  12.555 -0.6843 -0.5733  1.1961
14650TIP3   OH265364   5.472   0.473   3.025 -0.4038  0.4276 -0.3176
14650TIP3    H165365   5.516   0.553   2.996 -0.8298  0.8621  0.1985
14650TIP3    H265366   5.412   0.503   3.094  0.2336 -0.4971  0.6743
14651TIP3   OH265367   1.795   1.315   2.359 -0.1594 -0.3278 -0.0747
14651TIP3    H165368   1.798   1.251   2.430 -0.3860 -1.0621 -0.7234
14651TIP3    H265369   1.858   1.282   2.295  1.1997  1.1355  0.4321
14652TIP3   OH265370   1.564   5.481   5.239 -0.1991  0.2453 -0.1728
14652TIP3    H165371   1.561   5.486   5.335  1.4168 -0.5714 -0.0580
14652TIP3    H265372   1.656   5.466   5.218 -0.5160  0.4946 -1.8730
14653TIP3   OH265373   1.105   0.700   0.391  0.4108 -0.1703  0.3788
14653TIP3    H165374   1.049   0.658   0.327 -0.9076  1.7480  0.1924
14653TIP3    H265375   1.100   0.644   0.468 -0.9490 -0.5933  0.0075
14654TIP3   OH265376   5.780   2.424  14.072 -0.2101  0.3537  0.2076
14654TIP3    H165377   5.806   2.389  14.157  1.4265 -0.1829 -0.4785
14654TIP3    H265378   5.792   2.351  14.011 -1.0386  0.8285 -0.5545
14655TIP3   OH265379   2.982   2.685  12.183 -0.0650  0.0756 -0.3023
14655TIP3    H165380   3.010   2.776  12.178 -0.1018  0.0516 -1.3089
14655TIP3    H265381   2.922   2.682  12.257 -1.4803  1.2851 -1.3440
14656TIP3   OH265382   3.148   5.949   5.711 -0.2517  0.1433 -0.4957
14656TIP3    H165383   3.139   6.026   5.654  0.3237 -0.0780 -0.8855
14656TIP3    H265384   3.152   5.985   5.799  2.0925  0.7308 -0.7838
14657TIP3   OH265385   2.288   0.437   5.046 -0.4370 -0.2594 -0.3477
14657TIP3    H165386   2.384   0.440   5.044 -0.3827  0.6547  1.6314
14657TIP3    H265387   2.267   0.346   5.069 -0.1072 -0.6423 -1.4665
14658TIP3   OH265388   2.763   4.333  15.534 -0.2248  0.0839 -0.2360
14658TIP3    H165389   2.749   4.414  15.583  0.9667  0.7395 -0.9165
14658TIP3    H265390   2.780   4.362  15.444 -1.2339 -1.0207 -0.8278
14659TIP3   OH265391   5.000   3.071  13.064 -0.3076  0.0264 -0.2886
14659TIP3    H165392   5.052   3.091  13.142  1.4780 -0.5545 -1.2733
14659TIP3    H265393   4.914   3.110  13.082  0.3255  0.6827  1.5706
14660TIP3   OH265394   1.343   1.627  14.053  0.2359  0.1874 -0.3848
14660TIP3    H165395   1.256   1.601  14.025 -1.1535  0.0359  3.4171
14660TIP3    H265396   1.367   1.700  13.995 -1.7908 -0.6185 -2.3715
14661TIP3   OH265397   5.981   1.026   3.442  0.0385  0.4762  0.1142
14661TIP3    H165398   5.917   1.009   3.373 -1.1244  0.5492  1.1358
14661TIP3    H265399   6.052   0.964   3.425 -0.1680  0.5770 -1.1997
14662TIP3   OH265400   4.081   0.586   6.155  0.2500 -0.1634 -0.0321
14662TIP3    H165401   3.988   0.583   6.133 -0.1701  0.5279  1.5251
14662TIP3    H265402   4.098   0.504   6.201  0.4871 -0.3919 -0.5121
14663TIP3   OH265403   2.402   6.526   1.023 -0.4079 -0.0611 -0.1793
14663TIP3    H165404   2.347   6.517   0.945 -0.4228 -1.2842 -0.0460
14663TIP3    H265405   2.489   6.549   0.988 -0.6572  0.4447 -0.4810
14664TIP3   OH265406   2.573   6.219   1.704 -0.2332 -0.1880 -0.1850
14664TIP3    H165407   2.508   6.221   1.633 -0.2401 -1.8854 -0.2802
14664TIP3    H265408   2.626   6.297   1.691 -1.5792  0.6624 -0.7640
14665TIP3   OH265409   0.704   3.120   1.228 -0.2461  0.0476  0.3712
14665TIP3    H165410   0.623   3.099   1.274  0.4125 -0.5308  1.3005
14665TIP3    H265411   0.681   3.193   1.171 -0.9714  1.1236  1.9785
14666TIP3   OH265412   1.135   4.199  11.264 -0.1391  0.5167 -0.1309
14666TIP3    H165413   1.098   4.287  11.265  2.6880  1.8309 -1.4562
14666TIP3    H265414   1.228   4.212  11.277  0.3858 -2.2893 -0.5170
14667TIP3   OH265415   1.888   4.219  14.766 -0.7253 -0.4636  0.0430
14667TIP3    H165416   1.809   4.165  14.760 -1.6720  0.7796  0.9658
14667TIP3    H265417   1.960   4.157  14.757 -1.7844 -1.8354  0.7063
14668TIP3   OH265418   3.501   1.625   1.351 -0.0815  0.3263 -0.1436
14668TIP3    H165419   3.507   1.553   1.414 -1.7907 -0.6334 -1.0011
14668TIP3    H265420   3.478   1.701   1.403  1.3604  0.2032  0.7301
14669TIP3   OH265421   0.337   2.330   0.961  0.6620  0.0729 -0.2990
14669TIP3    H165422   0.257   2.328   0.909 -0.2260  1.0896  0.9597
14669TIP3    H265423   0.404   2.362   0.901 -0.6541  2.7275 -0.5148
14670TIP3   OH265424   2.528   0.491  12.451 -0.0041 -0.3750  0.1281
14670TIP3    H165425   2.587   0.546  12.503 -1.2809  1.6318 -0.4294
14670TIP3    H265426   2.456   0.549  12.427 -1.0927 -2.1365 -1.1084
14671TIP3   OH265427   0.173   1.568   0.280 -0.6614  0.1066  0.3732
14671TIP3    H165428   0.139   1.647   0.239  0.8222  0.5526 -0.0743
14671TIP3    H265429   0.099   1.508   0.284 -1.7985  1.4989  0.6793
14672TIP3   OH265430   0.842   3.181  15.529 -0.3515 -0.0089  0.5502
14672TIP3    H165431   0.843   3.268  15.488  0.6541 -0.3678 -0.2093
14672TIP3    H265432   0.934   3.164  15.550 -0.8506  0.3156  3.3292
14673TIP3   OH265433   2.975   3.904  16.367 -0.2026  0.2020  0.5873
14673TIP3    H165434   3.071   3.906  16.375 -0.3090  1.4303  2.1402
14673TIP3    H265435   2.948   3.843  16.436 -0.5366 -0.8205 -0.4119
14674TIP3   OH265436   3.589   1.906  13.609  0.7303 -0.1454  0.2520
14674TIP3    H165437   3.598   1.976  13.675  0.5405 -1.3298  1.5834
14674TIP3    H265438   3.606   1.950  13.526  1.3945  1.3295  1.1142
14675TIP3   OH265439   3.531   2.666   2.801 -0.1674 -0.1308 -0.2851
14675TIP3    H165440   3.465   2.620   2.854 -0.6842  0.5028 -0.3563
14675TIP3    H265441   3.482   2.736   2.757  0.0010 -1.3622 -2.5753
14676TIP3   OH265442   4.972   0.496  16.647  0.0841 -0.3856 -0.0875
14676TIP3    H165443   4.922   0.565  16.691  1.8363 -0.3463  2.0120
14676TIP3    H265444   5.000   0.437  16.717  0.9162 -1.7321 -1.4821
14677TIP3   OH265445   5.094   5.742   5.464  0.3450  0.2306  0.4040
14677TIP3    H165446   5.068   5.817   5.411  0.2041  0.6277  1.0209
14677TIP3    H265447   5.090   5.774   5.554  3.0182  0.3498  0.5611
14678TIP3   OH265448   3.909   6.479   1.424  0.0157 -0.5416  0.6282
14678TIP3    H165449   3.864   6.537   1.364 -0.1772 -2.2532 -0.9855
14678TIP3    H265450   3.940   6.536   1.494 -5.0281  0.7570  2.2177
14679TIP3   OH265451   5.543   1.380  14.817 -0.1911 -0.3031  0.1290
14679TIP3    H165452   5.631   1.377  14.781 -0.0124 -1.8767  0.6025
14679TIP3    H265453   5.487   1.401  14.742  0.5606  0.5814 -0.1980
14680TIP3   OH265454   6.128   3.525  12.361  0.1123 -0.0199  0.2902
14680TIP3    H165455   6.074   3.590  12.315 -0.3736  1.2182  2.5047
14680TIP3    H265456   6.192   3.577  12.410  0.6571 -1.2877  0.9726
14681TIP3   OH265457   4.094   6.242   3.545  0.1556 -0.3741  0.2550
14681TIP3    H165458   4.035   6.315   3.525  1.0798 -0.0323 -1.4770
14681TIP3    H265459   4.177   6.266   3.502  0.6914 -2.1116  0.2401
14682TIP3   OH265460   3.264   6.355  12.404  0.7043 -0.6713  0.6229
14682TIP3    H165461   3.358   6.341  12.415  1.0977  0.8127 -0.5301
14682TIP3    H265462   3.245   6.431  12.459  0.2528 -0.7099  0.5218
14683TIP3   OH265463   1.284   2.635  11.713 -0.2121 -0.2282  0.3817
14683TIP3    H165464   1.280   2.728  11.688  2.2993  0.4186  2.0085
14683TIP3    H265465   1.358   2.600  11.662  0.8287 -0.4976  2.0019
14684TIP3   OH265466   2.724   6.282  13.724  0.0749 -0.3579  0.3868
14684TIP3    H165467   2.657   6.339  13.761 -0.0707  0.3189 -0.8680
14684TIP3    H265468   2.775   6.339  13.667  0.4944 -1.2878 -0.1947
14685TIP3   OH265469   4.824   1.761   4.443  0.0559  0.0332 -0.2789
14685TIP3    H165470   4.874   1.827   4.491 -1.4149  1.1648 -0.2352
14685TIP3    H265471   4.868   1.679   4.463  1.0784  0.8129  0.8257
14686TIP3   OH265472   2.066   0.298  15.000  0.0661  0.1683 -0.8170
14686TIP3    H165473   2.036   0.217  14.958 -0.8531  0.7034 -1.1963
14686TIP3    H265474   2.123   0.339  14.935  1.3446 -0.6457 -0.2506
14687TIP3   OH265475   2.548   6.479  13.112  0.4393  0.3920 -0.2456
14687TIP3    H165476   2.481   6.451  13.174  1.2538 -1.1593 -0.0168
14687TIP3    H265477   2.498   6.507  13.035 -0.4889 -0.7202 -0.0808
14688TIP3   OH265478   2.253   5.920  14.106 -0.2616 -0.5492  0.2150
14688TIP3    H165479   2.288   5.848  14.158 -2.3278 -0.7117  1.4975
14688TIP3    H265480   2.297   5.998  14.141  1.1604 -1.0391 -0.4238
14689TIP3   OH265481   5.165   5.665  16.162 -0.2019 -0.3468  0.0626
14689TIP3    H165482   5.217   5.717  16.101 -3.0472  0.2983 -2.0775
14689TIP3    H265483   5.152   5.722  16.238  0.9386  0.0346 -0.0175
14690TIP3   OH265484   5.422   4.290   5.141 -0.2960 -0.6195  0.0991
14690TIP3    H165485   5.428   4.361   5.205 -1.6607  0.3743 -0.8062
14690TIP3    H265486   5.507   4.289   5.098 -0.4710  1.0240 -0.3868
14691TIP3   OH265487   3.673   3.202  11.940  0.4381 -0.0216 -0.0099
14691TIP3    H165488   3.731   3.128  11.918  1.4258  0.6572  0.2166
14691TIP3    H265489   3.699   3.227  12.029 -0.0881  0.4109  0.0256
14692TIP3   OH265490   6.540   0.861   5.145  0.4309  0.1887 -0.9093
14692TIP3    H165491   6.515   0.772   5.168  1.3729  0.0612 -0.3154
14692TIP3    H265492   6.489   0.881   5.066 -0.1072 -0.7105 -0.8042
14693TIP3   OH265493   0.364   3.191   1.643  0.3102 -0.1608  0.8029
14693TIP3    H165494   0.284   3.195   1.590  0.1712  0.1402  1.0382
14693TIP3    H265495   0.376   3.097   1.660  0.2795 -0.2520  0.3568
14694TIP3   OH265496   6.095   5.056  16.332  0.0788  0.4106 -0.0263
14694TIP3    H165497   6.102   4.963  16.313  0.9315  0.5092 -0.2198
14694TIP3    H265498   6.112   5.063  16.426  1.4829  0.5100 -0.2639
14695TIP3   OH265499   3.069   1.115   1.631 -0.3216  0.0103 -0.6574
14695TIP3    H165500   3.043   1.039   1.683 -0.0085  1.1695  1.2658
14695TIP3    H265501   3.118   1.078   1.557 -0.3416 -1.6627  0.1320
14696TIP3   OH265502   3.273   2.256   4.340 -0.6281  0.5779  0.7792
14696TIP3    H165503   3.240   2.174   4.304 -1.6255  1.3034 -0.0614
14696TIP3    H265504   3.366   2.257   4.318 -1.0593  0.6674 -1.2123
14697TIP3   OH265505   2.378   3.064   2.186 -0.6955  0.2800  0.0617
14697TIP3    H165506   2.377   2.971   2.164  2.4104 -0.1220  1.0929
14697TIP3    H265507   2.454   3.099   2.139 -1.5654  2.2560  0.0124
14698TIP3   OH265508   3.573   2.558   3.922 -0.3578 -0.0048 -0.9141
14698TIP3    H165509   3.592   2.635   3.869 -2.0737  0.4404 -0.9361
14698TIP3    H265510   3.490   2.525   3.887 -1.3155  0.0514  1.1718
14699TIP3   OH265511   1.346   2.961  13.122  0.4817 -0.3015  0.0555
14699TIP3    H165512   1.251   2.953  13.111  0.3280 -0.1754  1.1850
14699TIP3    H265513   1.357   3.035  13.181  1.3146 -0.0574 -0.3869
14700TIP3   OH265514   3.167   4.745  11.043  0.0301 -0.0680  0.3686
14700TIP3    H165515   3.224   4.692  10.987  0.5915  1.7319 -0.8157
14700TIP3    H265516   3.086   4.754  10.993  0.6977  1.9346 -0.4269
14701TIP3   OH265517   3.358   5.453   6.014 -0.0955 -0.3053  0.5192
14701TIP3    H165518   3.366   5.393   5.940 -3.5043 -2.1237  1.4373
14701TIP3    H265519   3.408   5.411   6.084  0.5486 -0.1648  0.1535
14702TIP3   OH265520   5.468   3.892   2.715 -0.3125  0.0793  0.2079
14702TIP3    H165521   5.403   3.849   2.660 -2.7351  1.4323  1.8622
14702TIP3    H265522   5.538   3.916   2.654 -1.4171 -1.2494 -1.6942
14703TIP3   OH265523   6.390   3.377   0.786  0.0879  0.3494  0.2403
14703TIP3    H165524   6.417   3.409   0.699 -2.2293  1.3762 -0.1932
14703TIP3    H265525   6.449   3.304   0.804  0.4087 -0.1579 -2.3976
14704TIP3   OH265526   1.314   5.012  15.106 -0.4393  0.4187 -0.2163
14704TIP3    H165527   1.315   5.018  15.011 -0.2784 -1.1929 -0.3450
14704TIP3    H265528   1.233   4.965  15.127  0.2054 -0.4882  0.3266
14705TIP3   OH265529   0.203   2.892  16.898  0.2492  0.6022 -0.1421
14705TIP3    H165530   0.120   2.864  16.937  0.4842 -1.5158 -1.0206
14705TIP3    H265531   0.267   2.884  16.969 -0.0904  1.1635  0.2351
14706TIP3   OH265532   1.033   2.634   2.187  0.4234 -0.2848 -0.1973
14706TIP3    H165533   1.120   2.673   2.191  0.6617 -0.7581 -0.7321
14706TIP3    H265534   1.030   2.589   2.103  0.5548 -2.3206  0.8132
14707TIP3   OH265535   2.979   5.149   4.191  0.2664 -0.1363  0.1063
14707TIP3    H165536   2.984   5.162   4.286 -1.7310 -1.7542  0.4926
14707TIP3    H265537   2.936   5.228   4.159  0.4953  0.1999  0.6077
14708TIP3   OH265538   5.071   0.588   0.817  0.3488  0.2548  0.2388
14708TIP3    H165539   4.994   0.638   0.843  0.1769 -0.4573  1.1511
14708TIP3    H265540   5.116   0.645   0.755 -0.3508  1.1292  0.5017
14709TIP3   OH265541   1.110   2.189  11.838  0.1839 -0.2797  0.2184
14709TIP3    H165542   1.151   2.217  11.920  0.7570  0.4686 -0.3146
14709TIP3    H265543   1.068   2.269  11.804 -1.6588 -0.9850  0.6985
14710TIP3   OH265544   3.543   2.927  17.129  0.3904  0.5406 -0.4223
14710TIP3    H165545   3.620   2.883  17.166  0.7790  1.7807  0.3103
14710TIP3    H265546   3.576   3.011  17.097 -0.7843  1.5278  0.8059
14711TIP3   OH265547   4.461   5.326  11.421 -0.3480 -0.1450  0.2467
14711TIP3    H165548   4.372   5.357  11.408 -0.7932 -1.0690  0.9228
14711TIP3    H265549   4.453   5.230  11.423  0.6688 -0.2470  0.2205
14712TIP3   OH265550   5.342   5.049  12.397 -0.3785 -0.1363  0.2594
14712TIP3    H165551   5.397   5.110  12.446 -1.5911  0.6065  0.7306
14712TIP3    H265552   5.358   5.070  12.305  0.7650 -0.5214  0.3533
14713TIP3   OH265553   1.968   5.536  12.810  0.1410 -0.2300  0.1583
14713TIP3    H165554   1.911   5.484  12.866 -1.6890 -0.9615 -2.1949
14713TIP3    H265555   2.037   5.567  12.868 -1.3776 -1.2416  2.6768
14714TIP3   OH265556   3.551   4.169  16.407 -0.1158  0.4579 -0.4323
14714TIP3    H165557   3.483   4.133  16.351  1.5058 -1.8082 -1.0873
14714TIP3    H265558   3.505   4.231  16.464 -2.6804 -0.8972 -0.8991
14715TIP3   OH265559   5.406   0.854   6.665  0.3346  0.2649 -0.3309
14715TIP3    H165560   5.358   0.777   6.634  1.6253 -0.6742 -0.0799
14715TIP3    H265561   5.469   0.873   6.596 -0.9005  2.0076 -1.0404
14716TIP3   OH265562   2.114   4.213   2.611 -0.0568 -0.4046 -1.0153
14716TIP3    H165563   2.035   4.185   2.658  0.0550  0.1309 -0.4910
14716TIP3    H265564   2.179   4.146   2.631 -0.0767 -0.2989 -0.5717
14717TIP3   OH265565   5.187   6.361  14.449  0.2204 -0.2761  0.1181
14717TIP3    H165566   5.234   6.330  14.527 -0.3493 -0.9601  0.1987
14717TIP3    H265567   5.255   6.401  14.395  0.8515 -0.9794  0.3646
14718TIP3   OH265568   2.576   6.462  12.223  0.5008 -0.2850  0.0199
14718TIP3    H165569   2.511   6.393  12.208 -1.0052  0.7262  1.5505
14718TIP3    H265570   2.564   6.524  12.152  0.6958 -0.7368 -0.4130
14719TIP3   OH265571   5.460   1.240   5.078 -0.0625 -0.0719  0.0288
14719TIP3    H165572   5.492   1.284   5.157  0.0722  2.5875 -1.3842
14719TIP3    H265573   5.530   1.252   5.014 -1.2935  0.3788 -1.2973
14720TIP3   OH265574   0.529   6.404   0.022  0.3002 -0.0690  0.2064
14720TIP3    H165575   0.442   6.388   0.057 -0.3148 -1.5104 -1.7987
14720TIP3    H265576   0.573   6.456   0.090 -1.9421  0.3421  1.4541
14721TIP3   OH265577   5.626   6.658   1.999  0.0453  0.4570  0.0778
14721TIP3    H165578   5.618   6.721   1.928 -1.1532 -0.1996 -0.4046
14721TIP3    H265579   5.719   6.656   2.019  0.2033  1.8122 -0.3984
14722TIP3   OH265580   2.290   5.151  14.142 -0.1977  0.3098 -0.0378
14722TIP3    H165581   2.382   5.169  14.159 -0.3863  1.8025 -0.4652
14722TIP3    H265582   2.289   5.109  14.056  0.1505 -0.5225  0.3591
14723TIP3   OH265583   0.079   2.014   5.825 -0.0738  0.1891 -0.5246
14723TIP3    H165584   0.004   1.958   5.844 -0.1698 -0.0519 -1.5551
14723TIP3    H265585   0.091   2.066   5.904 -1.9570  0.9776 -0.7112
14724TIP3   OH265586   1.991   0.425  12.461  0.0801 -0.0826  0.1284
14724TIP3    H165587   2.037   0.403  12.542 -0.1947 -1.5629 -0.0786
14724TIP3    H265588   2.060   0.430  12.395  0.1513 -0.3578  0.1811
14725TIP3   OH265589   5.932   4.814   3.256  0.0208  0.1288  0.0263
14725TIP3    H165590   5.926   4.731   3.208 -0.9851 -0.8407  1.7471
14725TIP3    H265591   5.990   4.796   3.329  1.4115  1.5507 -0.6784
14726TIP3   OH265592   5.730   5.289  15.997 -0.2748  0.5625 -0.2249
14726TIP3    H165593   5.694   5.280  16.085 -3.2402  1.1802 -1.2595
14726TIP3    H265594   5.811   5.237  15.998  0.4729  1.5754  3.1519
14727TIP3   OH265595   0.503   3.669  12.177  0.8636  0.3826  0.0243
14727TIP3    H165596   0.409   3.652  12.171  1.1073 -0.6705 -1.1825
14727TIP3    H265597   0.533   3.610  12.247  0.7406  0.1615 -0.1068
14728TIP3   OH265598   4.137   1.889   4.528  0.0856 -0.4484 -0.4336
14728TIP3    H165599   4.100   1.921   4.445  0.0128 -0.2812 -0.3379
14728TIP3    H265600   4.065   1.898   4.590  0.0922 -0.7180 -0.3862
14729TIP3   OH265601   0.239   0.253  17.061  0.0380  0.2598  0.3092
14729TIP3    H165602   0.225   0.190  17.131 -0.7103  0.3007  0.2063
14729TIP3    H265603   0.333   0.272  17.064 -0.0607  0.6194  1.5988
14730TIP3   OH265604   6.356   3.906  12.331 -0.1131  0.6031 -0.1901
14730TIP3    H165605   6.385   3.973  12.393 -0.8037  1.4703 -0.7684
14730TIP3    H265606   6.362   3.824  12.380  1.0373  1.0411  0.4415
14731TIP3   OH265607   3.449   6.095   0.053  0.3643  0.1406  0.3898
14731TIP3    H165608   3.513   6.071  -0.014  1.4142  1.2165  0.9727
14731TIP3    H265609   3.366   6.102   0.006  1.0826  0.9001 -0.8086
14732TIP3   OH265610   3.360   4.544  16.306 -0.3815 -0.5200  0.3727
14732TIP3    H165611   3.380   4.619  16.363 -0.7085 -0.8061  0.8746
14732TIP3    H265612   3.446   4.516  16.273 -0.1656 -0.4396  0.8504
14733TIP3   OH265613   6.318   5.597   3.507  0.2257 -0.4204  0.3724
14733TIP3    H165614   6.247   5.549   3.466  0.2890 -0.8493  0.7555
14733TIP3    H265615   6.379   5.615   3.436 -0.1712 -0.2149  0.0789
14734TIP3   OH265616   3.436   0.003  12.791  0.1774  0.1517 -0.4539
14734TIP3    H165617   3.347  -0.032  12.802  0.1604  0.6325  1.2490
14734TIP3    H265618   3.426   0.097  12.803  0.9072  0.2165 -0.3405
14735TIP3   OH265619   5.050   4.659  14.357  0.2304 -0.2632 -0.2511
14735TIP3    H165620   4.977   4.719  14.371  1.0199  0.7283 -0.2571
14735TIP3    H265621   5.098   4.697  14.283  0.4360 -1.2057 -0.6098
14736TIP3   OH265622   0.049   5.365   0.480  0.5428 -0.2589 -0.8913
14736TIP3    H165623   0.045   5.351   0.386  0.4940 -1.4136 -0.7250
14736TIP3    H265624  -0.042   5.379   0.506  0.3597 -1.4802 -0.8060
14737TIP3   OH265625   0.955   3.929   5.698 -0.1616  0.2619  0.5145
14737TIP3    H165626   0.966   3.922   5.793  0.4884 -1.9316  0.3461
14737TIP3    H265627   0.986   4.017   5.676  1.3456  0.1937  2.1466
14738TIP3   OH265628   1.322   6.379   3.219  0.5056 -0.1542  0.1712
14738TIP3    H165629   1.270   6.451   3.185  1.0351  1.0295  1.7194
14738TIP3    H265630   1.285   6.301   3.177  0.4124  1.0488 -2.1311
14739TIP3   OH265631   2.525   3.346  11.951  0.0704 -0.5265 -0.2531
14739TIP3    H165632   2.465   3.272  11.954 -0.9206  0.2828  1.0296
14739TIP3    H265633   2.473   3.418  11.914  0.7564 -0.2391 -0.6827
14740TIP3   OH265634   1.702   6.712   5.062 -0.2827 -0.7241 -0.1501
14740TIP3    H165635   1.790   6.750   5.056 -0.8081  0.6571  0.4921
14740TIP3    H265636   1.658   6.764   5.129 -1.2924 -2.0222  0.2419
14741TIP3   OH265637   2.786   0.329   3.982  0.5026 -1.0561 -0.3518
14741TIP3    H165638   2.875   0.323   3.949  0.7251  0.1568 -0.0124
14741TIP3    H265639   2.732   0.333   3.903  0.5705 -3.5244 -0.5837
14742TIP3   OH265640   6.517   3.747   3.177  0.0446 -0.4467 -0.2419
14742TIP3    H165641   6.607   3.719   3.159  0.1343 -0.5779  0.3866
14742TIP3    H265642   6.527   3.833   3.218 -0.2106  0.3483 -1.7731
14743TIP3   OH265643   0.450   5.937   1.751  0.4440  0.3417 -0.9552
14743TIP3    H165644   0.415   5.861   1.703  1.1038 -0.6201  0.0452
14743TIP3    H265645   0.544   5.932   1.738  0.6567 -0.0389  0.5522
14744TIP3   OH265646   0.645   5.923   1.511  0.0541 -0.9176  0.4327
14744TIP3    H165647   0.723   5.874   1.536  3.1732  4.0048  1.7982
14744TIP3    H265648   0.660   5.947   1.420  0.4742  0.3921  0.8191
14745TIP3   OH265649   4.500   1.267   3.706 -0.2612  0.3279 -0.0565
14745TIP3    H165650   4.541   1.256   3.791 -0.7368  1.0907  0.2790
14745TIP3    H265651   4.418   1.313   3.724 -0.1743  0.8593 -0.9691
14746TIP3   OH265652   0.117   5.974   4.645  0.3217  0.1023 -0.0643
14746TIP3    H165653   0.063   5.963   4.567  1.0271  1.1228 -0.7110
14746TIP3    H265654   0.201   5.933   4.623  1.1783  2.0220 -0.5868
14747TIP3   OH265655   0.386   1.974   3.058  0.2754  0.4814  0.5748
14747TIP3    H165656   0.428   1.961   2.973 -0.3195  0.2249  0.3142
14747TIP3    H265657   0.328   1.899   3.068 -0.3599  0.9898  0.7820
14748TIP3   OH265658   6.616   1.100   1.746 -0.1971 -0.7757 -0.1824
14748TIP3    H165659   6.635   1.076   1.836  0.6640 -1.5974 -0.5614
14748TIP3    H265660   6.521   1.092   1.737 -0.2804 -0.7202  0.6344
14749TIP3   OH265661   1.137   1.026  14.112  0.2571 -0.2938  0.0322
14749TIP3    H165662   1.138   0.931  14.105 -0.9807 -0.2352 -1.2215
14749TIP3    H265663   1.210   1.055  14.056  1.3517 -0.5126  1.2902
14750TIP3   OH265664   0.578   2.230  16.380  0.0812  0.4802  0.5197
14750TIP3    H165665   0.601   2.173  16.452  1.2821  0.7533  0.3634
14750TIP3    H265666   0.562   2.170  16.306 -3.0494  0.0324  1.4014
14751TIP3   OH265667   3.483   1.654   0.298  0.2022 -0.6373 -0.5258
14751TIP3    H165668   3.487   1.749   0.306 -2.7999 -0.3698 -1.0882
14751TIP3    H265669   3.516   1.621   0.381  0.1576  0.9409  0.1424
14752TIP3   OH265670   5.062   5.956  11.128 -0.1526 -0.6489  0.1271
14752TIP3    H165671   5.100   5.960  11.216  1.4310  2.9647 -0.5500
14752TIP3    H265672   5.063   5.862  11.107  1.5580 -1.4330  3.0325
14753TIP3   OH265673   1.267   3.168   1.276  0.2268  0.6148 -0.2717
14753TIP3    H165674   1.312   3.230   1.333 -0.5307  1.7559 -0.8746
14753TIP3    H265675   1.324   3.091   1.274  0.5882  0.7980  1.4791
14754TIP3   OH265676   1.372   5.623  12.342 -0.5893  0.5304 -0.1950
14754TIP3    H165677   1.281   5.643  12.365 -0.8668 -1.3262  0.4796
14754TIP3    H265678   1.411   5.589  12.423  0.6439  1.0259 -0.5456
14755TIP3   OH265679   3.897   4.904   3.399 -0.4182  0.0368  0.3519
14755TIP3    H165680   3.981   4.949   3.397  0.2300 -1.0926  0.9064
14755TIP3    H265681   3.876   4.887   3.307  0.1447 -0.0003  0.2265
14756TIP3   OH265682   0.671   0.843  14.338 -0.2896  0.3280 -0.4024
14756TIP3    H165683   0.710   0.931  14.344  0.6491 -0.0346 -1.0204
14756TIP3    H265684   0.655   0.830  14.245 -1.9133  0.4487 -0.1699
14757TIP3   OH265685   2.176   6.259   4.194  0.5806 -0.3650  0.3073
14757TIP3    H165686   2.111   6.274   4.125 -0.6505 -0.2338  1.4543
14757TIP3    H265687   2.125   6.226   4.268  1.4519  1.9428  2.0550
14758TIP3   OH265688   2.870   0.391  14.066  0.5135 -0.2966 -0.0522
14758TIP3    H165689   2.909   0.474  14.095 -0.2236  0.0559 -0.0427
14758TIP3    H265690   2.942   0.328  14.071  1.2585  0.4782 -0.6994
14759TIP3   OH265691   3.186   1.206  11.772  0.3081  0.1871  0.3564
14759TIP3    H165692   3.186   1.136  11.837  1.5918  0.9209  1.2069
14759TIP3    H265693   3.279   1.225  11.757  0.0054  1.3796 -0.2018
14760TIP3   OH265694   1.537   3.969  15.192  0.2562 -0.2969 -0.1418
14760TIP3    H165695   1.550   4.053  15.236  0.5133  1.4134 -3.2094
14760TIP3    H265696   1.614   3.960  15.135  0.0434 -2.4591 -0.1673
14761TIP3   OH265697   2.225   3.709  16.474 -0.1867  0.0803  0.3583
14761TIP3    H165698   2.134   3.681  16.490 -0.1379 -0.3733 -0.1222
14761TIP3    H265699   2.218   3.776  16.406 -0.3489  1.6520  1.8649
14762TIP3   OH265700   6.250   1.321   2.489 -0.4388 -0.7842  0.6503
14762TIP3    H165701   6.179   1.306   2.552 -0.6998 -0.0684  0.5327
14762TIP3    H265702   6.327   1.336   2.543 -0.6123 -0.4173  0.7989
14763TIP3   OH265703   3.913   3.619  16.894 -0.0605  0.5701  0.0516
14763TIP3    H165704   3.937   3.591  16.806  1.6845 -3.2868  1.5063
14763TIP3    H265705   3.823   3.587  16.906 -0.1533  0.7392 -0.1893
14764TIP3   OH265706   6.700   3.252   0.525  0.0080  0.7202 -0.2238
14764TIP3    H165707   6.772   3.201   0.488 -0.9032 -0.5200 -0.3691
14764TIP3    H265708   6.636   3.186   0.551 -2.3779  1.8422 -2.7674
14765TIP3   OH265709   0.474   6.740   0.491 -0.1250  0.3121 -0.2905
14765TIP3    H165710   0.555   6.708   0.529 -0.2350  1.5126  1.0261
14765TIP3    H265711   0.427   6.660   0.464 -0.5921 -0.7846  3.2297
14766TIP3   OH265712   5.222   4.259  11.637  0.1393  0.3737  0.4026
14766TIP3    H165713   5.143   4.311  11.653 -0.0665  0.6551 -1.3839
14766TIP3    H265714   5.252   4.287  11.551  1.0867 -1.1346  0.2176
14767TIP3   OH265715   5.715   3.595  15.560 -0.2783 -0.0079  0.4048
14767TIP3    H165716   5.693   3.556  15.476  0.7730  0.3745 -0.0711
14767TIP3    H265717   5.631   3.620  15.599 -0.9076 -1.8561  0.3029
14768TIP3   OH265718   0.007   3.408  16.636  0.3858 -0.1308 -0.2492
14768TIP3    H165719   0.041   3.423  16.548  0.0628  1.0018 -0.2091
14768TIP3    H265720   0.065   3.458  16.693 -0.5216  0.7371 -0.0447
14769TIP3   OH265721   0.926   3.040   1.046 -0.1135 -0.2889  0.6442
14769TIP3    H165722   0.948   3.131   1.067 -0.6372 -0.7808  3.8201
14769TIP3    H265723   0.835   3.030   1.075 -0.4055 -1.6030 -0.6020
14770TIP3   OH265724   6.265   6.115   1.709  0.2058  0.1339  0.0742
14770TIP3    H165725   6.217   6.098   1.790 -0.2435 -2.4503 -0.6470
14770TIP3    H265726   6.282   6.209   1.710 -3.5865  0.9673  1.0769
14771TIP3   OH265727   6.495   1.625  16.507 -0.2534  0.0255  0.3747
14771TIP3    H165728   6.430   1.694  16.516 -0.8363 -0.5698  0.7155
14771TIP3    H265729   6.573   1.660  16.550 -0.3961  0.6640  0.1212
14772TIP3   OH265730   2.376   1.299   3.353  0.0892 -0.2832 -0.3409
14772TIP3    H165731   2.340   1.214   3.328 -0.0525  0.0179 -1.1880
14772TIP3    H265732   2.471   1.287   3.351  0.0644 -0.5272 -0.0729
14773TIP3   OH265733   1.782   1.390  15.983 -0.2807 -0.2031  0.8630
14773TIP3    H165734   1.813   1.480  15.991  0.0353 -0.3517  1.2945
14773TIP3    H265735   1.748   1.368  16.070  0.5239 -0.8287  1.0257
14774TIP3   OH265736   0.827   4.074  14.737  0.3006  0.2392 -0.0317
14774TIP3    H165737   0.918   4.085  14.762  0.3666  0.0625 -0.1947
14774TIP3    H265738   0.796   4.000  14.789  0.4413 -0.1363 -0.4733
14775TIP3   OH265739   5.079   6.241   5.067 -0.3536  0.7313  0.2942
14775TIP3    H165740   5.022   6.187   5.012 -1.5722 -0.6661  2.7207
14775TIP3    H265741   5.033   6.325   5.074 -0.8398  0.4813  0.2066
14776TIP3   OH265742   5.233   1.133   6.032  0.0003  0.6031 -0.5684
14776TIP3    H165743   5.142   1.104   6.040 -0.3287  1.2343 -1.8211
14776TIP3    H265744   5.284   1.053   6.042 -0.5702  0.4370  1.6652
14777TIP3   OH265745   6.563   0.813   4.190 -0.1897 -0.4914  0.0684
14777TIP3    H165746   6.571   0.724   4.155  0.2532 -0.1310 -0.7701
14777TIP3    H265747   6.513   0.802   4.271 -1.0866 -1.3782 -0.5722
14778TIP3   OH265748   5.824   0.270  13.246  0.3388 -0.1116  0.0789
14778TIP3    H165749   5.905   0.291  13.199  0.5083  1.0255  0.8558
14778TIP3    H265750   5.855   0.228  13.327  0.1933  0.8213  0.6316
14779TIP3   OH265751   2.019   3.839   4.958 -0.0541 -0.1715 -0.0494
14779TIP3    H165752   1.969   3.886   5.024 -0.2822  0.4658 -0.6575
14779TIP3    H265753   2.090   3.898   4.934  1.3462 -1.2668  1.1671
14780TIP3   OH265754   4.903   4.135  12.514 -0.3377  0.3251  0.2926
14780TIP3    H165755   4.958   4.175  12.446  2.0377 -0.0764  1.8790
14780TIP3    H265756   4.943   4.050  12.531 -2.5077 -0.7701  0.3569
14781TIP3   OH265757   6.355   5.999  15.023 -0.0830  0.2903 -0.3630
14781TIP3    H165758   6.387   5.950  15.098  0.7926 -0.3845 -1.1600
14781TIP3    H265759   6.341   6.088  15.056 -0.1393 -0.1033  0.6921
14782TIP3   OH265760   0.566   2.458  14.271  0.6366 -0.4981 -0.4462
14782TIP3    H165761   0.500   2.511  14.227 -0.5500 -1.7891 -0.3045
14782TIP3    H265762   0.516   2.394  14.322  1.9726 -1.8771 -0.7620
14783TIP3   OH265763   2.687   4.827   5.447  0.2404  0.2968  0.3738
14783TIP3    H165764   2.669   4.781   5.365  0.3090  1.5681 -0.3774
14783TIP3    H265765   2.774   4.796   5.473 -0.0696 -0.6303  0.3443
14784TIP3   OH265766   2.594   2.835  16.738  0.0577 -0.7045 -0.6708
14784TIP3    H165767   2.624   2.903  16.678 -0.0588 -0.9750 -1.0338
14784TIP3    H265768   2.614   2.753  16.694 -0.9772 -0.8956 -0.7975
14785TIP3   OH265769   6.368   0.265  14.496 -0.0094 -0.5596  0.4307
14785TIP3    H165770   6.374   0.357  14.521 -1.3668 -0.3216 -0.0545
14785TIP3    H265771   6.453   0.246  14.456  0.3151  0.4540  0.5993
14786TIP3   OH265772   5.199   1.289   5.018  0.4040 -0.2567 -0.1649
14786TIP3    H165773   5.182   1.260   5.108 -0.2951  1.4107  0.2800
14786TIP3    H265774   5.294   1.283   5.009  0.4540 -0.7492  0.5805
14787TIP3   OH265775   3.688   3.258  12.247  0.3470 -0.0512 -0.0941
14787TIP3    H165776   3.599   3.229  12.266  0.9056 -0.1239  2.9566
14787TIP3    H265777   3.744   3.190  12.285  1.6742  1.5307  0.9005
14788TIP3   OH265778   5.904   0.642   3.791  0.1762  0.5577  0.7999
14788TIP3    H165779   5.883   0.560   3.748 -0.1121  1.8656 -1.7567
14788TIP3    H265780   5.988   0.668   3.754 -0.6731  2.3500  0.0111
14789TIP3   OH265781   4.878   0.153  14.664  0.2431 -0.8359 -0.3547
14789TIP3    H165782   4.813   0.088  14.690 -2.7958  2.2124  0.4780
14789TIP3    H265783   4.834   0.204  14.596  2.9567 -0.3209 -1.8831
14790TIP3   OH265784   0.526   2.772  15.855 -0.4915  0.8103 -0.2008
14790TIP3    H165785   0.620   2.755  15.852 -0.7224 -0.4151 -1.5892
14790TIP3    H265786   0.490   2.699  15.906 -0.7736  0.8409 -0.3495
14791TIP3   OH265787   1.386   0.982  15.255 -0.5392  0.7606  0.1975
14791TIP3    H165788   1.392   0.929  15.175  0.8985  0.3926  0.5163
14791TIP3    H265789   1.423   0.926  15.323  0.9596  2.1168  0.5609
14792TIP3   OH265790   6.498   5.677   3.307 -0.2701  0.1456  0.4016
14792TIP3    H165791   6.584   5.717   3.302  1.0362 -2.4427  0.2907
14792TIP3    H265792   6.452   5.707   3.229  1.1472  0.2839 -0.4020
14793TIP3   OH265793   3.686   5.749   5.722 -0.4937  0.1072 -0.3645
14793TIP3    H165794   3.648   5.729   5.808 -0.9326 -2.1253 -1.0116
14793TIP3    H265795   3.766   5.797   5.742  1.1961 -3.1062  1.5728
14794TIP3   OH265796   3.100   0.849   1.730 -0.0991 -0.0908  0.6924
14794TIP3    H165797   3.095   0.766   1.776  2.6160 -0.8240 -0.1818
14794TIP3    H265798   3.109   0.825   1.637 -0.4385  1.2214  0.2904
14795TIP3   OH265799   0.593   0.399   4.711 -0.1805 -0.1440 -0.8531
14795TIP3    H165800   0.637   0.314   4.721  1.5519  0.9655  2.7262
14795TIP3    H265801   0.502   0.382   4.732 -0.0517 -1.2411 -1.1099
14796TIP3   OH265802   2.908   2.158  16.513  0.4491  0.0534  0.0123
14796TIP3    H165803   2.886   2.099  16.586  0.9089  0.3354  0.3841
14796TIP3    H265804   2.825   2.171  16.467  0.3962 -1.1592 -0.2846
14797TIP3   OH265805   2.296   5.351  12.098  0.4521  0.9071 -0.2481
14797TIP3    H165806   2.382   5.310  12.086  0.1538 -0.0063  0.5546
14797TIP3    H265807   2.240   5.305  12.035  0.4126  1.0362 -0.3063
14798TIP3   OH265808   3.626   4.819  14.931  0.5014 -0.3031  0.1484
14798TIP3    H165809   3.610   4.726  14.914 -0.9927  0.2742 -1.9863
14798TIP3    H265810   3.539   4.860  14.927  1.2994  1.4245 -0.6731
14799TIP3   OH265811   5.047   2.408   6.389 -0.0113 -0.5158 -0.0003
14799TIP3    H165812   5.051   2.361   6.306  0.8670 -0.1386 -0.1925
14799TIP3    H265813   5.091   2.491   6.371  1.6880 -1.0836  1.2434
14800TIP3   OH265814   4.404   3.013   1.043  0.0071  0.1760 -0.5433
14800TIP3    H165815   4.326   2.999   1.097 -1.0940 -1.0999 -2.3577
14800TIP3    H265816   4.473   2.964   1.088 -1.2740 -2.2550 -1.0695
14801TIP3   OH265817   6.081   3.475   6.161  0.4616  0.4234  0.1174
14801TIP3    H165818   6.173   3.496   6.148  0.3295 -0.0270 -2.0660
14801TIP3    H265819   6.072   3.386   6.127 -0.8300  0.5956 -0.0448
14802TIP3   OH265820   2.292   2.702  17.189 -0.0821  0.4894 -0.8879
14802TIP3    H165821   2.347   2.766  17.146 -3.5652  2.7316 -2.4133
14802TIP3    H265822   2.225   2.680  17.125 -1.0619 -2.0562  0.8252
14803TIP3   OH265823   1.983   1.987   1.754 -0.4834  0.2288  0.2030
14803TIP3    H165824   1.928   2.059   1.786  0.3138  0.9609 -0.0479
14803TIP3    H265825   2.070   2.024   1.748  0.0735 -0.9495  0.6825
14804TIP3   OH265826   6.387   5.692   0.911  0.1542 -0.4177  0.1739
14804TIP3    H165827   6.441   5.771   0.897 -0.4854 -0.2574 -1.6547
14804TIP3    H265828   6.336   5.711   0.990  0.8871  0.4908  0.4470
14805TIP3   OH265829   1.965   4.143  14.245 -0.8714  0.0594  0.5778
14805TIP3    H165830   1.992   4.137  14.337  0.5372  1.6622  0.3306
14805TIP3    H265831   2.000   4.064  14.205 -1.5093 -0.6609  1.4121
14806TIP3   OH265832   2.226   3.486  15.968  0.3459  0.4458 -0.6697
14806TIP3    H165833   2.197   3.403  15.930  0.5868  1.1538 -2.5084
14806TIP3    H265834   2.192   3.553  15.908 -1.5077  1.8555  1.7497
14807TIP3   OH265835   3.770   6.438   4.405 -0.0914 -0.2666 -0.0356
14807TIP3    H165836   3.763   6.349   4.370 -0.1345 -0.2970  0.0509
14807TIP3    H265837   3.862   6.446   4.432 -0.0127 -0.1811 -0.3220
14808TIP3   OH265838   3.849   1.434  12.638 -0.2898  0.4698 -0.4013
14808TIP3    H165839   3.865   1.351  12.683  1.7214  0.8324 -0.3555
14808TIP3    H265840   3.875   1.418  12.547 -0.6275  0.8442 -0.5661
14809TIP3   OH265841   5.640   6.704  16.403  0.3564 -0.0628  0.0359
14809TIP3    H165842   5.654   6.799  16.408  0.9588 -0.1952  1.5367
14809TIP3    H265843   5.708   6.667  16.460 -0.2131 -1.3636 -0.0964
14810TIP3   OH265844   4.202   0.542  15.993  0.0063 -0.1193  0.0539
14810TIP3    H165845   4.153   0.561  15.913  0.6804 -1.1917 -0.6466
14810TIP3    H265846   4.139   0.501  16.051 -0.1360 -0.7150 -0.5154
14811TIP3   OH265847   1.721   0.718  13.283  0.0179 -0.3001  0.1609
14811TIP3    H165848   1.680   0.773  13.350 -0.5954 -2.6269  1.8470
14811TIP3    H265849   1.664   0.727  13.207 -0.9728  0.1334  0.9294
14812TIP3   OH265850   1.525   0.052  16.840  0.0030 -0.2300 -0.0989
14812TIP3    H165851   1.488   0.010  16.762  1.3003  0.7441 -1.3026
14812TIP3    H265852   1.537   0.143  16.815  0.3326  0.1372  1.2976
14813TIP3   OH265853   6.252   2.037   1.387  0.0200  0.2107 -0.5223
14813TIP3    H165854   6.329   2.015   1.439  0.5210  0.3814 -1.1726
14813TIP3    H265855   6.180   1.991   1.429  0.4274  0.2763  0.2655
14814TIP3   OH265856   3.051   4.491  15.969 -0.4732 -0.0531 -0.1738
14814TIP3    H165857   3.146   4.478  15.974 -0.0302  0.4509 -4.0243
14814TIP3    H265858   3.041   4.586  15.975 -0.9023 -0.1702  1.2823
14815TIP3   OH265859   0.779   3.959  15.883  0.6823 -0.8807  0.6653
14815TIP3    H165860   0.815   3.873  15.903  0.6332 -0.6433  1.8034
14815TIP3    H265861   0.791   3.968  15.788 -0.5691 -2.7129  0.2711
14816TIP3   OH265862   2.460   2.670  10.803  0.1687  0.0585 -0.1092
14816TIP3    H165863   2.442   2.739  10.866  0.2699 -0.3637  0.3878
14816TIP3    H265864   2.393   2.681  10.735  0.3161  0.7674 -0.1449
14817TIP3   OH265865   5.780   3.015  12.292  0.0008  0.2526 -0.8930
14817TIP3    H165866   5.775   3.012  12.196  2.3380  2.6841 -1.2427
14817TIP3    H265867   5.854   3.073  12.309 -0.5787  0.1883  2.4229
14818TIP3   OH265868   6.546   6.634  14.275 -0.0871 -0.1595 -0.2725
14818TIP3    H165869   6.565   6.542  14.294  0.9514  0.3992  1.7242
14818TIP3    H265870   6.604   6.655  14.202 -0.2051 -1.0234 -0.6338
14819TIP3   OH265871   0.084   0.374  15.808  0.5667  0.2814 -0.7412
14819TIP3    H165872   0.110   0.394  15.719 -1.4937  1.2902 -1.1726
14819TIP3    H265873   0.095   0.279  15.815  0.6129  0.1644 -2.1291
14820TIP3   OH265874   0.462   4.873  15.968 -1.1066  0.3197 -0.4633
14820TIP3    H165875   0.529   4.814  15.933  0.2136  1.7156 -0.3653
14820TIP3    H265876   0.485   4.884  16.060 -2.6660 -0.7561  0.0925
14821TIP3   OH265877   2.117   6.069   2.476  0.0729  0.0506 -0.2620
14821TIP3    H165878   2.204   6.032   2.491 -0.3696 -1.0996 -0.4008
14821TIP3    H265879   2.133   6.157   2.442  1.1660  0.0770  0.2827
14822TIP3   OH265880   0.478   4.206   4.652 -0.2092  0.1359 -0.1385
14822TIP3    H165881   0.452   4.268   4.583 -0.3831  0.5476  0.2933
14822TIP3    H265882   0.417   4.133   4.642 -0.6197  0.4596 -0.0434
14823TIP3   OH265883   5.709   1.323  15.114  0.0363 -0.1954  0.7009
14823TIP3    H165884   5.635   1.262  15.112 -0.4703  0.4209 -0.1556
14823TIP3    H265885   5.780   1.276  15.071 -1.1722  0.7701 -2.6938
14824TIP3   OH265886   3.650   0.060  12.535  0.2177  0.7860 -0.2827
14824TIP3    H165887   3.555   0.074  12.543 -0.0871 -0.7824 -0.8076
14824TIP3    H265888   3.669   0.079  12.443  0.4474  1.1970 -0.1553
14825TIP3   OH265889   5.011   6.477  11.620 -0.3703 -0.6355  0.1201
14825TIP3    H165890   5.016   6.478  11.716 -0.3615 -1.1438  0.1246
14825TIP3    H265891   5.018   6.569  11.595  0.0743 -0.5385  0.5874
14826TIP3   OH265892   1.659   5.668   4.694  0.0002 -0.1286 -0.5353
14826TIP3    H165893   1.668   5.604   4.623  2.2098 -0.2626 -0.2064
14826TIP3    H265894   1.664   5.753   4.650  2.0107 -0.2045 -0.5492
14827TIP3   OH265895   3.636   3.363   4.578 -0.1398  0.0359 -0.0792
14827TIP3    H165896   3.714   3.411   4.552 -0.4562  0.3253 -0.5219
14827TIP3    H265897   3.668   3.287   4.626  0.5536 -1.1340 -2.2746
14828TIP3   OH265898   6.151   0.618  14.779  0.0485  0.0439 -0.0758
14828TIP3    H165899   6.065   0.654  14.757  1.0981  1.8276 -1.4458
14828TIP3    H265900   6.192   0.686  14.833  0.5467 -0.8968  0.7699
14829TIP3   OH265901   2.662   1.626  13.306 -0.0488  0.1149 -0.3423
14829TIP3    H165902   2.661   1.635  13.401 -1.4602  1.2740 -0.4374
14829TIP3    H265903   2.570   1.617  13.281  0.2403  0.5176 -1.6419
14830TIP3   OH265904   6.532   4.379   0.855  0.2358  0.2668  0.0066
14830TIP3    H165905   6.614   4.403   0.813 -1.1022  1.9786 -1.8548
14830TIP3    H265906   6.534   4.283   0.859  2.0210  0.2350 -0.5879
14831TIP3   OH265907   4.317   4.163   1.865  0.0359 -0.0270  0.5287
14831TIP3    H165908   4.232   4.194   1.895  0.8981  0.7489  2.3323
14831TIP3    H265909   4.346   4.231   1.803 -0.4520 -0.0798  0.2329
14832TIP3   OH265910   5.461   0.528  14.444  0.4866 -0.4288 -0.1109
14832TIP3    H165911   5.536   0.491  14.490  0.0868 -2.6012 -1.0958
14832TIP3    H265912   5.485   0.523  14.352 -0.0243  0.8676 -0.3317
14833TIP3   OH265913   1.043   0.954  14.363 -0.2052 -0.0708  0.0701
14833TIP3    H165914   1.087   1.000  14.292  1.3957 -0.0283  1.0479
14833TIP3    H265915   0.951   0.982  14.356  0.2691  1.3827 -0.8147
14834TIP3   OH265916   0.094   1.051   5.510 -0.3702 -0.0694 -0.1963
14834TIP3    H165917   0.147   1.104   5.570  1.8248  0.1921 -2.2069
14834TIP3    H265918   0.041   1.115   5.462 -2.0002 -0.2651  1.2461
14835TIP3   OH265919   2.122   0.161  11.504  0.3277 -0.7585  0.7175
14835TIP3    H165920   2.144   0.126  11.417 -0.1421  0.2796  0.1701
14835TIP3    H265921   2.041   0.116  11.528  0.0491 -0.4862  0.2856
14836TIP3   OH265922   2.722   6.424   4.507 -0.1584 -0.3182 -0.5558
14836TIP3    H165923   2.756   6.484   4.441 -1.4342 -1.0087 -1.9028
14836TIP3    H265924   2.791   6.419   4.574  0.0073  2.5755 -0.4068
14837TIP3   OH265925   3.701   0.111  12.271 -0.1140 -0.0002  0.4169
14837TIP3    H165926   3.613   0.136  12.246  0.4693  0.3923 -1.3620
14837TIP3    H265927   3.726   0.041  12.210  2.1420  2.4742 -1.7631
14838TIP3   OH265928   2.492   4.185  12.435  0.5333 -0.0724  0.7768
14838TIP3    H165929   2.524   4.111  12.488  2.4779 -0.0059 -0.2144
14838TIP3    H265930   2.451   4.243  12.498 -0.3939 -1.6571  1.6866
14839TIP3   OH265931   1.595   0.920  14.629  0.6752  0.0359  0.1763
14839TIP3    H165932   1.660   0.959  14.687  2.0945 -0.1628 -1.2147
14839TIP3    H265933   1.606   0.825  14.642  1.5171 -0.0330 -0.9123
14840TIP3   OH265934   0.499   4.102  13.763 -0.2989  0.3406 -0.1457
14840TIP3    H165935   0.520   4.010  13.780  0.5466  0.5621  0.0867
14840TIP3    H265936   0.516   4.114  13.670  0.6012  0.4958  0.0215
14841TIP3   OH265937   5.483   1.186  15.036  0.3383 -0.2138  0.5311
14841TIP3    H165938   5.461   1.214  14.947  2.6423  1.2916  0.3294
14841TIP3    H265939   5.548   1.117  15.024  0.5780 -0.0791  1.0344
14842TIP3   OH265940   6.222   3.070  16.737  0.2186 -0.3824  0.7506
14842TIP3    H165941   6.264   3.103  16.657  1.3216 -3.5242 -0.1222
14842TIP3    H265942   6.260   3.122  16.807  1.4840  0.4749 -0.5062
14843TIP3   OH265943   3.390   6.553  16.229 -0.5482  0.1071  0.0752
14843TIP3    H165944   3.352   6.512  16.307  1.7718 -0.7174  0.8734
14843TIP3    H265945   3.361   6.499  16.156 -1.7779  0.1717  0.5042
14844TIP3   OH265946   4.177   4.479   4.585 -0.3429  0.1262  0.0792
14844TIP3    H165947   4.256   4.533   4.588  1.3905 -2.2008 -0.0787
14844TIP3    H265948   4.149   4.483   4.494  0.7468 -0.4695 -0.3070
14845TIP3   OH265949   6.745   2.570  10.489  0.1906 -1.0289 -0.1867
14845TIP3    H165950   6.719   2.620  10.412  1.5876  3.5365  1.9546
14845TIP3    H265951   6.665   2.561  10.541 -0.1994 -1.7649 -0.8788
14846TIP3   OH265952   1.523   6.166  17.148  0.4231 -0.1689  0.1459
14846TIP3    H165953   1.584   6.094  17.129 -0.8903 -1.0591 -0.8618
14846TIP3    H265954   1.437   6.125  17.147 -0.4624  1.5823 -1.4076
14847TIP3   OH265955   0.480   5.196   4.346  0.8992 -0.5147  0.3627
14847TIP3    H165956   0.492   5.252   4.269 -0.2668  0.8852  1.1589
14847TIP3    H265957   0.479   5.257   4.420 -1.0184 -1.4842  1.2092
14848TIP3   OH265958   5.649   3.776   6.350 -0.1274 -0.7869  0.8890
14848TIP3    H165959   5.643   3.814   6.438  0.8229 -0.7253  0.9343
14848TIP3    H265960   5.562   3.738   6.335 -1.2282  1.6490  0.7095
14849TIP3   OH265961   0.777   5.773  14.683  0.3268  0.3136  0.8300
14849TIP3    H165962   0.746   5.827  14.609  0.7364  1.7644  1.6759
14849TIP3    H265963   0.698   5.730  14.715  0.0422  0.1183 -0.0834
14850TIP3   OH265964   1.866   4.669   5.684  0.0756  0.3486 -0.2177
14850TIP3    H165965   1.923   4.599   5.651 -0.2784 -0.5724  1.0370
14850TIP3    H265966   1.927   4.734   5.720  0.3950  0.5152 -1.0322
14851TIP3   OH265967   5.080   0.332   4.077  0.2071  0.8223  0.5906
14851TIP3    H165968   5.093   0.246   4.117 -0.1056  1.9221  3.2719
14851TIP3    H265969   5.008   0.319   4.016 -1.3508 -0.3961  2.5723
14852TIP3   OH265970   1.267   2.412   4.764  0.3262 -0.0895  0.3990
14852TIP3    H165971   1.265   2.455   4.850  1.2137  0.5624  0.1133
14852TIP3    H265972   1.192   2.353   4.764  0.5035 -0.3377  1.7531
14853TIP3   OH265973   2.719   4.891  11.570 -0.3044 -0.4864 -0.1646
14853TIP3    H165974   2.715   4.850  11.484 -0.2336 -1.0166  0.0821
14853TIP3    H265975   2.773   4.969  11.557 -2.1773  0.7341 -1.1238
14854TIP3   OH265976   0.668   5.936   4.384 -0.6018  0.3924 -0.1192
14854TIP3    H165977   0.749   5.987   4.388 -0.1144 -0.3046 -0.7750
14854TIP3    H265978   0.598   6.001   4.394  0.0342  0.9716  0.6887
14855TIP3   OH265979   5.779   2.745  13.201  0.2432 -0.2363 -0.4871
14855TIP3    H165980   5.779   2.837  13.178 -1.4531 -0.4385 -1.4248
14855TIP3    H265981   5.826   2.741  13.285  0.1104  1.4945 -0.3064
14856TIP3   OH265982   5.953   0.206  12.912  0.0415 -0.0950  0.2880
14856TIP3    H165983   5.982   0.258  12.837 -0.2111 -1.3640 -0.7194
14856TIP3    H265984   5.986   0.254  12.988 -1.3871  2.3193 -0.4764
14857TIP3   OH265985   3.178   4.527  10.724 -0.0665  0.1435 -0.0778
14857TIP3    H165986   3.218   4.514  10.810 -1.0091  1.1560  0.5289
14857TIP3    H265987   3.252   4.553  10.668  0.6859 -1.2318  0.2070
14858TIP3   OH265988   3.602   5.281  12.039  0.4787 -0.3709  0.0120
14858TIP3    H165989   3.527   5.221  12.036 -0.9545  1.3445  0.1105
14858TIP3    H265990   3.564   5.366  12.060  2.7382  0.1563  2.4207
14859TIP3   OH265991   1.494   6.621   0.331 -0.1213  0.2506  0.2732
14859TIP3    H165992   1.523   6.686   0.267 -2.0506 -1.0253 -2.0656
14859TIP3    H265993   1.569   6.561   0.339  0.8704  1.5185  0.7996
14860TIP3   OH265994   4.073   2.095   1.760 -0.3656  0.2480  0.2899
14860TIP3    H165995   4.108   2.115   1.673  2.3089 -0.3863  1.1376
14860TIP3    H265996   4.085   2.001   1.769 -0.0231  0.4036  1.5845
14861TIP3   OH265997   0.877   2.523   4.076  0.4136  0.0349 -0.2000
14861TIP3    H165998   0.968   2.492   4.075  0.8301  0.9422  2.6344
14861TIP3    H265999   0.883   2.614   4.048  0.7312  0.6953  1.8320
14862TIP3   OH266000   5.315   4.351  11.393  0.4256  0.4477 -0.0574
14862TIP3    H166001   5.402   4.338  11.355  0.6530 -2.0118  1.1103
14862TIP3    H266002   5.268   4.271  11.372 -1.0004  1.0247  0.8149
14863TIP3   OH266003   0.642   3.777  12.511 -0.1788  0.6329 -0.5213
14863TIP3    H166004   0.599   3.704  12.466 -1.8314  0.8620  0.5940
14863TIP3    H266005   0.661   3.743  12.599  0.0786  1.1938 -0.3538
14864TIP3   OH266006   0.997   5.181   5.356 -0.0812  0.1837 -0.5835
14864TIP3    H166007   0.982   5.221   5.441  3.7533  1.1152 -0.1683
14864TIP3    H266008   0.982   5.252   5.293 -0.1475  0.2690 -0.4714
14865TIP3   OH266009   1.813   3.999   5.514  0.5244  0.5984  0.0386
14865TIP3    H166010   1.731   4.049   5.519  1.3001  2.0397 -0.9682
14865TIP3    H266011   1.804   3.948   5.433  0.1939 -0.0673  0.4871
14866TIP3   OH266012   5.178   3.331   0.472 -0.2815  0.6620 -0.1437
14866TIP3    H166013   5.251   3.306   0.415 -0.6537  0.8257 -0.7043
14866TIP3    H266014   5.216   3.392   0.535 -0.0392  1.1478 -0.7484
14867TIP3   OH266015   4.097   5.018  10.681  0.2192  0.3513 -0.4004
14867TIP3    H166016   4.145   4.990  10.604 -0.4692 -0.3105 -0.6121
14867TIP3    H266017   4.018   5.059  10.647  0.2031  0.6073 -0.0592
14868TIP3   OH266018   0.874   4.960   6.092  0.0512 -0.7010 -0.6097
14868TIP3    H166019   0.926   4.881   6.103 -1.0495 -1.3093  0.4219
14868TIP3    H266020   0.912   5.003   6.015  1.3211 -1.6933 -0.5661
14869TIP3   OH266021   6.195   2.761  10.258 -0.0202 -0.0823  0.9362
14869TIP3    H166022   6.120   2.816  10.239 -1.6242 -2.2272  0.6507
14869TIP3    H266023   6.166   2.672  10.237  0.8784 -1.6808  5.2687
14870TIP3   OH266024   4.290   5.323   1.303  0.2957 -0.3434 -0.8380
14870TIP3    H166025   4.330   5.294   1.385  0.3050  1.2971 -0.2236
14870TIP3    H266026   4.364   5.352   1.249  0.1209  0.8468 -0.4638
14871TIP3   OH266027   1.402   4.901  15.445  0.1049 -0.1978 -0.9447
14871TIP3    H166028   1.419   4.901  15.539 -1.4302  1.1597 -0.6319
14871TIP3    H266029   1.415   4.810  15.418  1.7377 -0.3919  0.3224
14872TIP3   OH266030   4.538   6.267  15.918  0.6381  0.0395 -0.5417
14872TIP3    H166031   4.493   6.251  15.835  0.0836  1.4235 -0.5221
14872TIP3    H266032   4.593   6.344  15.901 -2.0542  2.5460  1.2674
14873TIP3   OH266033   3.900   0.220  17.037  0.2414  0.3817 -0.1117
14873TIP3    H166034   3.805   0.207  17.038  0.3202 -0.2768 -0.1193
14873TIP3    H266035   3.923   0.241  17.127  0.0978  0.4363 -0.0893
14874TIP3   OH266036   0.440   2.762   0.211 -0.3402 -0.1543  0.4023
14874TIP3    H166037   0.466   2.753   0.303  0.4535 -2.1611  0.0415
14874TIP3    H266038   0.407   2.675   0.187 -0.7870  0.4163 -1.1367
14875TIP3   OH266039   1.750   0.391   2.621  0.5549 -0.7782 -0.3831
14875TIP3    H166040   1.674   0.332   2.627  0.4146 -0.5155  0.4479
14875TIP3    H266041   1.807   0.364   2.692  0.7972 -0.3342 -0.4063
14876TIP3   OH266042   0.922   2.514  17.029  0.5243 -0.6974 -0.2492
14876TIP3    H166043   0.985   2.446  17.004  2.1453  0.9146 -0.7832
14876TIP3    H266044   0.974   2.577  17.079  0.3419  2.5788 -3.7480
14877TIP3   OH266045   3.394   0.125  14.237  0.0123 -0.0178 -0.0319
14877TIP3    H166046   3.406   0.220  14.226  1.2111 -0.1830 -0.2640
14877TIP3    H266047   3.479   0.087  14.216 -0.7110 -1.2435 -0.8815
14878TIP3   OH266048   6.369   0.886  11.471  0.2601 -0.0418 -0.2108
14878TIP3    H166049   6.295   0.880  11.532  1.0528  0.6862  0.8550
14878TIP3    H266050   6.434   0.826  11.507  1.5115  1.8508  0.8382
14879TIP3   OH266051   0.120   4.708  13.117  0.7687 -0.5563  0.0260
14879TIP3    H166052   0.079   4.787  13.152  0.2197 -1.2932  1.1062
14879TIP3    H266053   0.090   4.637  13.175  0.2498 -1.7577 -1.6291
14880TIP3   OH266054   3.558   0.791   2.676  0.9050  0.1255 -0.0061
14880TIP3    H166055   3.552   0.794   2.771 -1.0430  1.1733 -0.0890
14880TIP3    H266056   3.585   0.880   2.651  1.5736 -0.1905 -0.4333
14881TIP3   OH266057   0.723   0.744   0.296 -0.5883  0.5755 -0.5583
14881TIP3    H166058   0.794   0.784   0.245 -1.3295  0.7910 -1.4520
14881TIP3    H266059   0.664   0.817   0.315 -0.7561  0.3337 -0.1473
14882TIP3   OH266060   3.336   1.676   4.259  0.4086 -0.3609 -0.0110
14882TIP3    H166061   3.328   1.621   4.337  1.2378 -0.8249 -0.2396
14882TIP3    H266062   3.254   1.724   4.255  0.1354 -0.7388  0.8419
14883TIP3   OH266063   3.195   2.454   0.087 -0.1339  0.6784 -0.3067
14883TIP3    H166064   3.191   2.408   0.003  1.4800  0.1776 -0.1411
14883TIP3    H266065   3.201   2.546   0.064  1.4675  0.4740 -0.8083
14884TIP3   OH266066   4.217   3.141   4.235  0.5015 -0.3744  0.0838
14884TIP3    H166067   4.165   3.210   4.277  0.4569 -0.6657  0.5214
14884TIP3    H266068   4.283   3.188   4.184  1.6548  0.0301  1.8420
14885TIP3   OH266069   1.734   6.132  11.583  0.6428 -0.0328  0.5311
14885TIP3    H166070   1.767   6.189  11.513 -1.1055  1.7215  1.0499
14885TIP3    H266071   1.772   6.168  11.663 -1.4051  1.2306  0.9944
14886TIP3   OH266072   6.017   6.158   2.314  0.1591 -0.1409  0.3772
14886TIP3    H166073   6.062   6.240   2.336  0.2724  0.1372 -0.8016
14886TIP3    H266074   6.046   6.095   2.379 -0.1260  0.8259  1.4638
14887TIP3   OH266075   0.830   4.507   2.002  0.4347 -0.1583 -0.3484
14887TIP3    H166076   0.765   4.540   1.940 -0.5479 -1.2915  0.0249
14887TIP3    H266077   0.807   4.414   2.014  0.6204 -0.0034  1.6525
14888TIP3   OH266078   0.486   0.417  15.794  0.4023 -0.0388 -0.3132
14888TIP3    H166079   0.441   0.332  15.795  2.6709 -1.3503  1.1267
14888TIP3    H266080   0.555   0.407  15.860  0.1417  3.3135  0.6266
14889TIP3   OH266081   1.299   2.121   3.645  0.2072  0.1355  0.5026
14889TIP3    H166082   1.288   2.182   3.718 -0.0424  0.2293  0.3879
14889TIP3    H266083   1.391   2.096   3.649  0.6056  1.4177 -0.1604
14890TIP3   OH266084   5.110   2.560  10.803  0.1294 -0.3853  0.1115
14890TIP3    H166085   5.200   2.550  10.834  1.1726 -1.8896 -3.0084
14890TIP3    H266086   5.085   2.648  10.832  3.3969  0.9859 -0.7143
14891TIP3   OH266087   3.058   6.036   1.221 -0.0475 -0.0139  0.5297
14891TIP3    H166088   2.979   5.982   1.223  0.5224 -0.8849  0.2029
14891TIP3    H266089   3.065   6.066   1.130 -0.2452  0.4452  0.6617
14892TIP3   OH266090   2.787   3.782  14.073  0.2020  0.0707  0.0942
14892TIP3    H166091   2.825   3.855  14.025  0.0988 -0.5294 -0.9239
14892TIP3    H266092   2.695   3.805  14.085 -0.0406 -0.2610 -0.9998
14893TIP3   OH266093   5.069   2.889  12.053  0.4187  0.1707 -0.4828
14893TIP3    H166094   5.112   2.949  12.114 -0.6014 -0.1179  0.5398
14893TIP3    H266095   5.108   2.804  12.073  0.3201  0.1305 -0.4643
14894TIP3   OH266096   4.933   3.108   2.788  0.0169 -0.0027  0.4667
14894TIP3    H166097   5.011   3.163   2.786 -0.0719  0.0954 -0.8788
14894TIP3    H266098   4.878   3.147   2.857 -0.4876  2.2310 -1.0858
14895TIP3   OH266099   5.352   5.397  15.214 -0.2460 -0.4988  0.4370
14895TIP3    H166100   5.278   5.336  15.205 -0.6867  0.1396 -0.5454
14895TIP3    H266101   5.327   5.454  15.286 -0.9776  0.0549 -0.2424
14896TIP3   OH266102   2.416   5.627  15.879  0.5174  0.0138  0.0691
14896TIP3    H166103   2.417   5.593  15.968  1.0487 -1.6231 -0.5207
14896TIP3    H266104   2.324   5.646  15.861  0.0232 -2.1860  0.0707
14897TIP3   OH266105   5.387   6.042  15.545 -0.1333  0.5837 -0.1329
14897TIP3    H166106   5.448   6.095  15.597  1.0033  0.8344 -1.6619
14897TIP3    H266107   5.335   5.996  15.610  0.6956  1.4880  1.2369
14898TIP3   OH266108   2.379   3.337  17.192  0.6307  0.2442 -0.0793
14898TIP3    H166109   2.372   3.347  17.097  0.5273  0.7283 -0.0232
14898TIP3    H266110   2.466   3.297  17.205  0.4484 -0.2678 -0.4026
14899TIP3   OH266111   1.974   4.585  13.609  0.2889 -0.0366  0.1573
14899TIP3    H166112   2.046   4.559  13.666 -0.6820 -2.5760  0.3648
14899TIP3    H266113   1.896   4.576  13.664 -0.5341 -1.1362 -1.1451
14900TIP3   OH266114   2.285   1.128   0.458  0.3499  0.0418 -0.3646
14900TIP3    H166115   2.204   1.172   0.483 -1.2332 -1.8609 -1.7428
14900TIP3    H266116   2.297   1.149   0.366  1.2597  0.0493 -0.2560
14901TIP3   OH266117   4.058   6.120   0.459  0.0667  0.0949  0.0118
14901TIP3    H166118   4.022   6.194   0.507 -0.2162  0.6901 -1.0939
14901TIP3    H266119   3.983   6.066   0.437  0.3448 -0.9729  1.4892
14902TIP3   OH266120   0.533   6.562   4.636  0.5127 -0.4733  0.3201
14902TIP3    H166121   0.478   6.631   4.600 -1.7029 -0.8917  2.6550
14902TIP3    H266122   0.475   6.487   4.646  1.9425 -1.5224  1.1965
14903TIP3   OH266123   2.728   4.567  14.723 -0.4874  0.3901 -0.5231
14903TIP3    H166124   2.765   4.487  14.684  0.1814 -0.0742  0.9508
14903TIP3    H266125   2.744   4.635  14.659  0.6401 -0.3201 -1.0310
14904TIP3   OH266126   1.174   1.614  12.802  0.0954 -0.1600 -0.0122
14904TIP3    H166127   1.153   1.524  12.775 -2.0121  0.2870 -0.0981
14904TIP3    H266128   1.234   1.646  12.735  2.9970 -2.2539  1.3640
14905TIP3   OH266129   1.096   4.435   0.525  0.3063 -0.0636 -0.2032
14905TIP3    H166130   1.160   4.478   0.582 -0.1519  0.0263  0.2559
14905TIP3    H266131   1.136   4.351   0.503  0.4858 -0.1057  0.2700
14906TIP3   OH266132   4.039   1.187  12.125 -0.1518 -0.0018 -0.2118
14906TIP3    H166133   4.001   1.108  12.086  1.5830 -1.0320  0.0645
14906TIP3    H266134   4.045   1.167  12.218  2.9932 -0.8412 -0.4774
14907TIP3   OH266135   1.390   5.391  15.778  0.0752  0.4140  0.0093
14907TIP3    H166136   1.446   5.450  15.829  0.1155  0.5481 -0.1917
14907TIP3    H266137   1.450   5.338  15.726  0.1411 -0.8910  1.3257
14908TIP3   OH266138   2.223   5.722   6.530 -0.3980  0.4703  0.3789
14908TIP3    H166139   2.171   5.762   6.461 -2.5341 -1.0506  1.0200
14908TIP3    H266140   2.161   5.707   6.601  1.4137  0.6152  2.0835
14909TIP3   OH266141   4.288   0.522  12.221 -0.2950 -0.1026  0.4505
14909TIP3    H166142   4.352   0.589  12.198 -0.5027  0.5796  1.7376
14909TIP3    H266143   4.337   0.460  12.276 -0.3246 -0.5088  0.0190
14910TIP3   OH266144   2.288   1.035  14.726  0.1164  0.1388  0.0698
14910TIP3    H166145   2.370   1.062  14.768  0.4529 -1.3324  0.4248
14910TIP3    H266146   2.222   1.042  14.796  0.4310 -1.0731  0.5029
14911TIP3   OH266147   3.331   3.260  14.332 -0.0242  0.3984 -0.1019
14911TIP3    H166148   3.403   3.316  14.305  1.4602 -0.7945  1.2206
14911TIP3    H266149   3.342   3.179  14.281  1.3562 -0.9068  2.1200
14912TIP3   OH266150   4.384   0.874  11.507  0.9219 -0.2258  0.7041
14912TIP3    H166151   4.313   0.811  11.494  1.3831 -0.4270 -1.1232
14912TIP3    H266152   4.448   0.828  11.561  0.0318 -0.3188  1.7080
14913TIP3   OH266153   1.396   5.785   6.301  0.0493  0.7075  0.0822
14913TIP3    H166154   1.430   5.722   6.364  2.2354  3.2043  1.5945
14913TIP3    H266155   1.434   5.759   6.217 -0.9115 -1.2191  0.1939
14914TIP3   OH266156   6.189   2.602   3.350 -0.2099 -0.0692  0.0742
14914TIP3    H166157   6.236   2.586   3.268 -0.6477  1.1096 -0.4380
14914TIP3    H266158   6.177   2.697   3.352  1.4189  0.1535  2.4238
14915TIP3   OH266159   3.836   2.644   1.206  0.4153 -0.2002 -0.2678
14915TIP3    H166160   3.878   2.587   1.141  1.6553  0.6935 -0.2741
14915TIP3    H266161   3.811   2.722   1.156 -2.6252 -1.2362 -0.5976
14916TIP3   OH266162   2.611   0.686   2.214 -0.4429  0.4294  0.0696
14916TIP3    H166163   2.537   0.679   2.154  1.2691  1.3945 -2.3449
14916TIP3    H266164   2.675   0.623   2.180  1.1154  1.9988 -0.0275
14917TIP3   OH266165   4.993   1.381   6.220  0.1942 -0.3919 -0.1602
14917TIP3    H166166   4.926   1.418   6.277  0.0762  1.3212 -1.3595
14917TIP3    H266167   4.945   1.347   6.144  0.6438  1.0411 -1.1313
14918TIP3   OH266168   5.506   1.454  15.831  0.3788 -0.0205 -0.3823
14918TIP3    H166169   5.553   1.421  15.908 -0.6490  0.8857  0.6774
14918TIP3    H266170   5.531   1.546  15.826  0.3516 -0.0495 -1.0769
14919TIP3   OH266171   3.679   6.608  15.879 -0.5067  0.6259 -0.3422
14919TIP3    H166172   3.765   6.590  15.840 -0.7342  2.5231 -1.8522
14919TIP3    H266173   3.660   6.531  15.932  1.2790 -0.6591 -1.4769
14920TIP3   OH266174   1.809   1.033  14.800  0.0344 -0.0316 -0.3920
14920TIP3    H166175   1.842   1.045  14.889  0.0109  0.9353 -0.5088
14920TIP3    H266176   1.871   1.079  14.745 -0.8090  0.7270 -0.7280
14921TIP3   OH266177   5.185   5.449   0.314 -0.2878 -0.3134 -0.1869
14921TIP3    H166178   5.105   5.409   0.283 -0.5871 -0.0311  0.2049
14921TIP3    H266179   5.157   5.510   0.382 -0.0207  1.6759 -1.7473
14922TIP3   OH266180   4.006   1.376  11.789 -0.2793  0.5984  0.4486
14922TIP3    H166181   4.028   1.468  11.777  0.9356  0.1153 -1.4231
14922TIP3    H266182   4.085   1.329  11.763 -1.2463 -1.0069  0.3093
14923TIP3   OH266183   1.145   3.561   2.675 -0.3522  0.0221 -0.0488
14923TIP3    H166184   1.227   3.608   2.667  0.4437 -1.3560 -0.3145
14923TIP3    H266185   1.146   3.525   2.764 -1.5829  1.5652  0.6550
14924TIP3   OH266186   1.870   1.832   4.112  0.1679  0.3050 -0.5246
14924TIP3    H166187   1.880   1.755   4.056 -0.8233 -0.1399 -0.1182
14924TIP3    H266188   1.900   1.802   4.198  1.0284  0.7813 -0.6428
14925TIP3   OH266189   4.133   4.876   4.731  0.3005 -0.6702 -0.4997
14925TIP3    H166190   4.150   4.944   4.796  1.2311 -0.0326 -1.3778
14925TIP3    H266191   4.203   4.886   4.667 -1.0382 -0.7367 -2.0536
14926TIP3   OH266192   5.355   2.015   5.369 -0.1860 -0.4253  0.2653
14926TIP3    H166193   5.320   2.011   5.458  0.1046  0.8582  0.4552
14926TIP3    H266194   5.422   2.083   5.373  0.6396 -1.1505 -0.6729
14927TIP3   OH266195   0.175   5.509   3.821  0.2182 -0.0788 -0.3313
14927TIP3    H166196   0.152   5.596   3.853  0.8332 -0.3555  0.9276
14927TIP3    H266197   0.261   5.491   3.859 -0.0431 -1.3654 -0.2855
14928TIP3   OH266198   5.649   6.656  17.116 -0.0601 -0.0111  0.3461
14928TIP3    H166199   5.653   6.728  17.178 -0.7497  0.0557  0.3181
14928TIP3    H266200   5.558   6.654  17.086 -0.0200 -0.8031  0.2462
14929TIP3   OH266201   4.552   5.031  16.565 -0.3659 -0.2930  0.4683
14929TIP3    H166202   4.636   5.071  16.585 -0.7170  0.4022  0.5849
14929TIP3    H266203   4.574   4.955  16.512  0.2701  0.5036 -0.4478
14930TIP3   OH266204   2.467   6.737  15.184  0.0976  0.7182 -0.3491
14930TIP3    H166205   2.537   6.711  15.244 -1.6299  0.8446  1.8855
14930TIP3    H266206   2.437   6.655  15.145  1.0346  0.5881 -0.8159
14931TIP3   OH266207   1.220   2.469   0.570 -0.3216 -0.7059 -0.0023
14931TIP3    H166208   1.267   2.448   0.490 -2.1514  0.5087 -1.4849
14931TIP3    H266209   1.260   2.414   0.637  1.4249 -1.5807 -1.6822
14932TIP3   OH266210   3.476   1.718  16.723  0.3030  0.1899 -0.0176
14932TIP3    H166211   3.551   1.756  16.676  1.7949 -1.4679  0.9121
14932TIP3    H266212   3.464   1.632  16.683  0.3797 -0.4812  1.3587
14933TIP3   OH266213   2.334   4.923  15.063  0.7763  0.2800 -0.2908
14933TIP3    H166214   2.255   4.906  15.012 -0.4433  1.2333  1.1811
14933TIP3    H266215   2.364   5.008  15.033  2.7414 -1.1175 -2.5903
14934TIP3   OH266216   4.407   2.847  17.036  0.1288  0.4987 -0.3570
14934TIP3    H166217   4.454   2.768  17.064  0.8399  0.8523 -0.5371
14934TIP3    H266218   4.449   2.872  16.954 -1.5326 -0.1902 -1.4729
14935TIP3   OH266219   0.304   5.258  14.717 -0.3650  0.1358  0.0687
14935TIP3    H166220   0.213   5.231  14.732  0.3044 -1.3870  1.7902
14935TIP3    H266221   0.332   5.206  14.642 -0.7216  0.1684 -0.0901
14936TIP3   OH266222   4.177   0.996  16.306 -0.2934  0.0290  0.2609
14936TIP3    H166223   4.242   0.956  16.364 -0.2762 -0.5132 -0.1252
14936TIP3    H266224   4.227   1.021  16.228 -0.2959  0.8444  0.5130
14937TIP3   OH266225   4.660   1.870   1.828 -0.7328 -0.2870 -0.0832
14937TIP3    H166226   4.679   1.924   1.751 -0.5142 -1.6466 -1.0220
14937TIP3    H266227   4.617   1.930   1.889  0.5234  1.2226 -0.6065
14938TIP3   OH266228   5.419   4.050  11.276 -0.3053 -0.0900  0.5247
14938TIP3    H166229   5.353   4.067  11.210 -1.4109 -0.1827  1.5677
14938TIP3    H266230   5.501   4.041  11.227 -0.7618  1.6982 -0.6492
14939TIP3   OH266231   5.220   1.844  16.148 -0.4295  1.0145  0.4530
14939TIP3    H166232   5.210   1.811  16.058  0.0114 -1.2297  1.1702
14939TIP3    H266233   5.148   1.804  16.196  0.4130  0.6786  1.4645
14940TIP3   OH266234   3.343   2.433   5.690 -1.1918  0.7049 -1.0664
14940TIP3    H166235   3.424   2.402   5.650 -1.3349  1.0448 -1.6343
14940TIP3    H266236   3.362   2.523   5.716 -0.2165 -0.3032  2.1561
14941TIP3   OH266237   3.927   6.439   1.072  0.2241  0.0491 -0.1820
14941TIP3    H166238   3.968   6.525   1.076  0.5143 -0.1137  3.4155
14941TIP3    H266239   3.834   6.457   1.084 -0.0069 -0.0605 -1.5948
14942TIP3   OH266240   5.600   3.388   4.585  0.4951 -0.3615 -0.3843
14942TIP3    H166241   5.526   3.429   4.539 -0.2998 -0.9506  0.3332
14942TIP3    H266242   5.642   3.334   4.517 -0.8192 -1.4183 -0.4142
14943TIP3   OH266243   2.808   4.663  15.406 -0.1628  0.9339  0.5244
14943TIP3    H166244   2.886   4.610  15.423 -0.1023  0.2581 -1.5122
14943TIP3    H266245   2.833   4.720  15.333 -1.6581  0.3991 -0.4659
14944TIP3   OH266246   5.932   1.611  11.782  0.1252  0.6342  0.6158
14944TIP3    H166247   6.011   1.558  11.792  0.5954  0.7852 -1.7860
14944TIP3    H266248   5.865   1.548  11.755 -0.0232  0.8451  0.4914
14945TIP3   OH266249   0.452   3.447  13.235 -0.5869 -0.1685 -0.3591
14945TIP3    H166250   0.384   3.414  13.294 -0.4825 -0.4339 -0.3850
14945TIP3    H266251   0.494   3.368  13.200  1.1346 -0.0220  1.2426
14946TIP3   OH266252   0.316   2.690   1.523 -0.3810  0.6294 -0.2900
14946TIP3    H166253   0.229   2.670   1.490 -0.4276  1.2738 -0.5774
14946TIP3    H266254   0.363   2.724   1.446 -0.0021  0.6558 -0.0493
14947TIP3   OH266255   3.117   6.561  16.984 -0.3004  0.3550  0.1987
14947TIP3    H166256   3.063   6.483  16.971  0.1192  0.2017 -0.6889
14947TIP3    H266257   3.135   6.593  16.896  1.7637 -0.0874  0.4122
14948TIP3   OH266258   3.485   5.423   4.042  0.2650 -0.0012 -0.0742
14948TIP3    H166259   3.526   5.419   3.955  0.2705 -0.6508 -0.0441
14948TIP3    H266260   3.405   5.474   4.028  0.3932  0.1096 -0.4118
14949TIP3   OH266261   3.078   6.017   1.638  0.4004 -0.4084 -0.1383
14949TIP3    H166262   3.066   5.926   1.613 -0.2780 -0.9925  2.0885
14949TIP3    H266263   2.991   6.046   1.665  0.6744  0.8096 -0.5109
14950TIP3   OH266264   0.411   3.019   1.040  0.3398  0.6327  0.6444
14950TIP3    H166265   0.428   3.009   1.134  1.3429  0.3301  0.4461
14950TIP3    H266266   0.497   3.038   1.003  0.1923 -0.6047 -0.3955
14951TIP3   OH266267   4.710   2.103   0.337 -0.0645  0.3597  0.1121
14951TIP3    H166268   4.616   2.115   0.345 -0.3580 -1.8436  0.3729
14951TIP3    H266269   4.741   2.095   0.427  0.5183  1.7396  0.0679
14952TIP3   OH266270   3.554   6.646   2.468  0.6754 -0.3850 -0.1806
14952TIP3    H166271   3.504   6.581   2.518  0.3076  0.9153  1.2051
14952TIP3    H266272   3.597   6.595   2.399 -0.4509 -1.9321  0.2034
14953TIP3   OH266273   4.533   1.252   2.927  0.3864 -0.1352 -0.0850
14953TIP3    H166274   4.475   1.255   3.004 -0.9413 -0.0384 -1.0456
14953TIP3    H266275   4.615   1.217   2.960 -0.7425 -1.9005  1.0198
14954TIP3   OH266276   1.671   6.637   0.012  0.3097  0.0257  0.2676
14954TIP3    H166277   1.612   6.580  -0.037  0.1529  1.7172 -1.6353
14954TIP3    H266278   1.730   6.577   0.058 -0.0748 -1.6815 -1.3627
14955TIP3   OH266279   0.487   4.890  16.588 -0.1738  0.3907 -0.1319
14955TIP3    H166280   0.526   4.940  16.660  1.7468 -1.1768  0.0014
14955TIP3    H266281   0.492   4.949  16.512  1.8012  0.5514  0.0765
14956TIP3   OH266282   5.047   2.650   2.389 -0.2848 -0.0683  0.3453
14956TIP3    H166283   5.072   2.671   2.479 -2.3998  1.4029  0.6792
14956TIP3    H266284   5.117   2.686   2.335 -0.1934  1.2429  1.3051
14957TIP3   OH266285   5.045   5.942   2.430  0.1297 -0.0082  0.0383
14957TIP3    H166286   5.120   5.921   2.486  1.0875  0.9073 -0.8559
14957TIP3    H266287   5.083   5.962   2.345 -1.2935 -1.1851 -0.9104
14958TIP3   OH266288   2.383   1.600   4.426 -0.3194  0.0524  0.1137
14958TIP3    H166289   2.406   1.690   4.403  1.3027 -0.7903 -1.9508
14958TIP3    H266290   2.447   1.575   4.492  1.1049 -0.4022 -1.3539
14959TIP3   OH266291   6.060   4.194  14.254 -0.6899 -0.5098  0.7061
14959TIP3    H166292   6.155   4.196  14.261 -0.6771 -1.4751  0.8970
14959TIP3    H266293   6.032   4.280  14.288  0.0230 -0.7955  2.0939
14960TIP3   OH266294   0.545   1.058   3.890  0.2102  0.0993  0.1476
14960TIP3    H166295   0.528   1.107   3.809  2.4793  0.8285  0.0482
14960TIP3    H266296   0.529   0.967   3.865 -1.0926  0.4743 -0.5190
14961TIP3   OH266297   4.938   0.286  12.069  0.0877  0.3268  0.1108
14961TIP3    H166298   4.934   0.375  12.105 -0.1753 -0.1198  1.2288
14961TIP3    H266299   4.998   0.293  11.994 -1.3645  1.8215 -0.9847
14962TIP3   OH266300   5.883   4.854  12.062 -0.7665 -0.1769 -0.2548
14962TIP3    H166301   5.932   4.908  12.001  1.7068 -2.0332 -0.0788
14962TIP3    H266302   5.948   4.825  12.126 -2.7769 -0.2657  1.8620
14963TIP3   OH266303   6.318   5.967  17.149 -0.2297 -0.3232  0.3633
14963TIP3    H166304   6.247   6.018  17.110  0.2809 -0.9041 -1.4167
14963TIP3    H266305   6.281   5.934  17.232 -2.0836 -0.6936 -0.5552
14964TIP3   OH266306   5.496   3.826   3.404  0.0373 -0.3695 -0.2854
14964TIP3    H166307   5.441   3.761   3.361 -0.4524 -0.2370  0.1332
14964TIP3    H266308   5.456   3.839   3.489  1.0131 -0.6410  0.2282
14965TIP3   OH266309   5.630   4.306  15.021 -0.6064 -0.1642 -0.5122
14965TIP3    H166310   5.620   4.228  15.074 -1.1030  0.6360  0.6112
14965TIP3    H266311   5.564   4.296  14.951  0.6457 -1.6248 -1.5438
14966TIP3   OH266312   6.594   5.318  12.089 -0.1712 -0.1308  0.3759
14966TIP3    H166313   6.563   5.389  12.033 -0.6183 -1.2773 -0.8745
14966TIP3    H266314   6.528   5.249  12.079 -0.0766 -0.5048  2.0560
14967TIP3   OH266315   1.294   2.039   5.938 -0.4780  0.1308 -0.0960
14967TIP3    H166316   1.361   1.997   5.992 -0.1776  1.2563  0.4456
14967TIP3    H266317   1.310   2.007   5.850  0.0386 -0.5150  0.2268
14968TIP3   OH266318   5.136   2.904  11.647 -0.0003 -0.2584  0.1135
14968TIP3    H166319   5.222   2.921  11.607 -0.8224  0.0011 -1.6543
14968TIP3    H266320   5.116   2.985  11.696  0.8830 -0.4472  0.8108
14969TIP3   OH266321   6.602   0.686   3.134  0.3476  0.1550  0.0327
14969TIP3    H166322   6.591   0.675   3.229 -0.1985 -0.2858 -0.0756
14969TIP3    H266323   6.607   0.596   3.100  0.5362  0.3103 -0.3590
14970TIP3   OH266324   6.791   1.906  12.550 -0.3099 -0.1519  0.0935
14970TIP3    H166325   6.774   1.997  12.574 -1.5775 -0.2190 -0.5016
14970TIP3    H266326   6.846   1.912  12.472 -0.5822  0.1085 -0.0792
14971TIP3   OH266327   0.056   1.119   5.107  0.0555  0.2171  0.2171
14971TIP3    H166328   0.036   1.167   5.187  0.2958 -0.6598  0.8155
14971TIP3    H266329   0.000   1.159   5.040 -0.9162  0.2673  1.0403
14972TIP3   OH266330   2.202   2.048  11.702  0.6683 -0.1528  0.2444
14972TIP3    H166331   2.132   2.100  11.662 -0.1593 -0.4152  1.3104
14972TIP3    H266332   2.259   2.113  11.743 -0.2318 -0.0244  1.3638
14973TIP3   OH266333   2.404   0.930  14.483  0.0907  0.5213 -0.0275
14973TIP3    H166334   2.345   0.855  14.482  0.0674  0.5454 -1.1790
14973TIP3    H266335   2.371   0.986  14.554  0.9330 -1.1848  1.8213
14974TIP3   OH266336   5.167   5.769  13.013 -0.2487 -0.1047  0.5595
14974TIP3    H166337   5.142   5.812  13.094 -0.7269  0.0882  0.3149
14974TIP3    H266338   5.085   5.761  12.964 -0.1616 -1.2536  0.5810
14975TIP3   OH266339   2.520   1.923   0.033 -0.0788 -0.0505  0.5147
14975TIP3    H166340   2.583   1.911   0.104  0.7667 -0.0952 -0.2117
14975TIP3    H266341   2.538   2.011  -0.000 -0.4349 -0.0451  0.3352
14976TIP3   OH266342   0.677   3.909   0.717 -0.2971 -0.1252  0.1078
14976TIP3    H166343   0.653   3.859   0.639  0.0529 -0.7517  0.3982
14976TIP3    H266344   0.768   3.886   0.734  0.0300  0.9758 -0.0240
14977TIP3   OH266345   5.537   5.247   2.678  0.1917 -0.6035 -0.3143
14977TIP3    H166346   5.539   5.343   2.682  0.9151 -0.6498  1.4520
14977TIP3    H266347   5.444   5.225   2.676  0.0212  0.1315 -1.5906
14978TIP3   OH266348   2.372   4.889  15.581  0.0708  0.2849  0.3497
14978TIP3    H166349   2.457   4.844  15.589 -0.4724 -0.6685  1.0058
14978TIP3    H266350   2.354   4.923  15.668  0.4680  1.8220 -0.1409
14979TIP3   OH266351   1.489   3.506  15.653  0.1968 -0.9034 -0.2661
14979TIP3    H166352   1.429   3.577  15.630  0.8432  0.1967  1.2414
14979TIP3    H266353   1.433   3.432  15.674 -0.7335  0.3072  1.7936
14980TIP3   OH266354   0.272   4.938  12.460 -0.2716  0.0409 -0.3181
14980TIP3    H166355   0.365   4.940  12.437  0.0254  0.0528  0.7963
14980TIP3    H266356   0.233   5.010  12.411  0.1994 -0.2992 -1.2126
14981TIP3   OH266357   6.149   2.043   1.001 -0.6790 -0.3737  0.2083
14981TIP3    H166358   6.158   1.957   1.042  0.5298 -0.6295 -0.5403
14981TIP3    H266359   6.190   2.104   1.062  1.0221 -0.7404 -0.5052
14982TIP3   OH266360   0.242   1.243  13.171  0.2600 -0.0779 -0.3423
14982TIP3    H166361   0.257   1.268  13.262 -0.1391 -0.2891 -0.2159
14982TIP3    H266362   0.152   1.210  13.169 -1.3149  3.7007 -1.5747
14983TIP3   OH266363   0.799   0.745   3.166  0.1698 -0.1597 -0.3161
14983TIP3    H166364   0.835   0.799   3.237 -1.1483  1.6341 -0.9526
14983TIP3    H266365   0.875   0.714   3.118  0.9980  0.3841  0.6123
14984TIP3   OH266366   0.971   2.831  16.309  0.2868 -0.4161  0.4224
14984TIP3    H166367   0.923   2.806  16.388 -0.3919  0.7677  0.3963
14984TIP3    H266368   0.994   2.922  16.323  0.1941 -0.2075 -0.7245
14985TIP3   OH266369   5.297   4.982  14.040  0.2917 -0.2313  0.4095
14985TIP3    H166370   5.253   5.010  13.959 -0.1000 -0.1052  0.6599
14985TIP3    H266371   5.382   4.949  14.011  0.2039 -0.0735 -0.0419
14986TIP3   OH266372   1.242   6.726  16.218 -0.1784  0.2122  0.4259
14986TIP3    H166373   1.329   6.693  16.238  0.8120  1.2608 -1.8285
14986TIP3    H266374   1.185   6.649  16.221  1.2141 -0.8650 -0.1479
14987TIP3   OH266375   6.700   6.397   4.284 -0.3187  0.0748  0.5511
14987TIP3    H166376   6.661   6.392   4.197  3.3315  0.9688 -1.3604
14987TIP3    H266377   6.627   6.416   4.342 -3.0576 -1.3006 -2.1434
14988TIP3   OH266378   5.548   3.469  11.263  0.1573  0.3754 -0.1659
14988TIP3    H166379   5.528   3.379  11.287  0.6848  0.0319 -0.9661
14988TIP3    H266380   5.482   3.522  11.309  0.8266 -0.2698  1.6128
14989TIP3   OH266381   3.375   0.393   0.337  0.2442  0.5395 -0.1260
14989TIP3    H166382   3.409   0.374   0.250 -0.8312  0.5164 -0.5616
14989TIP3    H266383   3.306   0.458   0.322  0.5626  1.1111  0.7996
14990TIP3   OH266384   4.715   1.204  15.941 -0.1733  0.4461  0.1673
14990TIP3    H166385   4.710   1.112  15.913  0.5840  0.3015  0.4985
14990TIP3    H266386   4.648   1.211  16.010  0.5947 -0.1818  1.0026
14991TIP3   OH266387   0.060   2.009  16.539 -0.0938 -0.6873 -0.0479
14991TIP3    H166388   0.081   2.100  16.517 -2.2027  0.1247  0.9884
14991TIP3    H266389   0.039   1.969  16.454 -1.0119  0.3543 -0.3482
14992TIP3   OH266390   0.574   2.726   1.309  0.2475 -0.0689 -0.3455
14992TIP3    H166391   0.567   2.631   1.323  2.3108 -0.1503  0.3681
14992TIP3    H266392   0.645   2.736   1.247  0.9126  1.0570  0.5536
14993TIP3   OH266393   6.311   5.979  12.519 -0.0104 -0.3127  0.3582
14993TIP3    H166394   6.357   6.063  12.515 -1.9185  0.7831 -3.6029
14993TIP3    H266395   6.271   5.978  12.605  2.3229  1.4691  1.6035
14994TIP3   OH266396   4.415   1.574   4.142  0.2644  0.3831  0.2300
14994TIP3    H166397   4.439   1.487   4.174  0.4179  0.7396  1.1090
14994TIP3    H266398   4.359   1.557   4.066 -0.0361 -0.4858  0.6373
14995TIP3   OH266399   5.150   3.392   5.375 -0.8295 -0.2017 -0.1471
14995TIP3    H166400   5.230   3.356   5.414 -0.6128 -0.2090 -0.5981
14995TIP3    H266401   5.087   3.320   5.377 -0.8224 -0.2003  0.1968
14996TIP3   OH266402   2.305   2.218  10.260  0.0723 -0.0839  0.3771
14996TIP3    H166403   2.384   2.235  10.311 -0.0611  2.4193 -0.1441
14996TIP3    H266404   2.303   2.287  10.194 -2.3271 -0.3220  0.0993
14997TIP3   OH266405   5.792   4.669   1.417  0.3942 -0.0144  0.0427
14997TIP3    H166406   5.771   4.701   1.329  0.4658  0.9974  0.3735
14997TIP3    H266407   5.714   4.621   1.444 -0.6307  1.7083  0.3374
14998TIP3   OH266408   1.594   3.033  17.110 -0.4562 -0.1553  0.7327
14998TIP3    H166409   1.651   3.109  17.119  1.3524 -0.7892 -3.1566
14998TIP3    H266410   1.640   2.963  17.155  0.1238  0.0804  0.5104
14999TIP3   OH266411   0.654   5.114  12.742 -0.1459 -0.4008  0.3310
14999TIP3    H166412   0.650   5.111  12.837  1.1013 -1.0285  0.3900
14999TIP3    H266413   0.621   5.029  12.713 -0.3357 -0.2869  0.2070
15000TIP3   OH266414   5.047   1.202   0.188 -0.5136 -0.2076 -0.0648
15000TIP3    H166415   5.103   1.182   0.263 -0.5574 -0.4516 -0.0979
15000TIP3    H266416   5.060   1.296   0.173 -4.0532  1.0626  3.2035
15001TIP3   OH266417   2.283   3.753   1.963  0.1909 -0.7096 -0.2031
15001TIP3    H166418   2.208   3.781   1.911 -0.3888 -0.3410  0.8101
15001TIP3    H266419   2.354   3.811   1.936 -0.2769 -0.0816 -0.1085
15002TIP3   OH266420   2.541   1.890  16.052 -0.2555 -0.1846  0.0085
15002TIP3    H166421   2.595   1.908  15.975  0.4271  0.4145  0.6136
15002TIP3    H266422   2.535   1.974  16.097 -0.3324 -0.6085  0.8070
15003TIP3   OH266423   5.202   6.408   4.781 -0.3857 -0.3514 -0.0188
15003TIP3    H166424   5.113   6.440   4.794 -0.5859 -0.6006 -0.7305
15003TIP3    H266425   5.258   6.481   4.808 -0.7798 -0.5237  1.3177
15004TIP3   OH266426   5.915   4.072   4.538 -0.1994  0.5367 -0.1233
15004TIP3    H166427   5.983   4.004   4.537 -2.4637 -1.8878  0.0229
15004TIP3    H266428   5.918   4.110   4.451  0.6504 -0.2869 -0.4755
15005TIP3   OH266429   1.110   2.928   4.607 -0.4818 -0.1516 -0.1667
15005TIP3    H166430   1.035   2.977   4.641 -0.3195 -0.5767  0.8408
15005TIP3    H266431   1.114   2.849   4.661  1.7370  0.6739  1.0361
15006TIP3   OH266432   6.045   5.267   1.230  0.3958 -0.4468  0.0256
15006TIP3    H166433   5.995   5.279   1.311  2.1435 -1.3230  1.2983
15006TIP3    H266434   6.111   5.336   1.231 -0.4053  0.3950 -1.3912
15007TIP3   OH266435   6.242   1.763   4.200 -0.0983 -0.4228  0.7930
15007TIP3    H166436   6.263   1.784   4.291 -1.1484 -1.0683  1.2005
15007TIP3    H266437   6.308   1.698   4.174  0.0497 -0.4274  1.1837
15008TIP3   OH266438   3.413   4.371  15.838  0.0370 -0.0099  0.0902
15008TIP3    H166439   3.336   4.341  15.790  2.5572 -0.8851 -3.9030
15008TIP3    H266440   3.407   4.467  15.835 -0.6222 -0.0587 -0.6671
15009TIP3   OH266441   4.223   2.668   4.730 -0.5860 -0.3227  0.1078
15009TIP3    H166442   4.142   2.711   4.758 -0.9456 -1.2014  0.4347
15009TIP3    H266443   4.203   2.632   4.644  0.0404  1.0406 -0.6308
15010TIP3   OH266444   2.833   1.184  10.138 -0.2830  0.1830 -0.3069
15010TIP3    H166445   2.804   1.117  10.201  0.1149  2.4543  2.4924
15010TIP3    H266446   2.754   1.235  10.119 -0.0610  0.5406 -0.2826
15011TIP3   OH266447   1.292   6.621   4.526  0.3752  0.0244 -0.0537
15011TIP3    H166448   1.207   6.578   4.531 -0.2636  1.2933  0.4410
15011TIP3    H266449   1.331   6.610   4.612 -1.0511  2.8478  1.0624
15012TIP3   OH266450   5.567   2.028  14.643  0.1167  0.4966 -0.6223
15012TIP3    H166451   5.504   1.956  14.642  3.1647 -2.4949  1.4721
15012TIP3    H266452   5.532   2.090  14.708  0.2431 -2.1811  2.2309
15013TIP3   OH266453   2.612   6.173   3.125 -0.2204  0.3127 -0.2887
15013TIP3    H166454   2.667   6.173   3.046  0.6855 -0.4985  0.3155
15013TIP3    H266455   2.540   6.112   3.104 -1.9800  2.7181 -1.7546
15014TIP3   OH266456   2.806   0.556   4.157  0.5992 -0.8650 -0.2127
15014TIP3    H166457   2.740   0.491   4.134  0.6177 -0.8234 -0.3842
15014TIP3    H266458   2.879   0.537   4.099  0.9231 -1.2135  0.2989
15015TIP3   OH266459   1.195   4.940   5.601 -0.1290  0.1535  0.1694
15015TIP3    H166460   1.187   5.025   5.643  1.2294  0.3473  0.0751
15015TIP3    H266461   1.269   4.898   5.645  0.0423 -0.4525 -0.6649
15016TIP3   OH266462   6.181   5.900   2.289  0.6550  0.3469  0.3847
15016TIP3    H166463   6.170   5.899   2.385  0.9768  1.4102  0.4469
15016TIP3    H266464   6.258   5.845   2.274  1.1895  0.9423  0.8387
15017TIP3   OH266465   5.952   4.009  15.493  0.1206  0.3787 -0.2520
15017TIP3    H166466   5.858   4.028  15.503 -0.1126 -0.9803  0.4476
15017TIP3    H266467   5.960   3.917  15.520  1.6185  0.3998 -0.5663
15018TIP3   OH266468   3.963   0.918  13.811 -0.0474  0.1828 -0.6441
15018TIP3    H166469   3.950   0.989  13.748 -1.1187  0.2086 -0.4203
15018TIP3    H266470   4.053   0.890  13.797 -0.7321 -0.9659 -3.3522
15019TIP3   OH266471   1.439   6.170   5.232  0.0890  0.0741  0.0587
15019TIP3    H166472   1.442   6.255   5.190  2.3080 -0.3879 -0.8452
15019TIP3    H266473   1.348   6.141   5.221 -0.5085  1.9499 -0.2899
15020TIP3   OH266474   5.544   1.412   5.393 -0.2273  0.9204  0.0854
15020TIP3    H166475   5.528   1.501   5.362  0.2488  1.3378  1.0004
15020TIP3    H266476   5.632   1.415   5.431 -0.1750  0.0394  0.0578
15021TIP3   OH266477   1.747   4.170  15.909  0.3531  0.4468 -0.2345
15021TIP3    H166478   1.705   4.164  15.994  1.0853  0.9977  0.1812
15021TIP3    H266479   1.683   4.214  15.853 -0.6084 -1.0208 -0.3141
15022TIP3   OH266480   2.803   0.101  11.312 -0.2994 -0.3432  0.6552
15022TIP3    H166481   2.831   0.057  11.232  0.2802  0.7328  0.2374
15022TIP3    H266482   2.718   0.061  11.333  0.4068 -1.9481  0.5774
15023TIP3   OH266483   1.232   2.350  13.129 -0.3146 -0.7313 -0.1194
15023TIP3    H166484   1.149   2.379  13.091 -0.3494 -1.3083 -0.4893
15023TIP3    H266485   1.208   2.281  13.190 -0.4303  1.1807  2.1490
15024TIP3   OH266486   2.690   6.217   0.187 -0.3471  0.3828 -0.2343
15024TIP3    H166487   2.712   6.147   0.249 -1.4297 -0.0169 -0.2744
15024TIP3    H266488   2.766   6.275   0.188 -0.2033  0.2065  1.2235
15025TIP3   OH266489   1.736   2.791  14.422  0.3658 -0.1167  0.0407
15025TIP3    H166490   1.664   2.852  14.403  0.3251  0.3342  1.5016
15025TIP3    H266491   1.693   2.714  14.459  0.4194 -1.0774 -1.7895
15026TIP3   OH266492   0.448   4.298   3.909  0.0386 -0.1288  0.5984
15026TIP3    H166493   0.449   4.392   3.891 -0.1648 -0.4679 -1.5122
15026TIP3    H266494   0.356   4.273   3.901  0.3293 -0.8273 -1.2039
15027TIP3   OH266495   6.592   0.668   3.407  0.1238  0.4731 -0.2145
15027TIP3    H166496   6.678   0.670   3.447 -0.4661  0.2136  1.1152
15027TIP3    H266497   6.560   0.758   3.414  0.9368  0.9920 -2.2814
15028TIP3   OH266498   2.855   0.548  16.415  0.3286  0.0893 -0.5310
15028TIP3    H166499   2.834   0.489  16.343  1.3302 -0.7980 -0.1356
15028TIP3    H266500   2.923   0.502  16.464 -0.0340  0.8548  0.7405
15029TIP3   OH266501   5.392   0.705  12.174 -0.3108 -0.2331  0.1609
15029TIP3    H166502   5.414   0.649  12.099 -2.9894 -0.1157 -0.8142
15029TIP3    H266503   5.310   0.747  12.149 -0.2534  1.3575  2.3805
15030TIP3   OH266504   0.092   3.749   1.670  0.4459 -0.4261 -0.3356
15030TIP3    H166505   0.025   3.682   1.660 -0.5355  0.4229  0.3527
15030TIP3    H266506   0.175   3.702   1.662 -0.2022 -1.3939 -1.8964
15031TIP3   OH266507   1.276   5.709   4.176 -0.7001  0.3774 -0.3154
15031TIP3    H166508   1.263   5.710   4.081  1.2286 -2.4671 -0.7363
15031TIP3    H266509   1.366   5.741   4.187 -0.2130 -1.1762  0.3431
15032TIP3   OH266510   0.169   5.620  12.504 -0.7349  0.5766 -0.0375
15032TIP3    H166511   0.152   5.612  12.410 -0.9263  3.4832 -0.3367
15032TIP3    H266512   0.107   5.559  12.545  0.3835 -1.8816 -1.7755
15033TIP3   OH266513   0.795   2.443  16.384 -0.3203  0.4055 -0.5189
15033TIP3    H166514   0.733   2.371  16.382  0.3701 -0.1916 -1.4818
15033TIP3    H266515   0.773   2.493  16.463 -0.7368 -0.9180  0.2203
15034TIP3   OH266516   0.238   3.231   6.158 -0.2185  0.2492 -0.0953
15034TIP3    H166517   0.307   3.259   6.219  0.3884 -0.5740 -0.3821
15034TIP3    H266518   0.176   3.183   6.212  1.1056 -1.8529 -0.2969
15035TIP3   OH266519   6.080   4.765  15.465  0.1470 -0.4884  0.1772
15035TIP3    H166520   6.147   4.786  15.531  0.1848 -2.7700  0.9597
15035TIP3    H266521   6.000   4.751  15.516 -1.2448  2.9024 -0.8089
15036TIP3   OH266522   0.652   3.412   2.578  0.0939 -0.1457 -0.1864
15036TIP3    H166523   0.725   3.393   2.518  1.7576  0.2046  1.6141
15036TIP3    H266524   0.680   3.492   2.624 -1.5369  0.0983  0.4189
15037TIP3   OH266525   4.996   0.534  12.206  0.2856  0.6098  0.5250
15037TIP3    H166526   5.052   0.463  12.238  0.2576  1.1195  1.7437
15037TIP3    H266527   5.054   0.586  12.150  1.3532  1.6289  2.4555
15038TIP3   OH266528   0.884   0.977   3.323 -0.1971 -0.3702  0.0897
15038TIP3    H166529   0.901   1.071   3.321  0.7214 -0.5312 -1.1816
15038TIP3    H266530   0.946   0.943   3.387 -1.1501 -0.0149  1.2191
15039TIP3   OH266531   1.621   0.689   2.885  0.5116 -0.7194 -0.0261
15039TIP3    H166532   1.588   0.647   2.965 -2.3546  1.9302  0.4256
15039TIP3    H266533   1.705   0.727   2.911  0.4113 -1.2918  1.2327
15040TIP3   OH266534   5.738   6.315   5.659 -0.1268 -0.0469 -0.3450
15040TIP3    H166535   5.753   6.328   5.565 -0.4118 -0.4611 -0.4528
15040TIP3    H266536   5.739   6.220   5.670  1.0011  0.0274  0.2586
15041TIP3   OH266537   1.916   2.981   1.381 -0.1749  0.2832  0.1263
15041TIP3    H166538   1.833   2.970   1.335  0.0563 -0.2147 -0.1791
15041TIP3    H266539   1.905   3.062   1.431 -1.3430 -0.4894  1.1891
15042TIP3   OH266540   1.141   3.990   5.945  0.3431 -0.1930  0.2716
15042TIP3    H166541   1.136   4.059   5.879  2.6876 -0.6843 -0.5312
15042TIP3    H266542   1.208   4.021   6.006 -1.1200 -0.1835  1.9383
15043TIP3   OH266543   0.020   6.063   3.997  0.3995 -0.1108  0.5523
15043TIP3    H166544  -0.012   6.036   4.083  0.6847 -1.5081  0.2526
15043TIP3    H266545   0.088   5.998   3.975  2.3412  1.8186  0.4735
15044TIP3   OH266546   1.898   5.654  13.617  0.2730  0.1863 -0.5187
15044TIP3    H166547   1.990   5.628  13.623 -0.0825 -0.9623  0.3456
15044TIP3    H266548   1.855   5.605  13.687 -0.8585  1.3743 -0.3512
15045TIP3   OH266549   1.073   2.153  17.174 -0.5066 -0.0656 -0.0486
15045TIP3    H166550   1.066   2.224  17.237  0.4628 -0.8213  0.9658
15045TIP3    H266551   1.134   2.091  17.215 -0.7167 -1.1053 -1.2437
15046TIP3   OH266552   5.088   1.825  14.879 -0.2115  0.0192 -0.2348
15046TIP3    H166553   5.013   1.808  14.937 -1.2542 -0.0803 -1.5585
15046TIP3    H266554   5.121   1.910  14.908 -0.8861  0.1074  0.3131
15047TIP3   OH266555   1.330   2.473  17.150 -0.1637 -0.0837  0.4403
15047TIP3    H166556   1.301   2.559  17.181 -0.5875 -0.1836  0.3336
15047TIP3    H266557   1.410   2.455  17.199 -0.5770 -0.0426  1.1423
15048TIP3   OH266558   2.288   5.933   5.225 -0.4955  0.0268  0.1844
15048TIP3    H166559   2.259   5.871   5.158  0.5066  1.2816 -1.4859
15048TIP3    H266560   2.380   5.950   5.203 -0.8994  2.5384  0.2004
15049TIP3   OH266561   4.466   2.729  12.542  0.1548  0.2823  0.3279
15049TIP3    H166562   4.491   2.648  12.496  0.7132  0.9952 -0.6797
15049TIP3    H266563   4.540   2.746  12.601  0.4980  0.5752 -0.1786
15050TIP3   OH266564   3.225   2.147   0.814  0.4742 -0.0720 -0.6884
15050TIP3    H166565   3.280   2.106   0.881 -2.0280 -2.1242  0.2844
15050TIP3    H266566   3.170   2.209   0.863 -0.8493 -1.0354 -0.9182
15051TIP3   OH266567   1.463   4.701   6.696 -0.3516  0.2574  0.0437
15051TIP3    H166568   1.515   4.676   6.772 -1.1793 -1.6246  0.0336
15051TIP3    H266569   1.454   4.620   6.645 -0.9093  1.1818 -1.3988
15052TIP3   OH266570   3.244   0.985  16.058 -0.3535 -0.3057  0.2183
15052TIP3    H166571   3.216   0.925  15.990  0.9850 -0.7923  0.0644
15052TIP3    H266572   3.180   0.973  16.128 -0.4197 -1.5257 -0.0256
15053TIP3   OH266573   5.314   2.637  14.662 -0.2001 -0.6951  0.2447
15053TIP3    H166574   5.304   2.583  14.583  1.3653 -0.5986 -0.0531
15053TIP3    H266575   5.293   2.578  14.734 -1.2321 -0.9058 -0.2110
15054TIP3   OH266576   1.515   6.559  15.941 -0.7301 -0.3129 -0.1546
15054TIP3    H166577   1.601   6.597  15.957 -0.1515 -1.7737  0.3685
15054TIP3    H266578   1.457   6.634  15.930  0.5877  0.6962 -0.4157
15055TIP3   OH266579   0.710   0.190   1.489 -0.1409  0.1589 -0.0755
15055TIP3    H166580   0.666   0.274   1.499 -0.7906 -0.3387  1.4896
15055TIP3    H266581   0.740   0.190   1.398  0.4150  2.3307  0.0315
15056TIP3   OH266582   4.441   3.013  13.593  0.0074 -0.3929 -0.3594
15056TIP3    H166583   4.367   3.003  13.534 -0.0162 -0.5284 -0.3069
15056TIP3    H266584   4.443   2.931  13.643 -0.3930 -0.0078  0.3019
15057TIP3   OH266585   0.314   5.784  11.616 -0.3185 -0.4404 -0.6113
15057TIP3    H166586   0.349   5.815  11.699 -0.7574 -0.7741 -0.2910
15057TIP3    H266587   0.322   5.688  11.621  1.4621 -0.3908 -1.7827
15058TIP3   OH266588   1.566   3.983  11.775 -0.6129  0.3408  0.2622
15058TIP3    H166589   1.542   3.946  11.861 -0.1031  0.3077  0.3961
15058TIP3    H266590   1.618   3.914  11.734  1.0185  1.1687  0.8325
15059TIP3   OH266591   1.593   3.936  16.822  0.3340  0.7704 -0.2799
15059TIP3    H166592   1.686   3.919  16.836  0.1615 -0.8850 -0.9133
15059TIP3    H266593   1.550   3.890  16.894 -0.1186 -0.9967 -1.6229
15060TIP3   OH266594   1.461   1.311   0.409 -0.9229 -0.2091 -0.1540
15060TIP3    H166595   1.536   1.291   0.464 -0.7087 -1.3531 -0.8386
15060TIP3    H266596   1.384   1.286   0.461 -0.7685 -0.3375  0.0105
15061TIP3   OH266597   3.096   1.491  11.939 -0.0350 -0.1396 -0.1674
15061TIP3    H166598   3.172   1.432  11.937 -0.1600 -0.2802 -1.0573
15061TIP3    H266599   3.064   1.492  11.849 -0.3004  0.9547 -0.0727
15062TIP3   OH266600   5.222   0.457   0.294 -0.1763  0.1158  0.0033
15062TIP3    H166601   5.187   0.540   0.264 -0.2846  0.0922  0.0675
15062TIP3    H266602   5.259   0.417   0.215  2.0478  1.2826  0.3610
15063TIP3   OH266603   1.183   4.140  14.293  0.3352 -0.6790 -0.5487
15063TIP3    H166604   1.159   4.048  14.303  0.8077 -0.9472 -1.6629
15063TIP3    H266605   1.265   4.137  14.243  0.6770  0.3255 -0.0613
15064TIP3   OH266606   2.368   2.575  12.542 -0.3295 -0.2602  0.5101
15064TIP3    H166607   2.296   2.599  12.600 -2.0476  1.7894 -2.2078
15064TIP3    H266608   2.326   2.543  12.462  1.9152 -3.6224  0.4399
15065TIP3   OH266609   4.838   2.086  12.985 -0.3142 -0.4859 -0.1344
15065TIP3    H166610   4.789   2.104  13.065 -0.3754 -0.2792 -0.2194
15065TIP3    H266611   4.908   2.152  12.984  0.7693 -1.5726  0.6633
15066TIP3   OH266612   3.402   6.159  16.809  0.5232 -0.3007 -0.6378
15066TIP3    H166613   3.413   6.150  16.714 -0.4060 -0.3931 -0.7444
15066TIP3    H266614   3.476   6.214  16.836  0.5500  0.0934 -1.4761
15067TIP3   OH266615   2.806   1.393  14.371  0.0872 -0.1114 -0.0425
15067TIP3    H166616   2.725   1.433  14.339  0.1969 -0.7169 -1.1384
15067TIP3    H266617   2.778   1.339  14.445 -0.1358  1.4973  1.0989
15068TIP3   OH266618   2.416   3.141  13.398 -0.1858 -0.1131  0.2478
15068TIP3    H166619   2.480   3.087  13.352 -0.8532 -0.7665  0.0797
15068TIP3    H266620   2.455   3.229  13.398  0.3226 -0.3302 -0.5939
15069TIP3   OH266621   3.206   3.543  14.444 -0.7324 -0.4845 -0.6376
15069TIP3    H166622   3.258   3.464  14.442  0.7725  0.4116  0.8085
15069TIP3    H266623   3.200   3.571  14.352 -0.4385 -1.7049 -1.0372
15070TIP3   OH266624   1.119   1.666   0.863  0.5237 -0.1206  0.6179
15070TIP3    H166625   1.078   1.659   0.950 -0.0543 -0.8162  0.2981
15070TIP3    H266626   1.178   1.591   0.858 -0.6875 -1.0506 -0.2255
15071TIP3   OH266627   4.138   5.160   1.017 -0.0035  0.2970 -0.4183
15071TIP3    H166628   4.130   5.248   1.055  1.0755  0.1359  0.2125
15071TIP3    H266629   4.089   5.103   1.076  0.4877  0.2647 -0.0366
15072TIP3   OH266630   2.714   0.026  14.899  1.0759  0.2693 -0.4854
15072TIP3    H166631   2.648  -0.041  14.919 -1.1937  2.7695  1.1650
15072TIP3    H266632   2.770   0.028  14.976  2.2072 -0.8167 -1.2499
15073TIP3   OH266633   4.547   6.435  12.243  0.1025  0.0869 -0.4120
15073TIP3    H166634   4.509   6.365  12.190  1.9432 -0.5510 -0.9761
15073TIP3    H266635   4.502   6.514  12.214 -0.2869 -0.5256 -1.5599
15074TIP3   OH266636   2.082   2.261   3.400 -0.3945 -0.0495  0.1484
15074TIP3    H166637   2.032   2.254   3.319 -1.1809 -0.7280  0.6770
15074TIP3    H266638   2.024   2.307   3.460  1.0093  2.5039 -0.2956
15075TIP3   OH266639   5.281   2.009  13.416  0.5656 -0.1598  0.1503
15075TIP3    H166640   5.202   1.959  13.432  1.2539 -1.3991 -0.1911
15075TIP3    H266641   5.254   2.079  13.357 -0.8314  1.1499  2.2231
15076TIP3   OH266642   1.207   1.937   0.944 -0.4816  0.1466 -0.8737
15076TIP3    H166643   1.198   1.844   0.967  1.5268  0.2413  0.6066
15076TIP3    H266644   1.172   1.943   0.856  0.9536 -2.4080 -1.7403
15077TIP3   OH266645   3.409   1.277   1.313  0.1348  0.1752  0.0953
15077TIP3    H166646   3.440   1.335   1.383 -0.1811 -0.7503  1.0228
15077TIP3    H266647   3.463   1.199   1.321 -0.6613 -0.3886  0.0314
15078TIP3   OH266648   5.558   2.750   4.505 -0.2408 -0.3252  0.1594
15078TIP3    H166649   5.574   2.732   4.412 -2.3994  1.5731 -0.6689
15078TIP3    H266650   5.463   2.746   4.514 -0.0188 -2.1310  2.7240
15079TIP3   OH266651   5.444   4.239  14.718  0.0115  0.0874 -0.5590
15079TIP3    H166652   5.492   4.315  14.686  0.7550  0.0126  0.3534
15079TIP3    H266653   5.462   4.170  14.654  1.8254 -0.1829  0.1981
15080TIP3   OH266654   1.105   1.855  11.843  0.0914  0.8533 -0.0540
15080TIP3    H166655   1.023   1.892  11.811  0.4961  2.6235  0.8163
15080TIP3    H266656   1.173   1.915  11.810  0.8784  0.3514  0.5993
15081TIP3   OH266657   3.837   5.068  14.228 -0.6300 -0.0614  0.0295
15081TIP3    H166658   3.788   5.140  14.267 -0.9122 -0.1076 -0.2463
15081TIP3    H266659   3.773   5.019  14.177 -0.6688 -1.0922  1.0172
15082TIP3   OH266660   1.082   2.419   5.212  0.1350  0.3564 -0.5412
15082TIP3    H166661   1.081   2.342   5.269  0.7300  0.5043 -0.3147
15082TIP3    H266662   1.090   2.493   5.273 -2.6201  0.8001 -0.5923
15083TIP3   OH266663   5.748   2.961   4.631 -0.2338 -0.1576 -1.0561
15083TIP3    H166664   5.723   2.881   4.584  0.2616 -0.7047 -0.4076
15083TIP3    H266665   5.694   2.958   4.711  1.9087 -1.4398  0.4516
15084TIP3   OH266666   1.958   3.788  11.541  0.2199  0.3628 -0.1290
15084TIP3    H166667   1.908   3.857  11.585 -0.4040 -0.4283  0.4401
15084TIP3    H266668   1.896   3.750  11.478 -0.1060 -0.9918  0.9696
15085TIP3   OH266669   1.551   0.232  11.810 -0.2602  0.7698  0.6995
15085TIP3    H166670   1.517   0.287  11.739  0.1145  0.4755  0.2920
15085TIP3    H266671   1.520   0.144  11.790  0.2859  0.5920  0.6079
15086TIP3   OH266672   2.865   3.590   2.845  0.6566  0.2240  0.4996
15086TIP3    H166673   2.902   3.668   2.886  0.4926  0.2408  0.6184
15086TIP3    H266674   2.924   3.570   2.772  0.9137  0.2309  0.7059
15087TIP3   OH266675   2.259   3.227   4.888  0.3956 -0.0017 -0.4140
15087TIP3    H166676   2.287   3.157   4.830 -0.6136 -2.4044  1.7634
15087TIP3    H266677   2.332   3.238   4.949  0.3391  0.4654 -0.4293
15088TIP3   OH266678   0.433   2.239  10.583 -0.5042  0.5432 -0.2828
15088TIP3    H166679   0.490   2.304  10.624  2.7428 -0.0350 -3.3852
15088TIP3    H266680   0.397   2.284  10.506 -0.3106 -0.5221 -1.0185
15089TIP3   OH266681   0.143   4.545   3.966  0.1891 -0.0522 -0.0448
15089TIP3    H166682   0.081   4.613   3.940  1.1939  1.4260  1.2332
15089TIP3    H266683   0.138   4.480   3.895 -1.7700  0.6667 -0.6566
15090TIP3   OH266684   1.777   4.546   4.713 -0.0587  0.3978  0.0053
15090TIP3    H166685   1.703   4.517   4.766 -0.6968  0.9969 -0.5346
15090TIP3    H266686   1.851   4.547   4.773 -0.5169 -0.0758  0.5884
15091TIP3   OH266687   1.108   5.998   2.870 -0.6659  0.4508 -0.0795
15091TIP3    H166688   1.173   6.039   2.813 -1.0332  2.4078  0.8215
15091TIP3    H266689   1.031   5.987   2.814 -0.4369  0.6700 -0.4462
15092TIP3   OH266690   1.061   6.724  14.590  0.2277  0.7180  0.3688
15092TIP3    H166691   1.026   6.810  14.569 -0.5843  0.1976 -0.4785
15092TIP3    H266692   0.993   6.683  14.644  1.0672  0.9816  1.6782
15093TIP3   OH266693   6.641   0.224   4.349  0.1185 -0.0799 -0.7858
15093TIP3    H166694   6.553   0.218   4.312 -0.6776  0.3799  0.9091
15093TIP3    H266695   6.631   0.280   4.426  1.3512 -2.0710  0.9558
15094TIP3   OH266696   2.145   4.943  14.323 -0.1208  0.0646 -0.2718
15094TIP3    H166697   2.138   4.978  14.412  0.8521 -0.3253 -0.0230
15094TIP3    H266698   2.210   4.999  14.280  0.2645 -0.4454 -0.3670
15095TIP3   OH266699   3.137   3.942  10.899 -0.8074  0.4972  0.4472
15095TIP3    H166700   3.222   3.968  10.935 -0.8836  1.4575 -0.0243
15095TIP3    H266701   3.105   4.021  10.856 -3.1059  0.9697  2.7812
15096TIP3   OH266702   5.113   0.081   0.871 -0.0465  0.1337 -0.0613
15096TIP3    H166703   5.145   0.028   0.945  0.3236  1.3872  0.7120
15096TIP3    H266704   5.151   0.039   0.794  1.1946 -0.0683  0.6247
15097TIP3   OH266705   2.331   6.499  13.835 -0.3341 -0.0478  0.3520
15097TIP3    H166706   2.420   6.536  13.834  0.5201 -1.9503  1.5568
15097TIP3    H266707   2.300   6.514  13.924 -0.6210 -0.7648  0.3752
15098TIP3   OH266708   0.786   3.422  12.211  0.0414  0.1157  0.1854
15098TIP3    H166709   0.740   3.342  12.187 -0.1133  0.2807 -0.0829
15098TIP3    H266710   0.801   3.467  12.127 -0.3042  0.5971  0.3753
15099TIP3   OH266711   3.409   4.346   0.047  0.2924  0.2395  0.5433
15099TIP3    H166712   3.435   4.416  -0.013  1.2038  0.1394  0.8073
15099TIP3    H266713   3.329   4.378   0.089  0.1180  0.6680 -0.1063
15100TIP3   OH266714   6.569   4.060   0.265 -0.3688 -0.0751 -0.3508
15100TIP3    H166715   6.487   4.103   0.289 -0.2909  0.2487 -0.6506
15100TIP3    H266716   6.562   4.045   0.171  0.7093  1.7554 -0.7872
15101TIP3   OH266717   4.584   3.624  15.158 -0.0102  0.4585 -0.2594
15101TIP3    H166718   4.543   3.660  15.236 -1.9127  2.2381 -1.9613
15101TIP3    H266719   4.650   3.690  15.134  0.8085 -0.2473 -0.0207
15102TIP3   OH266720   0.016   0.583   3.898 -0.2281  0.1795 -0.2284
15102TIP3    H166721   0.108   0.563   3.883 -0.1955  0.5338 -0.5122
15102TIP3    H266722   0.016   0.641   3.974 -0.1119  1.1603 -0.9576
15103TIP3   OH266723   5.411   0.078   3.572  0.4871 -0.5430 -0.4495
15103TIP3    H166724   5.409   0.006   3.634 -0.0930 -0.1156  0.0492
15103TIP3    H266725   5.330   0.068   3.522 -0.1372  0.3471  0.3346
15104TIP3   OH266726   0.980   0.680  12.850  0.0854 -0.2915 -0.3846
15104TIP3    H166727   1.072   0.665  12.832  0.2457 -2.5133  1.7986
15104TIP3    H266728   0.937   0.669  12.765  1.8003  1.3028 -1.5476
15105TIP3   OH266729   1.871   1.257  13.581 -0.4833  0.2792  0.5425
15105TIP3    H166730   1.961   1.227  13.589 -1.1440 -1.4300  2.6216
15105TIP3    H266731   1.871   1.345  13.619  0.5044  0.8864 -0.7633
15106TIP3   OH266732   1.613   5.192  15.111 -0.0699  0.0348 -0.0554
15106TIP3    H166733   1.670   5.245  15.167 -0.8776 -2.5134  3.5180
15106TIP3    H266734   1.651   5.200  15.024  2.7356  2.3854  1.1986
15107TIP3   OH266735   3.641   2.054   5.412 -0.3411 -0.1722 -0.4175
15107TIP3    H166736   3.556   2.067   5.369 -1.6302 -1.2951  1.6771
15107TIP3    H266737   3.657   1.960   5.406  1.2554  0.1369 -1.5976
15108TIP3   OH266738   5.276   1.473   0.819  0.1782 -0.0353  0.2058
15108TIP3    H166739   5.360   1.507   0.787 -0.8334  2.9055  0.4208
15108TIP3    H266740   5.277   1.492   0.913 -0.2564 -1.1333  0.4466
15109TIP3   OH266741   3.097   1.226  10.758  0.3013 -0.0969  0.4688
15109TIP3    H166742   3.110   1.230  10.663 -3.6038  0.0500 -0.2251
15109TIP3    H266743   3.055   1.142  10.773 -1.4886  0.9313  1.6345
15110TIP3   OH266744   3.130   1.304   4.512 -0.5947  0.3716  0.7248
15110TIP3    H166745   3.203   1.282   4.454 -1.4645 -0.2064 -0.1750
15110TIP3    H266746   3.085   1.376   4.468 -0.9270  0.3090  0.9562
15111TIP3   OH266747   6.249   3.435  16.678  0.0241 -0.1248  0.6332
15111TIP3    H166748   6.202   3.409  16.599  0.7572 -4.2689  1.3317
15111TIP3    H266749   6.331   3.472  16.646 -1.0807  1.4552 -0.5061
15112TIP3   OH266750   4.994   4.291   6.211  0.1656  0.3865  0.3592
15112TIP3    H166751   5.070   4.349   6.204  1.1576 -0.9598 -0.8582
15112TIP3    H266752   5.032   4.203   6.207 -1.4574 -0.3213 -0.0155
15113TIP3   OH266753   5.522   3.551   1.855 -0.5544  0.2085  0.2478
15113TIP3    H166754   5.591   3.487   1.873 -0.7242 -0.0322  0.0487
15113TIP3    H266755   5.569   3.627   1.820 -0.4637 -0.2936 -0.7717
15114TIP3   OH266756   1.180   6.540   4.122 -0.4933  0.2506 -0.0805
15114TIP3    H166757   1.181   6.475   4.192  1.2487 -1.0922 -1.2702
15114TIP3    H266758   1.221   6.618   4.160  1.6539 -0.8889  0.0974
15115TIP3   OH266759   5.004   2.899   1.404 -0.2776 -0.5054 -0.4292
15115TIP3    H166760   5.008   2.804   1.407  0.5972 -0.4587  0.1434
15115TIP3    H266761   5.087   2.926   1.366  0.3885  0.0951  1.3587
15116TIP3   OH266762   5.880   2.631   5.093  0.1069  0.7395 -0.0324
15116TIP3    H166763   5.852   2.547   5.056  0.8227  0.4779 -0.0000
15116TIP3    H266764   5.965   2.612   5.133  0.0050  1.3512  0.4847
15117TIP3   OH266765   5.080   3.894  13.792 -0.0082 -0.4734  0.2871
15117TIP3    H166766   4.987   3.878  13.807 -0.4458  0.9947 -0.6646
15117TIP3    H266767   5.089   3.989  13.800  1.2263 -0.5007 -0.5739
15118TIP3   OH266768   2.489   0.052  14.514 -0.1527  0.2991  0.4191
15118TIP3    H166769   2.472   0.142  14.488  0.5846  0.5702  0.8575
15118TIP3    H266770   2.580   0.035  14.487 -1.4168 -1.6733 -3.4483
15119TIP3   OH266771   3.192   6.717   0.959  0.0722 -0.6842 -0.1910
15119TIP3    H166772   3.210   6.770   0.881 -0.4304 -2.3755 -1.5078
15119TIP3    H266773   3.221   6.773   1.032  1.0404  0.7549 -1.5819
15120TIP3   OH266774   0.743   6.310   1.103  0.4782 -0.1654  0.5607
15120TIP3    H166775   0.766   6.349   1.187  0.0233  2.7789 -0.5537
15120TIP3    H266776   0.813   6.337   1.044  0.9418 -2.4156  0.0061
15121TIP3   OH266777   2.719   4.459   0.850  0.5747 -0.5088  0.0368
15121TIP3    H166778   2.756   4.512   0.921  0.9755  1.1767 -1.3517
15121TIP3    H266779   2.795   4.438   0.794 -0.2329  2.2080 -2.3527
15122TIP3   OH266780   2.031   3.717   5.810 -0.4286  0.0653  0.0194
15122TIP3    H166781   1.959   3.722   5.873 -0.2388 -4.0215  0.8233
15122TIP3    H266782   1.988   3.714   5.724 -0.7456  4.0819 -0.1548
15123TIP3   OH266783   4.746   2.003   3.868 -0.1803  0.0818  0.3568
15123TIP3    H166784   4.762   1.978   3.959  2.0322 -1.0618 -0.2526
15123TIP3    H266785   4.827   2.046   3.841 -0.6941  0.1551 -1.1581
15124TIP3   OH266786   3.742   6.128  12.963 -0.4130 -0.2240 -0.2784
15124TIP3    H166787   3.733   6.066  13.036  0.4330 -0.4469 -0.3605
15124TIP3    H266788   3.723   6.213  13.003  1.5426 -0.1337  0.6005
15125TIP3   OH266789   3.096   5.404   5.679 -0.0345 -0.2017  0.2901
15125TIP3    H166790   3.114   5.330   5.738 -1.2662  0.8627  2.1126
15125TIP3    H266791   3.092   5.480   5.737 -3.4511  0.6099 -0.7917
15126TIP3   OH266792   4.926   5.092   3.088  0.0685 -0.4645 -0.0306
15126TIP3    H166793   4.834   5.064   3.092  0.2733 -1.1074  0.3491
15126TIP3    H266794   4.945   5.123   3.177 -0.1204  0.8140 -0.4094
15127TIP3   OH266795   6.134   5.418   2.204 -0.6206 -0.1078 -0.0235
15127TIP3    H166796   6.175   5.341   2.243 -1.2364 -0.1788  0.4947
15127TIP3    H266797   6.066   5.443   2.266 -2.1333 -0.6648 -1.3565
15128TIP3   OH266798   0.779   3.202   2.183  0.3148 -0.0206  0.5918
15128TIP3    H166799   0.742   3.150   2.254  0.9728 -0.3312  0.7195
15128TIP3    H266800   0.850   3.251   2.223  0.9595 -0.5154  0.0723
15129TIP3   OH266801   0.185   0.912  16.015  0.4334  0.3801  0.5008
15129TIP3    H166802   0.269   0.892  16.057  0.0868 -0.6486  0.7404
15129TIP3    H266803   0.185   0.856  15.937  0.5703  1.4204 -0.2616
15130TIP3   OH266804   4.232   2.793  14.142 -0.4269  0.3249 -0.2440
15130TIP3    H166805   4.262   2.884  14.147 -0.1671  0.2309 -0.0718
15130TIP3    H266806   4.194   2.785  14.055  0.8014  0.2156 -0.7870
15131TIP3   OH266807   0.463   1.613  12.869 -0.2072  0.1091 -0.4380
15131TIP3    H166808   0.474   1.553  12.942  1.5377 -0.8052 -1.3774
15131TIP3    H266809   0.545   1.606  12.820 -0.3371  2.5196 -1.1364
15132TIP3   OH266810   1.735   4.069   1.762 -0.0408 -0.5461  0.2387
15132TIP3    H166811   1.754   4.136   1.696  0.6732  0.0139  0.9934
15132TIP3    H266812   1.656   4.026   1.730 -1.0389  1.2491  0.1627
15133TIP3   OH266813   3.848   1.557   1.925 -0.1836  0.0404  0.0995
15133TIP3    H166814   3.811   1.645   1.924  0.0531  0.1974 -2.6293
15133TIP3    H266815   3.941   1.570   1.944 -0.0380  0.4696 -0.8455
15134TIP3   OH266816   3.716   2.616  17.049 -0.1388 -0.4195  0.4276
15134TIP3    H166817   3.790   2.568  17.088 -0.5071 -3.4159 -2.2017
15134TIP3    H266818   3.756   2.669  16.980 -0.0608  1.0514  1.5623
15135TIP3   OH266819   4.932   0.009  12.718  0.5113 -0.1885  0.3701
15135TIP3    H166820   4.888   0.091  12.743 -1.3476 -1.6740  2.3303
15135TIP3    H266821   4.870  -0.035  12.660  0.2413 -1.3763  1.5065
15136TIP3   OH266822   0.967   1.179   5.519 -0.1326  0.1617  0.2170
15136TIP3    H166823   1.057   1.156   5.498 -0.1674  2.4292 -3.1770
15136TIP3    H266824   0.914   1.120   5.465 -0.7254 -0.4821  1.4450
15137TIP3   OH266825   0.644   3.774  11.555  0.4634  0.2156 -0.0512
15137TIP3    H166826   0.573   3.837  11.544 -0.2457 -0.4815  0.4502
15137TIP3    H266827   0.678   3.762  11.466  0.6034  1.2825 -0.1562
15138TIP3   OH266828   6.339   1.793  14.888 -0.5375 -0.0067 -0.4706
15138TIP3    H166829   6.248   1.824  14.889 -0.6875 -0.4317 -0.7928
15138TIP3    H266830   6.356   1.773  14.797 -0.6412 -1.4454 -0.1931
15139TIP3   OH266831   1.325   4.341  11.059  0.5443  0.1339  0.2554
15139TIP3    H166832   1.374   4.291  11.124  1.3298  1.0457  0.3807
15139TIP3    H266833   1.245   4.290  11.045  1.9505 -1.9312 -0.7044
15140TIP3   OH266834   1.596   2.396  10.845  0.5121 -0.0488 -0.6266
15140TIP3    H166835   1.679   2.434  10.873 -0.4966  2.5465 -0.8685
15140TIP3    H266836   1.608   2.379  10.752  1.2565 -1.1997 -0.3424
15141TIP3   OH266837   0.668   4.818   5.428 -0.2149 -0.0312 -0.2940
15141TIP3    H166838   0.725   4.859   5.364 -1.4392  0.7930 -0.9014
15141TIP3    H266839   0.682   4.724   5.417  1.7609  0.1585  0.3116
15142TIP3   OH266840   6.702   0.315   5.219  0.5788 -0.2721 -0.4353
15142TIP3    H166841   6.613   0.332   5.187  0.0267  1.6331  1.8858
15142TIP3    H266842   6.758   0.330   5.142 -1.0382 -1.1062 -1.8364
15143TIP3   OH266843   3.853   3.978  10.998  0.2660  0.5006  0.1190
15143TIP3    H166844   3.868   4.047  10.934 -0.1455  1.0298  0.5865
15143TIP3    H266845   3.770   3.939  10.973  0.6010  0.0270 -0.2713
15144TIP3   OH266846   2.122   2.065   2.648  0.1880  0.7431  0.0422
15144TIP3    H166847   2.144   2.155   2.671 -0.6872  1.4321 -1.6566
15144TIP3    H266848   2.026   2.063   2.647  0.1991  0.1262 -1.1430
15145TIP3   OH266849   1.678   2.515   0.349 -0.1119 -0.7491  0.5747
15145TIP3    H166850   1.718   2.541   0.266 -0.3710 -0.9876  0.3730
15145TIP3    H266851   1.649   2.597   0.389 -0.9270 -0.7263 -0.0569
15146TIP3   OH266852   1.477   4.144  14.273 -0.0182 -0.0697 -0.3557
15146TIP3    H166853   1.507   4.053  14.269 -0.0358 -0.0511 -0.9740
15146TIP3    H266854   1.485   4.176  14.183  2.6288  1.4071  0.2851
15147TIP3   OH266855   6.083   3.113  13.397  0.3855  0.6386  0.0787
15147TIP3    H166856   6.093   3.204  13.425  1.6391  0.3658  0.6154
15147TIP3    H266857   6.112   3.112  13.306 -1.4229  1.0897 -0.5486
15148TIP3   OH266858   0.775   0.038  11.681  0.2373  0.1455  0.2641
15148TIP3    H166859   0.860   0.032  11.639 -0.7456  2.3926 -2.3669
15148TIP3    H266860   0.712   0.035  11.608 -2.0587 -2.2683  2.1305
15149TIP3   OH266861   2.423   1.167   6.320  0.3801  0.0878  0.4753
15149TIP3    H166862   2.357   1.231   6.295  1.2629  0.2657 -1.6159
15149TIP3    H266863   2.505   1.217   6.320  1.2621 -1.1327 -2.2900
15150TIP3   OH266864   5.846   6.152  12.006  0.2744  0.5743  0.5115
15150TIP3    H166865   5.836   6.169  11.913 -0.2582  2.5389  0.8980
15150TIP3    H266866   5.851   6.056  12.012 -0.5278  0.3624 -1.4373
15151TIP3   OH266867   3.168   1.971   3.461  0.4387  0.2575 -0.0761
15151TIP3    H166868   3.092   2.014   3.421 -0.8422 -1.0700  0.8541
15151TIP3    H266869   3.136   1.886   3.489  2.1950 -0.1982  0.6819
15152TIP3   OH266870   3.888   2.814  12.676  0.0294 -0.2821 -0.4066
15152TIP3    H166871   3.958   2.879  12.683  0.9094 -1.1780 -0.5859
15152TIP3    H266872   3.902   2.773  12.591 -2.2125  1.1557 -1.5654
15153TIP3   OH266873   2.312   3.439   0.498 -0.3003  0.1233  0.0699
15153TIP3    H166874   2.308   3.409   0.588 -0.2597 -2.0462 -0.5929
15153TIP3    H266875   2.400   3.474   0.487 -0.3435  0.5012  0.8643
15154TIP3   OH266876   6.261   3.337   4.220 -0.4089  0.5164 -0.0721
15154TIP3    H166877   6.306   3.405   4.170 -0.6443 -0.4697 -1.7391
15154TIP3    H266878   6.302   3.255   4.191 -0.9458 -0.1468  0.9613
15155TIP3   OH266879   4.062   1.339   2.456  0.0648 -0.0644 -0.7344
15155TIP3    H166880   4.072   1.251   2.420  0.1046  0.3271 -1.7067
15155TIP3    H266881   4.046   1.325   2.549 -1.9702 -1.2177 -1.1808
15156TIP3   OH266882   6.339   1.526  12.407  0.1251 -0.2215 -0.4303
15156TIP3    H166883   6.411   1.468  12.382  1.4373  0.7722  0.9024
15156TIP3    H266884   6.344   1.599  12.346  0.9052  0.3356  0.2838
15157TIP3   OH266885   3.166   6.331  16.823 -0.4422 -0.2155 -0.0007
15157TIP3    H166886   3.242   6.273  16.831 -0.4929 -0.3052 -0.1706
15157TIP3    H266887   3.197   6.405  16.772 -0.1495  0.3067  0.9042
15158TIP3   OH266888   0.762   6.798  14.267  0.1384 -0.3053 -0.3280
15158TIP3    H166889   0.744   6.891  14.286 -1.5809 -0.8892  1.2760
15158TIP3    H266890   0.790   6.762  14.351 -1.9185 -1.7795 -0.1979
15159TIP3   OH266891   3.285   4.865  15.804 -0.2797 -0.3647  0.2354
15159TIP3    H166892   3.378   4.868  15.784 -0.8115  0.3298 -2.6659
15159TIP3    H266893   3.279   4.821  15.889  2.6113 -1.0375  0.1780
15160TIP3   OH266894   5.145   0.331  12.324  0.3286 -0.2888 -0.0135
15160TIP3    H166895   5.095   0.279  12.387  1.2148  0.1522  1.0906
15160TIP3    H266896   5.199   0.267  12.277 -0.0120 -0.5751 -0.0164
15161TIP3   OH266897   1.592   1.642   1.653 -0.0676 -0.4379  0.4033
15161TIP3    H166898   1.515   1.683   1.612  0.1314 -0.3415  0.1240
15161TIP3    H266899   1.654   1.630   1.581 -0.0977 -1.1822  0.4961
15162TIP3   OH266900   3.664   5.283  14.370  0.3494 -0.1384  0.3244
15162TIP3    H166901   3.714   5.335  14.433  0.6382  0.9155 -0.7327
15162TIP3    H266902   3.579   5.327  14.364 -0.8912 -2.0534  2.2842
15163TIP3   OH266903   5.951   6.556  15.855 -0.2012  0.2719 -0.5944
15163TIP3    H166904   5.950   6.510  15.939  2.3221 -0.3144 -0.7775
15163TIP3    H266905   5.963   6.648  15.878 -2.4206  0.5297 -0.2942
15164TIP3   OH266906   2.601   5.384   3.186 -0.4214 -0.0453  0.3574
15164TIP3    H166907   2.562   5.452   3.131 -0.1810 -0.0556  0.1698
15164TIP3    H266908   2.579   5.410   3.276 -0.5228  0.1595  0.2741
15165TIP3   OH266909   1.368   6.668  12.046  0.3832 -0.3141  0.6063
15165TIP3    H166910   1.423   6.688  11.971 -0.5804 -0.8093 -0.2543
15165TIP3    H266911   1.301   6.736  12.047  0.0439 -0.6412  0.6564
15166TIP3   OH266912   0.264   3.158   2.833 -0.0922 -0.7342  0.7600
15166TIP3    H166913   0.330   3.227   2.835 -0.0786 -0.7164  0.1153
15166TIP3    H266914   0.192   3.195   2.782  0.1845 -1.4100 -0.1663
15167TIP3   OH266915   2.379   1.871  12.296 -0.3066  0.7439 -0.3517
15167TIP3    H166916   2.352   1.956  12.331  0.4263  0.4070  1.1230
15167TIP3    H266917   2.474   1.879  12.282 -0.5299  0.7586 -2.0033
15168TIP3   OH266918   0.480   6.295   3.567  0.5740  0.2231 -0.2905
15168TIP3    H166919   0.411   6.232   3.549  1.1893 -0.4062 -0.4802
15168TIP3    H266920   0.540   6.248   3.625  1.1103  0.5807 -0.5510
15169TIP3   OH266921   5.152   3.944  12.252 -0.0256 -0.5940  0.2026
15169TIP3    H166922   5.164   3.914  12.342  0.1981  0.0134  0.3780
15169TIP3    H266923   5.080   3.891  12.218 -0.7800 -0.1386  1.0641
15170TIP3   OH266924   0.421   3.204  12.598  1.0368  0.1798  0.2247
15170TIP3    H166925   0.466   3.121  12.585  0.4455 -0.0872 -0.1315
15170TIP3    H266926   0.437   3.253  12.518 -2.0300 -1.1985 -1.3704
15171TIP3   OH266927   1.536   5.836   5.549 -0.1304  0.1674  0.3658
15171TIP3    H166928   1.560   5.928   5.547  0.4353  0.0187 -1.1983
15171TIP3    H266929   1.447   5.834   5.514 -0.8814  0.2795  2.1621
15172TIP3   OH266930   1.707   5.420   4.817 -0.9264 -0.3033 -0.4849
15172TIP3    H166931   1.685   5.512   4.835  0.5786 -0.2169  1.2900
15172TIP3    H266932   1.776   5.424   4.750 -1.6863 -0.2211 -1.2733
15173TIP3   OH266933   5.235   1.529  11.562 -0.0450 -0.1254  0.5719
15173TIP3    H166934   5.168   1.467  11.587  1.8576 -4.0489 -2.8465
15173TIP3    H266935   5.222   1.542  11.468  0.9948  3.1099  0.7463
15174TIP3   OH266936   2.158   6.394   0.191  0.0505 -0.6413  0.7486
15174TIP3    H166937   2.182   6.473   0.241  1.3657  0.2648 -1.1580
15174TIP3    H266938   2.241   6.348   0.180 -0.0187 -0.3747 -1.2411
15175TIP3   OH266939   2.863   2.012  17.183 -0.0022 -0.0404 -0.3556
15175TIP3    H166940   2.839   1.925  17.214  0.1458  0.3593  0.9383
15175TIP3    H266941   2.945   2.000  17.136 -1.1416 -0.9486 -2.2524
15176TIP3   OH266942   4.734   0.218  15.889  0.4479  0.6743  0.0154
15176TIP3    H166943   4.684   0.264  15.822 -0.3066  0.9604  0.7564
15176TIP3    H266944   4.674   0.152  15.924  0.4212  1.2942  1.2024
15177TIP3   OH266945   1.796   4.389  12.681  0.4299 -0.2969 -0.3393
15177TIP3    H166946   1.888   4.407  12.697  0.1776 -0.9250  2.4075
15177TIP3    H266947   1.750   4.457  12.731 -0.5672 -0.7475 -0.6218
15178TIP3   OH266948   4.084   4.828   3.651 -0.4340  0.0823  0.0248
15178TIP3    H166949   4.100   4.831   3.745 -0.0418 -1.4757  0.0410
15178TIP3    H266950   3.996   4.791   3.642 -1.3303  2.1154 -0.2193
15179TIP3   OH266951   2.393   3.913   0.953 -0.0271 -0.0199  0.1748
15179TIP3    H166952   2.356   3.963   0.880 -0.1579 -0.6632 -0.2173
15179TIP3    H266953   2.382   3.822   0.926 -0.8416 -0.3024  1.3684
15180TIP3   OH266954   3.607   6.550  14.648  0.6940  0.2023  0.1780
15180TIP3    H166955   3.656   6.469  14.642 -2.2598 -1.7095  0.0217
15180TIP3    H266956   3.565   6.559  14.562 -0.7349  0.6931  0.8993
15181TIP3   OH266957   1.004   4.029  11.014  0.5163  0.0423  0.1089
15181TIP3    H166958   0.933   4.013  10.952  0.0485 -2.0453  1.1030
15181TIP3    H266959   1.059   4.094  10.971 -2.3794  2.4308 -0.3892
15182TIP3   OH266960   5.802   2.462  13.506 -0.0330 -0.4204  0.1364
15182TIP3    H166961   5.768   2.551  13.517 -1.2568 -1.0435  1.8516
15182TIP3    H266962   5.740   2.419  13.447 -0.2186 -0.5260  0.4066
15183TIP3   OH266963   0.658   3.261   4.949  0.3234 -0.0071 -0.0956
15183TIP3    H166964   0.571   3.220   4.952  0.1716  0.3531  0.6992
15183TIP3    H266965   0.663   3.312   5.030  1.1925  0.1531 -0.2421
15184TIP3   OH266966   2.051   0.502  14.599 -0.0755 -0.1008 -0.3896
15184TIP3    H166967   2.016   0.431  14.547  0.3720 -1.7863  1.4985
15184TIP3    H266968   2.122   0.463  14.650  0.9213  1.9462 -0.0626
15185TIP3   OH266969   4.734   3.312  16.394 -0.2651  0.4882  0.5361
15185TIP3    H166970   4.649   3.336  16.431 -0.2935  1.0157  0.1509
15185TIP3    H266971   4.718   3.230  16.348 -0.5757  0.5908  0.4563
15186TIP3   OH266972   5.066   1.081   5.741  0.4690  0.1314 -0.2931
15186TIP3    H166973   5.031   1.018   5.804  2.1250 -1.0534 -0.4902
15186TIP3    H266974   5.086   1.158   5.793  1.5961 -0.7428  0.6142
15187TIP3   OH266975   1.837   2.101   2.976  0.2987 -0.3471 -0.1748
15187TIP3    H166976   1.906   2.087   2.911  1.5235  1.4458  0.6605
15187TIP3    H266977   1.815   2.193   2.969 -1.8729 -0.8204 -0.2080
15188TIP3   OH266978   5.845   5.017   0.035 -0.4350  0.2018 -0.1515
15188TIP3    H166979   5.775   5.078   0.011 -0.3023  0.5774  0.3877
15188TIP3    H266980   5.922   5.074   0.048 -0.7800  0.1759  2.3350
15189TIP3   OH266981   4.595   3.280   4.389  0.7482 -0.0200  0.1715
15189TIP3    H166982   4.572   3.195   4.354  0.5389 -0.1358  0.5775
15189TIP3    H266983   4.559   3.280   4.478  0.9184  0.4132  0.2456
15190TIP3   OH266984   3.043   1.502  16.410  0.8772  0.0052 -0.3715
15190TIP3    H166985   3.100   1.484  16.485  0.6269 -0.3739 -0.2682
15190TIP3    H266986   2.999   1.584  16.434  1.8223  0.6344 -0.7276
15191TIP3   OH266987   0.499   2.570   1.081  0.0640 -0.1688 -0.2473
15191TIP3    H166988   0.577   2.625   1.081  1.0217 -1.4879 -0.1440
15191TIP3    H266989   0.431   2.625   1.042  0.6708  1.4947  0.9351
15192TIP3   OH266990   4.926   1.778  15.424 -0.2817 -0.4273  0.5994
15192TIP3    H166991   4.959   1.788  15.513 -0.0022  0.3746  0.4157
15192TIP3    H266992   4.903   1.867  15.397 -3.2101 -1.0044  0.9205
15193TIP3   OH266993   1.138   0.885   0.064 -0.3368  0.1003 -0.4502
15193TIP3    H166994   1.220   0.934   0.053  1.2270 -1.9994  1.1482
15193TIP3    H266995   1.162   0.794   0.047 -2.5313 -0.5102 -0.6032
15194TIP3   OH266996   4.848   2.164  12.322 -0.5408 -0.4339  0.5062
15194TIP3    H166997   4.909   2.146  12.250  0.2386  2.1970  0.4150
15194TIP3    H266998   4.904   2.169  12.399 -1.1868 -1.7749  1.0871
15195TIP3   OH266999   0.704   4.555  15.645  1.0028  0.6205  0.2658
15195TIP3    H167000   0.742   4.626  15.592  0.6669 -1.5351 -3.2039
15195TIP3    H267001   0.773   4.489  15.649 -0.0822 -0.5855 -0.3326
15196TIP3   OH267002   2.920   0.467  14.504 -0.3517  0.0999  0.0642
15196TIP3    H167003   2.965   0.400  14.452  2.0693  0.5071  1.4940
15196TIP3    H267004   2.890   0.421  14.582 -1.3602  0.1072 -0.3024
15197TIP3   OH267005   6.487   5.313   2.990 -0.2655 -0.2412  0.0536
15197TIP3    H167006   6.530   5.252   2.929 -0.7662 -0.4045 -0.1426
15197TIP3    H267007   6.530   5.397   2.974  0.9108 -0.6674  0.8073
15198TIP3   OH267008   3.133   0.446   6.157 -0.3388 -0.4521 -0.6759
15198TIP3    H167009   3.183   0.443   6.075 -0.0037 -0.0177 -0.4918
15198TIP3    H267010   3.186   0.397   6.219  0.1163  0.4312 -0.3498
15199TIP3   OH267011   4.251   3.059   1.773 -0.1409  0.1090 -0.3516
15199TIP3    H167012   4.174   3.002   1.780 -1.8311  2.4362  2.0486
15199TIP3    H267013   4.312   3.023   1.837 -0.3545 -0.1825 -0.3057
15200TIP3   OH267014   1.138   6.582   2.496 -0.2667 -0.0923 -0.2590
15200TIP3    H167015   1.046   6.599   2.476 -0.1856  0.8525  0.1013
15200TIP3    H267016   1.147   6.606   2.589  0.4050  0.1446 -0.3797
15201TIP3   OH267017   3.168   3.903   2.144  0.1899  0.2942 -0.0721
15201TIP3    H167018   3.154   3.994   2.170 -1.2350 -0.2667  1.2664
15201TIP3    H267019   3.258   3.884   2.171  0.3981  1.2088 -0.1034
15202TIP3   OH267020   1.811   2.599  16.892 -0.7211 -0.5710  0.4305
15202TIP3    H167021   1.720   2.616  16.869 -0.0771  1.8485 -0.6768
15202TIP3    H267022   1.861   2.664  16.842  1.3369  0.5260  3.5649
15203TIP3   OH267023   5.562   0.510  16.637 -0.1920 -0.9524  0.4759
15203TIP3    H167024   5.615   0.489  16.714  0.8855 -0.3785 -0.0839
15203TIP3    H267025   5.473   0.520  16.671  0.3272 -0.3329  1.7096
15204TIP3   OH267026   3.343   1.144   6.173  0.1087  0.1160  0.6315
15204TIP3    H167027   3.390   1.072   6.130 -0.9232 -0.9733  1.2504
15204TIP3    H267028   3.398   1.166   6.249  1.3922  1.3247 -0.5837
15205TIP3   OH267029   1.087   3.422  11.380  0.9731  0.3044  0.2993
15205TIP3    H167030   1.024   3.373  11.433  0.0078  1.7269  0.5254
15205TIP3    H267031   1.092   3.508  11.421 -1.0098  2.0286 -2.6726
15206TIP3   OH267032   3.339   6.593  15.725  0.1924  0.0588 -0.2718
15206TIP3    H167033   3.418   6.636  15.758 -0.1931 -0.3733  1.3131
15206TIP3    H267034   3.271   6.616  15.788 -1.1035  0.8342 -1.8687
15207TIP3   OH267035   1.859   3.551   0.303  0.1060 -0.0223  0.4975
15207TIP3    H167036   1.843   3.561   0.397 -1.7103 -0.5434  0.2783
15207TIP3    H267037   1.954   3.549   0.295  0.3298  1.3985  2.1677
15208TIP3   OH267038   1.844   6.269  14.149 -0.6821 -0.1650  0.5008
15208TIP3    H167039   1.796   6.321  14.085 -0.9452 -0.4149  0.4895
15208TIP3    H267040   1.810   6.180  14.138 -0.4017 -0.2976  0.6729
15209TIP3   OH267041   2.866   6.698   4.053 -0.0092 -0.3707 -0.0883
15209TIP3    H167042   2.938   6.740   4.006 -0.4680  0.1456 -0.3279
15209TIP3    H267043   2.807   6.667   3.984 -0.2528 -0.3752  0.1213
15210TIP3   OH267044   4.284   3.689  15.545 -0.3612 -0.5267 -0.1849
15210TIP3    H167045   4.340   3.728  15.478 -1.6232 -0.4452 -1.2310
15210TIP3    H267046   4.306   3.595  15.543 -1.0996 -0.6966 -1.4586
15211TIP3   OH267047   5.962   3.140  11.028  0.7023  0.2012 -0.1567
15211TIP3    H167048   5.929   3.053  11.050  2.1928 -0.6244 -1.0002
15211TIP3    H267049   6.057   3.130  11.027  0.8722  1.6205 -1.1229
15212TIP3   OH267050   2.942   5.821  11.071 -0.5918  0.1323  0.4622
15212TIP3    H167051   2.896   5.756  11.018 -0.2226  1.3399 -1.4586
15212TIP3    H267052   3.031   5.822  11.036 -0.1916  0.5964  1.4718
15213TIP3   OH267053   4.677   0.998   4.081 -0.0557 -0.2249 -0.0491
15213TIP3    H167054   4.677   0.944   4.003 -1.5965  1.0228 -0.9770
15213TIP3    H267055   4.585   1.001   4.109  0.3093  0.2015  1.2045
15214TIP3   OH267056   5.420   1.219   0.499  0.5110  0.5111  0.0366
15214TIP3    H167057   5.399   1.142   0.447 -0.6866  0.3585  0.7076
15214TIP3    H267058   5.335   1.253   0.526  0.9787  2.3874 -0.6787
15215TIP3   OH267059   0.563   5.610   1.748 -0.4121 -0.8274 -0.3706
15215TIP3    H167060   0.478   5.637   1.714  0.5972  3.2059 -0.1004
15215TIP3    H267061   0.565   5.642   1.838  1.2808 -1.1485 -0.2651
15216TIP3   OH267062   1.134   1.506   4.411  0.1797  0.3307 -0.2330
15216TIP3    H167063   1.185   1.433   4.375 -0.3643 -0.4977  0.6072
15216TIP3    H267064   1.198   1.557   4.462  0.2522 -0.5444  0.5865
15217TIP3   OH267065   0.795   2.753  15.802 -0.2177  0.0633 -0.2975
15217TIP3    H167066   0.781   2.666  15.764 -0.3190 -0.0221 -0.0662
15217TIP3    H267067   0.880   2.746  15.847 -0.3269  0.0206 -0.0979
15218TIP3   OH267068   4.604   4.033   1.165  0.2208  0.0997 -0.1779
15218TIP3    H167069   4.651   3.965   1.212 -1.4904 -0.3465  1.0089
15218TIP3    H267070   4.597   4.001   1.075  0.4328 -0.7560  0.1102
15219TIP3   OH267071   5.067   2.118  12.676  0.3073  0.2305  0.4889
15219TIP3    H167072   5.003   2.186  12.693 -1.0431 -0.7297 -0.5659
15219TIP3    H267073   5.152   2.161  12.688 -0.5156  1.7412  1.0766
15220TIP3   OH267074   0.458   4.803   5.793  0.4373  0.2031  0.3220
15220TIP3    H167075   0.542   4.821   5.835  0.5900  1.3621 -0.4267
15220TIP3    H267076   0.465   4.712   5.764  0.8914 -0.1485  1.4692
15221TIP3   OH267077   6.260   2.936  15.419  0.0196 -0.7765 -0.8785
15221TIP3    H167078   6.345   2.980  15.418  0.4945 -1.5409 -3.4593
15221TIP3    H267079   6.212   2.976  15.346 -3.0847  1.7182  2.2106
15222TIP3   OH267080   0.008   1.040   2.702  0.2354  0.1090  0.3245
15222TIP3    H167081  -0.039   1.118   2.730  0.8183  0.1988  1.0848
15222TIP3    H267082   0.023   1.053   2.609  0.0623  0.7690  0.3859
15223TIP3   OH267083   2.974   5.936  15.888  0.4998  0.1672 -0.1802
15223TIP3    H167084   3.012   6.018  15.921 -0.8139  0.2699  1.1680
15223TIP3    H267085   2.886   5.933  15.926 -0.5148 -0.5363 -2.4352
15224TIP3   OH267086   1.102   4.252  12.903 -0.2163 -0.0738  0.4807
15224TIP3    H167087   1.057   4.320  12.852 -1.0073 -0.5445  0.5311
15224TIP3    H267088   1.141   4.194  12.838  0.6344  0.5294  0.4385
15225TIP3   OH267089   3.497   3.935   3.667 -1.0025  0.4371  0.2841
15225TIP3    H167090   3.482   3.952   3.574 -0.8886  0.6385  0.3000
15225TIP3    H267091   3.425   3.979   3.712 -1.6577 -0.5662  0.2357
15226TIP3   OH267092   2.547   4.207  11.422  0.0991 -0.0136  0.8919
15226TIP3    H167093   2.543   4.193  11.327  1.6673 -0.0716  0.8146
15226TIP3    H267094   2.509   4.294  11.434  0.1073  0.0976  0.1869
15227TIP3   OH267095   5.374   2.517  15.980  0.2057  0.0731 -0.3667
15227TIP3    H167096   5.400   2.464  15.905  1.4798  0.4891 -0.2449
15227TIP3    H267097   5.454   2.527  16.031 -0.8292 -1.0954  1.6257
15228TIP3   OH267098   6.226   1.003   3.034 -0.2190 -0.3133  0.1827
15228TIP3    H167099   6.260   0.920   3.069  2.8799  0.6316 -0.3705
15228TIP3    H267100   6.168   1.035   3.103  1.0593 -1.3990  1.8456
15229TIP3   OH267101   1.158   6.119   5.842 -0.0131  0.0134 -0.2902
15229TIP3    H167102   1.152   6.204   5.797 -0.7793  0.8448  1.2891
15229TIP3    H267103   1.100   6.062   5.792  0.7491  0.3215 -1.5597
15230TIP3   OH267104   3.452   2.462  13.659 -0.0266 -0.0028 -0.3568
15230TIP3    H167105   3.445   2.368  13.641 -0.8102 -0.4437  1.8830
15230TIP3    H267106   3.545   2.482  13.647 -0.1019 -0.6440 -2.4559
15231TIP3   OH267107   5.893   0.746   4.493  0.0387  0.1008  0.3309
15231TIP3    H167108   5.879   0.768   4.401 -1.4532 -0.4455  0.3950
15231TIP3    H267109   5.864   0.655   4.500  0.5088  0.0120  1.2682
15232TIP3   OH267110   2.059   6.698  10.371 -0.1621 -0.2463 -0.0402
15232TIP3    H167111   2.101   6.767  10.423 -1.0777  0.1326  0.2262
15232TIP3    H267112   2.058   6.622  10.429 -1.2774  0.2045  0.5727
15233TIP3   OH267113   4.659   1.248   1.522  0.1291 -0.6409  0.6225
15233TIP3    H167114   4.617   1.264   1.607  0.0898 -0.3407  0.5461
15233TIP3    H267115   4.604   1.295   1.459  0.6491 -0.1416  0.5378
15234TIP3   OH267116   2.422   5.512   6.416  0.5828 -0.2863  0.1604
15234TIP3    H167117   2.445   5.428   6.457  0.0028 -0.9483 -0.8097
15234TIP3    H267118   2.406   5.571   6.490 -1.4412 -1.6986  0.9643
15235TIP3   OH267119   1.501   0.401  15.222  0.1784  0.4892  1.1724
15235TIP3    H167120   1.547   0.440  15.147 -1.8378  0.9088  0.0574
15235TIP3    H267121   1.567   0.348  15.266  1.0348 -1.5258 -2.1332
15236TIP3   OH267122   4.882   3.427   3.383 -0.2327 -0.6699  0.1062
15236TIP3    H167123   4.865   3.377   3.303  1.6497 -0.9654 -0.1555
15236TIP3    H267124   4.906   3.514   3.353  1.3430 -1.0201  0.2473
15237TIP3   OH267125   4.418   5.384   4.185  0.8604 -0.2978 -0.1321
15237TIP3    H167126   4.458   5.346   4.263 -0.2777 -0.6067  0.3178
15237TIP3    H267127   4.492   5.419   4.135  1.5485  0.6101  1.4512
15238TIP3   OH267128   3.125   5.517   6.415  0.2233 -0.2590  0.0857
15238TIP3    H167129   3.128   5.604   6.377 -0.8398  0.0102  0.5816
15238TIP3    H267130   3.156   5.528   6.505  0.7711 -0.5311 -0.0617
15239TIP3   OH267131   0.812   3.088  14.263 -0.3817 -0.4800 -0.4756
15239TIP3    H167132   0.775   3.000  14.275 -0.2405 -0.4818 -0.0078
15239TIP3    H267133   0.895   3.073  14.218  0.1485 -0.6977  0.5284
15240TIP3   OH267134   4.500   4.118  11.061  0.6921  0.5635  0.7443
15240TIP3    H167135   4.474   4.122  10.969  0.5481 -0.7089  0.7083
15240TIP3    H267136   4.469   4.200  11.099  0.7767  1.1143 -0.3460
15241TIP3   OH267137   1.846   2.536   1.129 -0.5079  0.1031 -0.3638
15241TIP3    H167138   1.821   2.449   1.163 -1.1238  0.6960  0.7807
15241TIP3    H267139   1.900   2.574   1.199 -0.5750  0.7981 -0.6831
15242TIP3   OH267140   5.389   6.003  14.133  0.0167  0.0490  0.1162
15242TIP3    H167141   5.464   6.063  14.128  0.1518 -0.1703 -0.5865
15242TIP3    H267142   5.323   6.052  14.183  0.0426  0.8862 -0.6365
15243TIP3   OH267143   0.950   5.983  13.607 -0.3638  0.0360 -0.9006
15243TIP3    H167144   0.925   6.038  13.533  0.6408  0.1012 -1.2057
15243TIP3    H267145   0.898   5.903  13.596 -1.2813  0.6111 -0.8649
15244TIP3   OH267146   0.356   3.619   6.638 -0.4388  0.6201  0.4525
15244TIP3    H167147   0.316   3.690   6.587  0.1951  0.2010 -0.6654
15244TIP3    H267148   0.426   3.662   6.687  0.5791  0.6558 -0.9572
15245TIP3   OH267149   0.377   2.473   1.690 -0.8027  0.4705  0.4247
15245TIP3    H167150   0.368   2.562   1.656  0.7764  0.9274  1.1398
15245TIP3    H267151   0.400   2.421   1.613  0.7367  1.1396  0.4017
15246TIP3   OH267152   5.120   0.343  16.834 -0.4545 -0.3211 -0.6753
15246TIP3    H167153   5.097   0.350  16.927 -0.8066 -0.0007 -0.7876
15246TIP3    H267154   5.137   0.249  16.821  1.0989 -0.1818  0.0660
15247TIP3   OH267155   2.316   2.076   1.672  0.1548  0.7344 -0.5562
15247TIP3    H167156   2.286   2.061   1.762  0.9822  3.2202  0.2128
15247TIP3    H267157   2.244   2.124   1.631 -0.5622 -1.0841 -1.5342
15248TIP3   OH267158   0.155   0.771   2.228  0.1320  0.3837 -0.0887
15248TIP3    H167159   0.152   0.704   2.159  0.5797  0.1882  0.0811
15248TIP3    H267160   0.125   0.851   2.185 -1.0276 -0.0487 -0.1460
15249TIP3   OH267161   0.808   0.998   1.220  0.5117  0.1053  0.0681
15249TIP3    H167162   0.880   0.938   1.237 -1.0008 -1.1230  2.6990
15249TIP3    H267163   0.778   0.974   1.132  3.0440  0.4723 -0.9754
15250TIP3   OH267164   2.372   3.255  16.218  0.1691 -0.0715 -0.5683
15250TIP3    H167165   2.358   3.197  16.143 -1.5201  1.7253 -1.7297
15250TIP3    H267166   2.408   3.335  16.180 -1.2217  1.0691  0.4342
15251TIP3   OH267167   5.509   4.339  11.148  0.2837  0.0948  0.6272
15251TIP3    H167168   5.595   4.303  11.168  0.3897  0.9230  1.7780
15251TIP3    H267169   5.527   4.427  11.115 -0.0962  0.0840  0.3839
15252TIP3   OH267170   2.749   6.393   2.581  0.1029  0.4309 -0.2274
15252TIP3    H167171   2.767   6.299   2.582 -0.2651  0.3578 -0.2698
15252TIP3    H267172   2.654   6.399   2.591  0.3606  0.8890  2.4760
15253TIP3   OH267173   2.575   5.700  13.407  0.2595 -0.2530  0.2821
15253TIP3    H167174   2.565   5.730  13.316 -0.6721 -1.0286  0.1188
15253TIP3    H267175   2.582   5.605  13.400  0.8713 -0.2686  0.9842
15254TIP3   OH267176   4.534   0.273   5.662  0.0598  0.3752 -0.4048
15254TIP3    H167177   4.522   0.358   5.704 -0.2051  0.3481 -0.4242
15254TIP3    H267178   4.501   0.286   5.573 -1.3640 -0.1441  0.0129
15255TIP3   OH267179   2.436   1.436  16.007  0.4056  0.6479 -0.0264
15255TIP3    H167180   2.412   1.528  15.998  1.0431  0.8889  0.6789
15255TIP3    H267181   2.528   1.437  16.034 -0.2964 -0.1079  2.6806
15256TIP3   OH267182   1.902   6.745  16.873 -0.1326 -0.1844  0.3368
15256TIP3    H167183   1.902   6.652  16.896 -1.5172  0.3582  3.0373
15256TIP3    H267184   1.832   6.782  16.927  1.2713  2.6507  0.3809
15257TIP3   OH267185   1.070   0.331   0.983 -0.6692  0.0761 -0.1634
15257TIP3    H167186   1.081   0.379   1.065 -1.5434  0.8882 -0.4937
15257TIP3    H267187   0.975   0.326   0.971 -0.5531  0.0120 -1.1449
15258TIP3   OH267188   0.252   4.919  13.933  0.8936  0.0021  0.1748
15258TIP3    H167189   0.306   4.998  13.928  2.2107 -0.9223 -2.0270
15258TIP3    H267190   0.202   4.928  14.014  2.9769  1.8049  1.3444
15259TIP3   OH267191   6.094   1.080   2.789 -0.1223 -0.0829 -0.2182
15259TIP3    H167192   6.015   1.027   2.780  0.5821 -1.4743  1.3531
15259TIP3    H267193   6.151   1.030   2.847  2.2160  0.5716 -1.7984
15260TIP3   OH267194   1.998   2.609   5.315 -0.4237 -0.4103  0.3087
15260TIP3    H167195   2.031   2.573   5.397  0.5522  2.3843  1.2795
15260TIP3    H267196   2.074   2.611   5.257 -1.1096 -2.3687 -0.7464
15261TIP3   OH267197   4.756   2.555  16.046 -0.0134  0.3699 -0.3849
15261TIP3    H167198   4.761   2.470  16.001  0.5761 -0.4836  1.2264
15261TIP3    H267199   4.842   2.566  16.086 -0.4081  1.2729  0.2408
15262TIP3   OH267200   3.806   2.862   0.017 -0.5000  0.2147 -0.0005
15262TIP3    H167201   3.820   2.876   0.111  0.9800  2.6341 -0.4751
15262TIP3    H267202   3.868   2.793  -0.006  0.9642  1.3028  0.4502
15263TIP3   OH267203   1.759   0.614  16.139 -1.1956 -0.8699 -0.3720
15263TIP3    H167204   1.762   0.524  16.171  2.1550 -0.8995 -0.4511
15263TIP3    H267205   1.784   0.667  16.215 -1.4941 -0.1609 -0.7616
15264TIP3   OH267206   0.648   3.425   5.172  0.1203 -0.9560  0.4490
15264TIP3    H167207   0.661   3.375   5.252 -0.7426 -1.1720  0.4632
15264TIP3    H267208   0.571   3.479   5.190  1.4241  0.9159  0.6988
15265TIP3   OH267209   1.534   5.968   6.458  0.6257  0.1851 -0.5585
15265TIP3    H167210   1.547   5.900   6.525 -1.7193 -1.2591 -1.4588
15265TIP3    H267211   1.501   5.921   6.382  1.2113  2.0780 -2.0544
15266TIP3   OH267212   2.944   3.813   3.352  0.1028 -0.2747  0.3490
15266TIP3    H167213   2.955   3.907   3.340 -0.1766 -0.1345  1.1244
15266TIP3    H267214   2.903   3.804   3.438 -1.4003 -1.0198 -0.4021
15267TIP3   OH267215   5.934   0.355   0.353 -0.2303  0.0011  0.2249
15267TIP3    H167216   5.878   0.282   0.378 -1.8512  1.6213  1.5903
15267TIP3    H267217   5.933   0.354   0.258 -2.1121 -0.4023  0.2036
15268TIP3   OH267218   4.243   3.179   3.928 -0.1768  0.5859  0.2384
15268TIP3    H167219   4.160   3.148   3.891 -0.2252  1.4173 -0.3877
15268TIP3    H267220   4.299   3.101   3.930 -0.7330  0.1728 -0.0108
15269TIP3   OH267221   5.904   1.004  16.835  0.3141  0.3608  0.0769
15269TIP3    H167222   5.951   0.947  16.896  0.9813 -0.9228 -1.5682
15269TIP3    H267223   5.916   1.092  16.871  2.6392 -0.0975  0.5813
15270TIP3   OH267224   6.776   1.990  13.034 -0.1093 -0.7327 -0.5601
15270TIP3    H167225   6.833   2.042  12.978 -0.9279  0.3106 -0.4667
15270TIP3    H267226   6.770   1.905  12.990  0.7913 -0.5608 -1.0300
15271TIP3   OH267227   6.166   1.740  13.567 -0.3551  0.1078  0.0611
15271TIP3    H167228   6.105   1.811  13.546  0.1756  0.3706 -0.6309
15271TIP3    H267229   6.138   1.667  13.512 -0.7249 -0.1300  0.5608
15272TIP3   OH267230   4.996   4.518   3.289 -0.6291 -0.0012 -0.3981
15272TIP3    H167231   4.963   4.485   3.206  0.9380  0.7734 -1.3984
15272TIP3    H267232   4.958   4.606   3.297  0.5072  0.5967 -1.1824
15273TIP3   OH267233   5.601   3.768  13.694 -0.6446  0.4635  0.3736
15273TIP3    H167234   5.643   3.791  13.777  1.5608  0.8959 -0.7725
15273TIP3    H267235   5.560   3.683  13.710 -2.0121  1.4405  2.4331
15274TIP3   OH267236   3.771   2.409   3.838 -0.2791 -0.1166  0.0822
15274TIP3    H167237   3.781   2.472   3.767 -1.0221 -1.1421 -0.9714
15274TIP3    H267238   3.707   2.449   3.897  0.7263  0.9718  0.4716
15275TIP3   OH267239   3.172   4.615  15.204  0.4525  0.1248  0.0283
15275TIP3    H167240   3.162   4.531  15.158  2.7092  0.1931 -0.6773
15275TIP3    H267241   3.227   4.594  15.280  1.1677  0.9725 -0.2427
15276TIP3   OH267242   6.464   5.980   6.102  0.4446  0.4576 -0.1504
15276TIP3    H167243   6.504   5.913   6.157 -1.0980 -0.0913  0.3344
15276TIP3    H267244   6.520   6.057   6.114  1.1529 -0.1774  0.7613
15277TIP3   OH267245   0.024   1.058  12.006 -0.1384 -0.0047 -0.1262
15277TIP3    H167246  -0.053   1.011  12.037  0.6739 -1.0749  0.3412
15277TIP3    H267247   0.098   1.008  12.040  0.7672  0.8950 -0.7110
15278TIP3   OH267248   3.701   1.157  13.705 -0.5857 -0.2769  0.3625
15278TIP3    H167249   3.795   1.152  13.690 -0.9294 -2.0413 -1.7213
15278TIP3    H267250   3.677   1.246  13.679 -0.0217 -1.0350 -3.3368
15279TIP3   OH267251   6.673   2.635   1.694 -0.3515 -0.5442 -0.1441
15279TIP3    H167252   6.674   2.556   1.640  2.0253 -0.1179 -0.8179
15279TIP3    H267253   6.708   2.606   1.779  1.3127 -0.0842 -0.6505
15280TIP3   OH267254   5.601   0.285  12.218  0.0644 -0.1877  0.1525
15280TIP3    H167255   5.520   0.258  12.175  0.3947 -0.2347 -0.4467
15280TIP3    H267256   5.653   0.205  12.224  1.2992  0.3527 -2.1769
15281TIP3   OH267257   6.772   0.604   6.104 -0.0481  0.1570  0.5203
15281TIP3    H167258   6.844   0.619   6.042  0.0574  0.5853  0.7461
15281TIP3    H267259   6.707   0.670   6.082 -1.4007 -1.6172 -1.1755
15282TIP3   OH267260   0.328   2.452  12.288  0.0913  0.4754 -0.1615
15282TIP3    H167261   0.294   2.375  12.335 -0.7813  1.1546  0.3639
15282TIP3    H267262   0.287   2.447  12.202 -1.3225  1.2137  0.4227
15283TIP3   OH267263   5.198   5.839  15.449 -0.6952  0.4246  0.9033
15283TIP3    H167264   5.238   5.922  15.476 -1.7607  1.7594 -1.3279
15283TIP3    H267265   5.148   5.810  15.526 -0.9718  2.3145  1.4898
15284TIP3   OH267266   5.498   5.200   5.528  0.5256 -0.1910 -0.4103
15284TIP3    H167267   5.484   5.119   5.477  2.3039 -0.0234 -1.2387
15284TIP3    H267268   5.582   5.186   5.572  1.0977  1.3872 -0.9505
15285TIP3   OH267269   6.467   3.889   4.196 -0.1371  0.1737 -0.3935
15285TIP3    H167270   6.514   3.880   4.279 -2.5889 -1.3302  0.9642
15285TIP3    H267271   6.398   3.952   4.215 -1.5240 -1.1613 -0.8504
15286TIP3   OH267272   2.975   5.082   3.381  0.3915  0.3089  0.1047
15286TIP3    H167273   2.897   5.064   3.330  0.7563  1.4448 -0.9165
15286TIP3    H267274   2.950   5.065   3.472 -0.8929  0.2192 -0.2579
15287TIP3   OH267275   3.292   5.930  16.951 -0.6014 -0.9291 -0.2845
15287TIP3    H167276   3.286   5.867  16.879 -1.6999  0.0292 -1.0630
15287TIP3    H267277   3.315   6.013  16.909 -0.2980 -0.5513  0.5915
15288TIP3   OH267278   4.506   6.024  15.193  0.3958  0.2301  0.1457
15288TIP3    H167279   4.422   6.003  15.234  0.6437 -1.7001 -0.2271
15288TIP3    H267280   4.498   6.116  15.168 -1.9824 -0.1482 -0.7590
15289TIP3   OH267281   1.935   0.511  13.270  0.4816  0.2916 -0.7723
15289TIP3    H167282   1.859   0.566  13.289 -0.0053  0.6790 -3.4062
15289TIP3    H267283   2.009   0.571  13.267  0.5898  0.2034 -0.0562
15290TIP3   OH267284   5.905   5.447   3.650 -0.6554 -0.7109 -0.1678
15290TIP3    H167285   5.974   5.463   3.586  0.9931 -2.5327  1.0004
15290TIP3    H267286   5.888   5.532   3.690 -0.1176  0.0309 -1.4824
15291TIP3   OH267287   6.010   0.600   5.282 -0.1854  0.6147 -0.0208
15291TIP3    H167288   5.969   0.680   5.247  2.5352  2.5209  0.8401
15291TIP3    H267289   6.027   0.621   5.374 -0.3110 -1.3979  0.4971
15292TIP3   OH267290   6.412   3.586   4.842 -0.1679  0.1596 -0.0111
15292TIP3    H167291   6.383   3.635   4.920 -1.5144  0.6318 -0.7768
15292TIP3    H267292   6.507   3.595   4.843 -0.3430  3.4358 -0.4612
15293TIP3   OH267293   3.084   2.791  11.210 -0.2356  0.0907  0.0614
15293TIP3    H167294   3.127   2.826  11.132  2.3877  1.0771  1.7977
15293TIP3    H267295   3.069   2.699  11.189 -0.9532  0.6584 -2.1080
15294TIP3   OH267296   1.288   0.700   5.771 -0.5735 -0.2405  0.0151
15294TIP3    H167297   1.328   0.702   5.858 -1.9807  3.1272  0.7293
15294TIP3    H267298   1.353   0.739   5.713 -0.8212  0.4393  0.1865
15295TIP3   OH267299   3.531   4.231  12.474  0.6056 -0.6379 -0.0930
15295TIP3    H167300   3.462   4.287  12.439 -2.0498 -2.1627  2.3536
15295TIP3    H267301   3.594   4.291  12.513 -0.6239  0.7401 -0.1639
15296TIP3   OH267302   4.675   0.951  11.945  0.6930 -0.2514 -0.4264
15296TIP3    H167303   4.707   0.870  11.906  1.9788 -0.7203  1.4589
15296TIP3    H267304   4.739   1.017  11.919 -0.3716  0.2396 -1.9898
15297TIP3   OH267305   1.987   6.177   1.381  0.1165 -0.1012  0.5321
15297TIP3    H167306   1.968   6.099   1.328 -2.5541  0.2433  0.8089
15297TIP3    H267307   1.918   6.177   1.448  1.4259  1.2812  1.9497
15298TIP3   OH267308   3.502   4.145   3.454  0.2867 -0.2847  0.0554
15298TIP3    H167309   3.432   4.205   3.476  0.8857  0.9417 -1.2338
15298TIP3    H267310   3.577   4.201   3.435  1.1327 -1.4797 -0.2656
15299TIP3   OH267311   6.335   1.909  11.707 -0.1039  0.0816  0.1831
15299TIP3    H167312   6.373   1.930  11.622 -1.1618 -1.2752 -0.6675
15299TIP3    H267313   6.245   1.942  11.703 -0.4297 -0.7494  0.4397
15300TIP3   OH267314   5.261   1.994   1.998 -0.2069 -0.1946  0.0225
15300TIP3    H167315   5.345   1.956   1.973  0.0662  0.3614  0.0819
15300TIP3    H267316   5.233   1.941   2.073  1.8322  1.8148  2.3773
15301TIP3   OH267317   3.037   6.427   0.764 -0.2660 -0.3909  0.6551
15301TIP3    H167318   2.984   6.382   0.830  0.1858 -2.3362 -0.2570
15301TIP3    H267319   2.978   6.494   0.728 -1.3205 -0.9290  1.3301
15302TIP3   OH267320   4.869   2.973  14.451  0.1154  0.1486  0.5848
15302TIP3    H167321   4.846   2.901  14.510  0.7359 -0.9864 -0.5223
15302TIP3    H267322   4.919   3.034  14.506  3.1486 -2.2172  0.7166
15303TIP3   OH267323   2.731   3.213  16.129 -0.0037  0.0085  0.0633
15303TIP3    H167324   2.819   3.208  16.092  0.0344 -1.7677  0.2939
15303TIP3    H267325   2.728   3.298  16.173  0.8018  1.0880 -1.8295
15304TIP3   OH267326   1.295   0.330   0.536 -0.5074  0.5508  0.0412
15304TIP3    H167327   1.287   0.358   0.627  0.2575  1.0136 -0.0299
15304TIP3    H267328   1.296   0.234   0.541  1.7991  0.5571  0.7493
15305TIP3   OH267329   0.436   2.354   1.414  0.6361  0.1883  0.1091
15305TIP3    H167330   0.486   2.317   1.341  2.4474 -0.4401  1.5832
15305TIP3    H267331   0.356   2.388   1.373  0.6267 -1.9394 -1.8658
15306TIP3   OH267332   5.090   3.527  12.320 -0.3286 -0.4636 -0.0291
15306TIP3    H167333   5.085   3.449  12.375  0.2392 -1.1749 -0.9594
15306TIP3    H267334   4.999   3.556  12.313 -0.9816 -2.6416 -1.8803
15307TIP3   OH267335   0.830   5.606   1.726 -0.0587  0.1794  0.4054
15307TIP3    H167336   0.859   5.686   1.681 -0.1433  0.3843  0.7151
15307TIP3    H267337   0.738   5.623   1.746  0.3671  0.7247  2.0390
15308TIP3   OH267338   3.163   0.525  15.326  0.5025 -0.8399 -0.0703
15308TIP3    H167339   3.228   0.475  15.276  0.6022 -1.3886  0.5933
15308TIP3    H267340   3.079   0.500  15.289  0.6742  0.0967 -1.1326
15309TIP3   OH267341   0.744   5.751  11.021  0.3346 -0.5039  0.0014
15309TIP3    H167342   0.664   5.770  10.971 -0.8591 -2.3939  1.0808
15309TIP3    H267343   0.747   5.818  11.088 -0.7085 -0.7732  0.3330
15310TIP3   OH267344   5.666   4.776  15.911 -0.5369  0.2269 -0.5954
15310TIP3    H167345   5.698   4.835  15.843 -0.5742  0.8486 -0.0842
15310TIP3    H267346   5.575   4.801  15.924 -0.4433  0.3164 -0.1020
15311TIP3   OH267347   1.921   2.754  14.229  0.3278 -0.0648 -0.0169
15311TIP3    H167348   1.857   2.782  14.164 -1.6858 -0.8818  1.5183
15311TIP3    H267349   1.873   2.752  14.311  2.7624  0.8982  1.5642
15312TIP3   OH267350   3.183   6.081   1.925 -0.1660  0.5138 -0.0519
15312TIP3    H167351   3.111   6.036   1.881  0.1306 -0.7960  0.7644
15312TIP3    H267352   3.173   6.058   2.017  0.2468  1.8078  0.3373
15313TIP3   OH267353   1.393   1.599   5.248  0.1506  0.3701 -0.2284
15313TIP3    H167354   1.484   1.568   5.242 -0.2422 -0.8676 -0.1098
15313TIP3    H267355   1.381   1.652   5.169  1.2185  1.2588  0.1740
15314TIP3   OH267356   3.572   1.349  11.451  0.3119  0.2736  0.5806
15314TIP3    H167357   3.637   1.394  11.505  2.2888 -0.6593 -0.8949
15314TIP3    H267358   3.615   1.267  11.425 -1.0694  0.0721 -1.2727
15315TIP3   OH267359   1.764   1.664   1.430  0.0893 -0.5685 -0.2912
15315TIP3    H167360   1.839   1.692   1.482  0.5304 -0.9183 -0.7220
15315TIP3    H267361   1.772   1.715   1.349 -0.4095 -0.2618 -0.1513
15316TIP3   OH267362   4.854   1.638   0.711  0.4241 -0.0053  0.2063
15316TIP3    H167363   4.918   1.699   0.748  0.5617 -0.2776  0.4240
15316TIP3    H267364   4.786   1.631   0.778  1.2465 -1.3995  0.9450
15317TIP3   OH267365   0.574   0.159   4.470 -0.4163 -0.4200 -0.3678
15317TIP3    H167366   0.614   0.082   4.509 -0.2635 -0.1248  0.0700
15317TIP3    H267367   0.517   0.125   4.401 -1.4977 -1.0374  0.7814
15318TIP3   OH267368   3.987   4.232   4.090 -0.0624  0.5370 -0.0238
15318TIP3    H167369   3.992   4.300   4.023  1.2880  0.9846  0.5085
15318TIP3    H267370   3.905   4.250   4.136 -0.5139  0.8151 -0.9145
15319TIP3   OH267371   6.319   3.587   0.116 -0.0833 -0.0148 -0.1833
15319TIP3    H167372   6.358   3.508   0.079 -0.9141 -0.3158 -0.4474
15319TIP3    H267373   6.380   3.657   0.093 -0.4976 -0.2084 -2.0341
15320TIP3   OH267374   2.149   6.296  12.453 -0.4913 -0.2271  0.1106
15320TIP3    H167375   2.226   6.241  12.440  0.5537  1.1682  0.1482
15320TIP3    H267376   2.167   6.344  12.534 -1.9576 -0.7507  0.7777
15321TIP3   OH267377   4.198   1.990   2.434 -0.3023  0.9500 -0.0795
15321TIP3    H167378   4.288   1.987   2.467 -0.4570 -0.1572  0.2926
15321TIP3    H267379   4.147   2.025   2.506 -0.1925  1.4705 -0.2507
15322TIP3   OH267380   3.948   4.948   4.219 -0.0223 -0.6629  0.2578
15322TIP3    H167381   3.991   4.964   4.303 -2.7845 -1.4686  1.9565
15322TIP3    H267382   3.968   5.026   4.167 -0.3694  1.1181  2.6296
15323TIP3   OH267383   2.845   1.066  12.647 -0.2385  0.0393  0.4051
15323TIP3    H167384   2.814   0.975  12.643 -0.7007  0.2035  0.2389
15323TIP3    H267385   2.927   1.061  12.697 -1.6194 -0.1032  2.7970
15324TIP3   OH267386   5.402   4.135  17.095  0.7112  0.2063  0.5868
15324TIP3    H167387   5.420   4.115  17.003  0.2195  0.4500  0.4316
15324TIP3    H267388   5.403   4.231  17.099 -0.1022  0.2164  0.6623
15325TIP3   OH267389   5.707   3.397  15.352 -0.0791  0.0674 -0.5933
15325TIP3    H167390   5.660   3.380  15.271 -0.6240 -1.7590  0.0653
15325TIP3    H267391   5.726   3.311  15.388 -1.0179  0.8115  1.9047
15326TIP3   OH267392   3.832   0.458  13.585 -0.4223 -0.4414  0.4663
15326TIP3    H167393   3.828   0.536  13.639  0.5412 -0.5906  0.7834
15326TIP3    H267394   3.741   0.432  13.572 -0.6953  0.0611  1.3297
15327TIP3   OH267395   1.136   3.707   3.283  0.3419 -0.1779 -0.1086
15327TIP3    H167396   1.178   3.707   3.198 -0.8992  0.3658 -0.7514
15327TIP3    H267397   1.109   3.617   3.297 -0.8012  0.0023 -1.0136
15328TIP3   OH267398   2.517   3.026   5.186  0.4418  0.1890  0.2594
15328TIP3    H167399   2.592   2.967   5.184  1.2029  1.0930 -3.0597
15328TIP3    H267400   2.447   2.976   5.143 -0.1963  0.1986  1.2631
15329TIP3   OH267401   4.591   2.067   1.615  0.7834  0.2881  0.3206
15329TIP3    H167402   4.502   2.044   1.640 -0.4446  3.8321 -0.1885
15329TIP3    H267403   4.600   2.036   1.525  0.0931 -0.1849  0.4114
15330TIP3   OH267404   4.368   4.223  12.426  0.0075 -0.2953  0.2117
15330TIP3    H167405   4.274   4.233  12.413 -0.3055 -0.6431  1.9555
15330TIP3    H267406   4.391   4.292  12.489  1.0337  0.0952 -0.5517
15331TIP3   OH267407   0.911   6.561   3.465  0.3918  0.3988 -0.3404
15331TIP3    H167408   0.910   6.472   3.430  0.0764  0.5851 -0.8050
15331TIP3    H267409   0.838   6.563   3.526  1.8145 -0.3743  1.4850
15332TIP3   OH267410   6.733   0.143   3.450  0.7639  0.0962 -0.0759
15332TIP3    H167411   6.750   0.185   3.366  0.2022 -2.2620 -1.4675
15332TIP3    H267412   6.774   0.056   3.442 -1.8971 -1.3584  0.8545
15333TIP3   OH267413   2.645   5.097   2.266 -0.2125 -0.1913  0.3443
15333TIP3    H167414   2.565   5.103   2.214  1.0339  1.0701 -1.5501
15333TIP3    H267415   2.710   5.062   2.206  0.6146 -1.6338  1.9866
15334TIP3   OH267416   6.166   2.434  14.790 -0.0033  0.1027 -0.2830
15334TIP3    H167417   6.235   2.496  14.767  0.6053  0.0712  1.3452
15334TIP3    H267418   6.175   2.423  14.884 -1.7869 -0.4689 -0.1619
15335TIP3   OH267419   2.003   1.619   3.181 -0.4076  0.2280  0.3703
15335TIP3    H167420   1.928   1.648   3.234  0.5455  0.0096  1.8898
15335TIP3    H267421   2.053   1.562   3.239 -0.3385 -1.6501 -1.4261
15336TIP3   OH267422   6.352   2.713   2.328 -0.6392  0.3002 -0.0545
15336TIP3    H167423   6.422   2.760   2.283 -2.7977  1.9746 -1.9701
15336TIP3    H267424   6.308   2.663   2.258 -3.3166  1.9539  0.2811
15337TIP3   OH267425   5.317   1.246  15.872 -0.3885 -0.3400 -0.2323
15337TIP3    H167426   5.368   1.326  15.857  0.4541 -0.6911  0.6913
15337TIP3    H267427   5.357   1.205  15.948  0.9011 -3.0045 -2.1836
15338TIP3   OH267428   0.874   0.953   0.159 -0.5271 -0.7645 -0.3144
15338TIP3    H167429   0.964   0.928   0.138 -0.2424  0.9802 -1.3565
15338TIP3    H267430   0.836   0.978   0.075 -0.8268  2.0130  0.5365
15339TIP3   OH267431   4.671   5.264  12.139 -0.2711  0.3644  0.1445
15339TIP3    H167432   4.674   5.170  12.156 -1.3764 -0.0771 -1.8366
15339TIP3    H267433   4.645   5.271  12.047 -4.1925  2.6153  1.2038
15340TIP3   OH267434   3.074   4.550  16.988  0.4677  0.3798  0.0213
15340TIP3    H167435   3.104   4.468  17.027  1.0357  0.2310 -0.7141
15340TIP3    H267436   3.020   4.523  16.914 -0.2446  0.6670  0.4260
15341TIP3   OH267437   1.207   4.759  16.691  0.3192 -0.0808 -0.5751
15341TIP3    H167438   1.210   4.855  16.700  0.8471 -0.0838 -0.7307
15341TIP3    H267439   1.143   4.743  16.622 -0.4903  0.1195  0.1092
15342TIP3   OH267440   3.216   2.707   0.034  0.3723  0.3061  0.0419
15342TIP3    H167441   3.136   2.692  -0.015  1.0501 -0.4750 -0.8592
15342TIP3    H267442   3.256   2.784  -0.007  0.6560  0.0002 -0.2526
15343TIP3   OH267443   6.425   0.873  14.528  0.2160 -0.0448  0.1079
15343TIP3    H167444   6.454   0.841  14.613  1.4842  0.2785 -0.1810
15343TIP3    H267445   6.410   0.966  14.541  2.0827  0.3586 -0.4085
15344TIP3   OH267446   3.287   1.693  10.931  0.3897  0.2625  0.4491
15344TIP3    H167447   3.308   1.649  11.014  0.3370 -0.0240  0.3111
15344TIP3    H267448   3.252   1.623  10.875  1.0845  0.3137 -0.0581
15345TIP3   OH267449   0.920   2.748   4.895  0.0391  0.4418  0.2424
15345TIP3    H167450   1.010   2.738   4.862  0.3747  1.3418  0.8477
15345TIP3    H267451   0.881   2.814   4.838 -1.0095 -1.5560 -1.4737
15346TIP3   OH267452   4.852   4.432   5.859 -0.0973 -0.4757 -0.4072
15346TIP3    H167453   4.941   4.406   5.837 -0.2903 -1.2215 -0.3309
15346TIP3    H267454   4.858   4.470   5.946  0.3447  0.6391 -0.9100
15347TIP3   OH267455   1.829   5.890  16.674  0.1557 -0.7337 -0.5736
15347TIP3    H167456   1.858   5.895  16.765  2.4762 -1.3552 -1.2207
15347TIP3    H267457   1.745   5.935  16.674  0.9083  0.8473  1.5371
15348TIP3   OH267458   5.152   4.765  15.869  0.1508  0.0481 -1.1960
15348TIP3    H167459   5.094   4.707  15.918 -1.0414  0.6314 -1.8834
15348TIP3    H267460   5.172   4.715  15.789  2.2603 -0.9902 -0.0943
15349TIP3   OH267461   1.720   2.589   2.377 -0.4540  0.0523  0.0194
15349TIP3    H167462   1.718   2.494   2.365 -0.0768  0.0505 -0.0520
15349TIP3    H267463   1.654   2.606   2.444 -1.0887 -0.1662 -0.5520
15350TIP3   OH267464   0.824   5.269   1.257 -0.0038  0.0284  0.5332
15350TIP3    H167465   0.877   5.277   1.336  2.0428  1.0340 -0.8534
15350TIP3    H267466   0.764   5.197   1.276  0.7160 -0.0612  2.8110
15351TIP3   OH267467   0.902   3.776  16.130 -0.1122 -0.0597  0.0177
15351TIP3    H167468   0.953   3.791  16.050 -0.4017  1.0967  0.0203
15351TIP3    H267469   0.905   3.682  16.144  2.1989 -0.0159  0.1447
15352TIP3   OH267470   5.959   5.145  16.852 -0.7833  0.0427 -0.0961
15352TIP3    H167471   5.942   5.057  16.816 -1.1838  0.6420 -1.4544
15352TIP3    H267472   6.026   5.131  16.919 -1.2591 -1.3765  0.1277
15353TIP3   OH267473   0.368   5.848   4.536 -0.1681  0.0766 -0.5489
15353TIP3    H167474   0.378   5.930   4.489  0.3380 -1.2762 -2.9624
15353TIP3    H267475   0.457   5.824   4.562 -0.4525  0.8635  1.3040
15354TIP3   OH267476   0.801   1.505   4.176 -0.2423  0.0369 -0.2258
15354TIP3    H167477   0.738   1.496   4.247 -1.0522  0.9248 -0.8059
15354TIP3    H267478   0.869   1.564   4.211 -0.4309  0.1531 -0.0529
15355TIP3   OH267479   4.704   6.532  13.821  0.3657  0.1790  0.1806
15355TIP3    H167480   4.680   6.442  13.797  0.5809 -0.2496  1.5192
15355TIP3    H267481   4.749   6.566  13.743 -0.6978 -0.4686 -0.7600
15356TIP3   OH267482   0.346   5.353  14.168 -0.0946  0.2680  0.1592
15356TIP3    H167483   0.417   5.416  14.177 -0.6065  1.1228 -1.3895
15356TIP3    H267484   0.266   5.404  14.181 -0.6168  0.4778 -3.0666
15357TIP3   OH267485   3.254   1.199  15.713 -0.1851 -0.0240  0.1834
15357TIP3    H167486   3.322   1.180  15.778 -0.4328  0.6780  0.6612
15357TIP3    H267487   3.268   1.134  15.644  0.3697 -0.4905  0.7221
15358TIP3   OH267488   4.559   4.654  14.926 -0.1578 -0.2647 -0.6894
15358TIP3    H167489   4.488   4.639  14.864  0.2305 -1.0141 -0.9647
15358TIP3    H267490   4.514   4.672  15.009 -0.6968 -2.2528 -0.5010
15359TIP3   OH267491   1.545   1.632  13.006 -0.3603  0.1695  0.0981
15359TIP3    H167492   1.459   1.671  13.015  0.6937  2.6164  0.4425
15359TIP3    H267493   1.571   1.650  12.915 -0.2121 -0.5324 -0.0020
15360TIP3   OH267494   4.399   0.578  14.923  0.2835 -0.0490  1.1317
15360TIP3    H167495   4.321   0.632  14.935  0.6898  0.6419  0.7525
15360TIP3    H267496   4.471   0.636  14.948  0.7645 -0.2292  0.1949
15361TIP3   OH267497   6.523   5.367   3.765  0.0481 -0.0730  0.2459
15361TIP3    H167498   6.429   5.349   3.764  0.1353 -0.7262  1.4701
15361TIP3    H267499   6.529   5.460   3.788 -0.2970  0.0763 -0.2433
15362TIP3   OH267500   3.000   3.731   0.711 -0.0524  0.0198  0.1533
15362TIP3    H167501   3.012   3.754   0.803 -2.5338  0.4976  0.4125
15362TIP3    H267502   2.911   3.760   0.690 -0.5378 -2.4566 -1.6704
15363TIP3   OH267503   6.300   0.516   2.000 -0.2466 -0.5190  0.3335
15363TIP3    H167504   6.330   0.550   1.915 -0.3664  0.0452  0.5156
15363TIP3    H267505   6.217   0.472   1.981 -0.7741  0.4698  0.3241
15364TIP3   OH267506   2.946   4.866  12.230  0.1638  0.1820  0.2800
15364TIP3    H167507   3.001   4.926  12.180  0.9290 -0.5578  0.2100
15364TIP3    H267508   2.866   4.856  12.178 -0.2127  1.5564  0.5672
15365TIP3   OH267509   0.576   6.140  15.547  0.1984  0.3169  0.0751
15365TIP3    H167510   0.646   6.079  15.570 -0.7415 -1.2468 -1.0026
15365TIP3    H267511   0.520   6.143  15.624 -0.5988 -1.4670 -0.3979
15366TIP3   OH267512   1.528   1.310   4.100 -0.3727 -0.0809 -0.7040
15366TIP3    H167513   1.529   1.292   4.006 -0.9592 -0.7024 -0.6026
15366TIP3    H267514   1.535   1.224   4.140 -1.6885  0.0344 -0.1887
15367TIP3   OH267515   4.763   5.469   1.535 -0.0382  0.5702  0.3935
15367TIP3    H167516   4.722   5.399   1.485  0.8109 -0.1513  0.6724
15367TIP3    H267517   4.804   5.424   1.609 -0.9328  1.5604  1.5396
15368TIP3   OH267518   4.775   2.589  13.905 -0.8625  0.1009  0.4200
15368TIP3    H167519   4.856   2.625  13.940 -1.2396 -1.2074  2.9090
15368TIP3    H267520   4.707   2.649  13.937 -1.0942 -0.2642  0.6175
15369TIP3   OH267521   1.473   6.508  14.507  0.3571 -0.1833 -0.4197
15369TIP3    H167522   1.496   6.494  14.599  1.1144 -3.1701 -0.9806
15369TIP3    H267523   1.459   6.421  14.471  0.2338  0.8696 -3.2106
15370TIP3   OH267524   0.447   2.932  12.039  0.1556  0.0385  0.1219
15370TIP3    H167525   0.528   2.919  12.088 -0.0460 -0.3098  0.3691
15370TIP3    H267526   0.385   2.967  12.104  0.3153  0.9832 -0.2339
15371TIP3   OH267527   3.586   1.410  13.861 -0.2166  0.5175  0.5714
15371TIP3    H167528   3.669   1.401  13.909 -0.4353 -2.5590  0.5933
15371TIP3    H267529   3.519   1.387  13.926 -1.2138  3.3639  0.6686
15372TIP3   OH267530   4.922   0.830   0.436  0.0524  0.0387 -0.6280
15372TIP3    H167531   4.907   0.760   0.500  2.3922  0.1349  0.0853
15372TIP3    H267532   4.956   0.903   0.487  1.7353  0.2010 -1.9023
15373TIP3   OH267533   5.736   1.440  12.943  0.0695 -0.2407  0.3485
15373TIP3    H167534   5.823   1.402  12.929  0.8462  1.6899 -0.2969
15373TIP3    H267535   5.698   1.445  12.856 -0.9854 -1.6251  0.6887
15374TIP3   OH267536   2.625   6.014  12.703 -0.1428 -0.4452 -0.1132
15374TIP3    H167537   2.699   5.989  12.646 -0.5434 -0.3393 -0.6911
15374TIP3    H267538   2.550   6.017  12.644 -0.1047  2.2960 -0.1340
15375TIP3   OH267539   3.027   5.088  11.803 -0.3508 -0.5202 -0.2023
15375TIP3    H167540   3.118   5.079  11.832  0.2921  1.7158 -1.2720
15375TIP3    H267541   3.016   5.024  11.734  0.2810 -1.0763  0.2051
15376TIP3   OH267542   1.516   1.481   3.557 -0.1178 -0.2527 -0.1768
15376TIP3    H167543   1.577   1.553   3.542  1.6217 -1.4192  0.9885
15376TIP3    H267544   1.556   1.406   3.512 -2.1322 -0.4562 -1.7888
15377TIP3   OH267545   1.760   2.915   6.172  0.2841 -0.4655  0.2357
15377TIP3    H167546   1.704   2.837   6.170 -0.7657  0.2692 -1.4712
15377TIP3    H267547   1.844   2.884   6.138 -0.0423 -0.9372 -0.1716
15378TIP3   OH267548   4.049   2.591   3.061  0.2420  0.5348  0.2965
15378TIP3    H167549   4.082   2.630   3.142  0.7955  1.5181 -0.3782
15378TIP3    H267550   3.954   2.589   3.072  0.4008 -1.3384  1.8345
15379TIP3   OH267551   6.642   2.652  15.363  0.1871 -0.2846 -0.7158
15379TIP3    H167552   6.591   2.575  15.336 -1.3853 -0.0842  1.4340
15379TIP3    H267553   6.589   2.726  15.335 -0.5047 -0.0678  1.0472
15380TIP3   OH267554   6.498   4.096   0.965 -0.1005 -0.2462  0.4069
15380TIP3    H167555   6.478   4.094   0.871  0.2077 -1.5008  0.3411
15380TIP3    H267556   6.570   4.034   0.975 -0.1236 -0.1209  1.4701
15381TIP3   OH267557   5.471   4.439  15.967  0.5320 -0.1611  0.1111
15381TIP3    H167558   5.437   4.364  15.918  3.1847 -1.7234  0.4293
15381TIP3    H267559   5.403   4.459  16.031 -0.5666 -1.8675 -0.4445
15382TIP3   OH267560   3.494   6.710   5.026 -0.3635 -0.2338  0.1794
15382TIP3    H167561   3.463   6.800   5.010 -0.7895 -0.6704 -1.8058
15382TIP3    H267562   3.438   6.677   5.095  0.7188  1.4590  1.9624
15383TIP3   OH267563   2.951   4.614   1.314 -0.7096  1.1482 -0.1731
15383TIP3    H167564   2.985   4.675   1.248 -0.2400  0.5024 -0.5367
15383TIP3    H267565   2.914   4.671   1.382 -0.3531  1.8388 -0.5421
15384TIP3   OH267566   0.592   2.562  15.183  0.3549  0.0643  0.3770
15384TIP3    H167567   0.619   2.497  15.118  1.5747  1.1277 -0.2313
15384TIP3    H267568   0.535   2.622  15.135  0.2697  0.1623  0.5999
15385TIP3   OH267569   0.931   2.781   1.766 -0.2365  0.2132  0.3529
15385TIP3    H167570   1.007   2.794   1.709 -0.3487  3.0799  0.7138
15385TIP3    H267571   0.952   2.702   1.815  1.5415 -0.2490 -1.0482
15386TIP3   OH267572   3.695   0.540  14.595 -0.1314  0.2636 -0.2860
15386TIP3    H167573   3.738   0.504  14.672 -0.7769  1.5862  0.7380
15386TIP3    H267574   3.677   0.631  14.618 -2.4566  0.0787 -1.0577
15387TIP3   OH267575   1.966   1.664   6.207  0.0614  0.5456  0.2141
15387TIP3    H167576   2.005   1.584   6.172  1.2884  0.6063  1.3603
15387TIP3    H267577   2.001   1.734   6.152 -0.3569  0.3921 -0.2627
15388TIP3   OH267578   1.168   3.163   4.809  0.1559 -0.1492 -0.0126
15388TIP3    H167579   1.207   3.100   4.748  0.2548 -0.5397  0.4435
15388TIP3    H267580   1.111   3.217   4.755  3.8074  2.7506 -1.4575
15389TIP3   OH267581   2.483   5.732   6.633 -0.1213 -0.3700  0.5073
15389TIP3    H167582   2.391   5.727   6.607  0.6019 -0.7619 -2.2609
15389TIP3    H267583   2.501   5.826   6.637 -0.0346 -0.2544 -1.5795
15390TIP3   OH267584   5.704   5.028   4.795  0.3521  0.6501 -0.3175
15390TIP3    H167585   5.781   4.978   4.820  0.4246  0.0256 -1.7090
15390TIP3    H267586   5.695   5.095   4.863  0.9067 -0.5419  0.9676
15391TIP3   OH267587   1.229   1.645  16.408 -0.1409  0.2103 -0.0453
15391TIP3    H167588   1.193   1.564  16.445  0.3196 -0.7454 -1.5966
15391TIP3    H267589   1.156   1.684  16.361 -0.2612  0.5157  0.3855
15392TIP3   OH267590   4.310   2.923  13.149  0.3402  0.0476  0.3444
15392TIP3    H167591   4.403   2.910  13.166 -0.1144 -1.4556  2.1640
15392TIP3    H267592   4.287   3.001  13.200  0.3280 -0.4872  1.1789
15393TIP3   OH267593   5.489   4.145   4.700 -0.0164  0.3583  0.0344
15393TIP3    H167594   5.450   4.218   4.653 -1.1875 -0.2643  0.0037
15393TIP3    H267595   5.415   4.098   4.737  0.7808 -0.1670  1.0265
15394TIP3   OH267596   3.815   3.504  11.657 -0.6749 -0.2396  0.0839
15394TIP3    H167597   3.876   3.430  11.661  1.0727  1.1503  0.4199
15394TIP3    H267598   3.816   3.529  11.564  0.8389  0.9885  0.3974
15395TIP3   OH267599   4.255   4.873  13.171 -0.8794  0.6465  0.5427
15395TIP3    H167600   4.178   4.826  13.205  0.3163 -1.2057  0.8459
15395TIP3    H267601   4.252   4.859  13.077 -0.7070  0.2253  0.5975
15396TIP3   OH267602   6.494   6.276   5.364 -0.1813  0.5969 -0.3523
15396TIP3    H167603   6.408   6.273   5.406 -0.6405  1.4378 -1.1768
15396TIP3    H267604   6.554   6.243   5.430 -1.1476 -0.0769  0.2166
15397TIP3   OH267605   4.690   4.007  12.080  0.0872  0.2260 -0.3559
15397TIP3    H167606   4.689   4.013  12.176 -0.8498  0.3575 -0.3604
15397TIP3    H267607   4.600   3.982  12.057  0.7312 -1.5147 -1.1079
15398TIP3   OH267608   6.430   4.297   3.780 -0.0140  0.6537  0.5415
15398TIP3    H167609   6.428   4.342   3.696  0.1667  2.1975  1.3223
15398TIP3    H267610   6.338   4.294   3.808 -0.1156 -0.1588  0.1670
15399TIP3   OH267611   6.236   2.842   6.222 -0.7185  0.1321 -0.1215
15399TIP3    H167612   6.325   2.813   6.243 -1.3202 -2.6036 -0.9378
15399TIP3    H267613   6.211   2.899   6.294  0.4331 -1.9570  2.0569
15400TIP3   OH267614   6.555   0.640  11.525 -0.0839 -0.1046 -0.0984
15400TIP3    H167615   6.542   0.546  11.533  0.1444 -0.1410 -0.1451
15400TIP3    H267616   6.631   0.649  11.468  0.0937  0.1010  0.1666
15401TIP3   OH267617   6.221   6.477   6.013 -0.4168  0.2077 -0.1409
15401TIP3    H167618   6.260   6.397   5.980 -1.3667  0.0623 -0.9634
15401TIP3    H267619   6.292   6.522   6.058 -0.2063 -1.8250  1.7557
15402TIP3   OH267620   6.433   3.318  14.415 -0.0458 -0.2640 -0.1618
15402TIP3    H167621   6.344   3.354  14.425 -0.1742 -0.4877 -0.4853
15402TIP3    H267622   6.427   3.228  14.448  0.9146  0.7799  3.3001
15403TIP3   OH267623   4.907   6.339   2.306 -0.3878 -0.0898  0.6307
15403TIP3    H167624   4.894   6.263   2.250 -0.9314  2.0114 -2.3276
15403TIP3    H267625   4.820   6.361   2.339 -0.1463 -1.0012  1.9807
15404TIP3   OH267626   1.166   6.297  11.940 -0.2101  0.5296  0.3479
15404TIP3    H167627   1.184   6.367  12.003 -0.0467  0.5048  0.3291
15404TIP3    H267628   1.228   6.311  11.870 -1.1397  1.2383 -0.3544
15405TIP3   OH267629   6.015   1.473  15.596 -0.1196  0.2846  0.2204
15405TIP3    H167630   5.942   1.531  15.577 -0.7713 -1.0378 -1.5452
15405TIP3    H267631   6.050   1.449  15.510  0.9233 -0.9463  0.9453
15406TIP3   OH267632   0.657   0.758  13.858  0.3530  0.2454  0.1714
15406TIP3    H167633   0.643   0.761  13.953 -1.0648 -0.5042  0.0091
15406TIP3    H267634   0.572   0.777  13.821  0.8203  0.1903 -0.9583
15407TIP3   OH267635   1.875   4.755   0.477  0.1933  0.3122  0.2740
15407TIP3    H167636   1.921   4.813   0.416  0.5498 -0.0158  0.2317
15407TIP3    H267637   1.850   4.679   0.424  0.0130  0.2752  0.4075
15408TIP3   OH267638   0.947   2.873   5.440  0.4692  0.1965 -0.4511
15408TIP3    H167639   1.020   2.847   5.496 -1.6028  0.6664  2.6495
15408TIP3    H267640   0.918   2.791   5.399  1.0444 -0.4446  0.3967
15409TIP3   OH267641   3.608   6.458   1.104 -0.1679  0.0669  0.1485
15409TIP3    H167642   3.530   6.512   1.116  0.4667  1.2536 -0.8494
15409TIP3    H267643   3.609   6.436   1.010 -1.3504 -3.2344  0.7529
15410TIP3   OH267644   3.333   3.556  13.351 -0.2261  0.5200  0.0504
15410TIP3    H167645   3.418   3.596  13.334  0.3850 -0.7490  0.0803
15410TIP3    H267646   3.311   3.584  13.440  0.6526  0.0096  0.4351
15411TIP3   OH267647   0.244   6.498   3.611  0.4209  0.0397 -0.0971
15411TIP3    H167648   0.226   6.460   3.525  0.1009  0.5407 -0.2556
15411TIP3    H267649   0.177   6.565   3.622 -0.4094 -0.9605  1.1677
15412TIP3   OH267650   4.376   3.756   5.942 -0.4033 -0.1533 -0.1153
15412TIP3    H167651   4.377   3.825   6.008 -2.4928  0.2214 -0.4128
15412TIP3    H267652   4.321   3.687   5.980  0.5553 -1.0829 -0.3799
15413TIP3   OH267653   4.993   1.567   1.715  0.0791 -0.0616  0.3090
15413TIP3    H167654   4.984   1.494   1.775  0.4982  0.1975  0.6942
15413TIP3    H267655   5.088   1.575   1.701  0.2961  2.0391  2.3266
15414TIP3   OH267656   3.309   6.345  15.998  0.5533 -0.3208 -0.1684
15414TIP3    H167657   3.255   6.411  15.955  1.6956  0.0241 -1.1064
15414TIP3    H267658   3.383   6.331  15.939  1.0925 -1.3676  0.7091
15415TIP3   OH267659   3.089   5.162  16.545 -0.2429 -0.1470 -0.3304
15415TIP3    H167660   3.175   5.153  16.587 -0.1027 -1.0028 -0.7750
15415TIP3    H267661   3.034   5.204  16.611  0.6708  0.9815 -0.2581
15416TIP3   OH267662   5.634   4.460   1.801  0.2057  0.3060  0.4752
15416TIP3    H167663   5.558   4.480   1.855 -0.4697 -0.7278 -0.0595
15416TIP3    H267664   5.703   4.518   1.834 -0.8741  1.4755  0.7834
15417TIP3   OH267665   1.489   0.038  11.388  0.2292  0.4441 -0.0532
15417TIP3    H167666   1.536  -0.045  11.397  1.8407  1.4559  1.6017
15417TIP3    H267667   1.557   0.105  11.398 -1.0367  1.9931 -1.2704
15418TIP3   OH267668   4.198   0.676  14.562  0.3900 -0.0810  0.0886
15418TIP3    H167669   4.270   0.669  14.624 -0.5486 -2.7982  1.0439
15418TIP3    H267670   4.171   0.585  14.547 -1.3577  0.6957 -1.9951
15419TIP3   OH267671   6.058   3.436  11.633 -0.1114  0.4517  0.3428
15419TIP3    H167672   5.969   3.403  11.642  1.1017 -2.9024  1.6195
15419TIP3    H267673   6.081   3.418  11.542  0.2126 -1.5372  0.7831
15420TIP3   OH267674   3.872   4.973  12.498 -0.2204  0.7724  0.0006
15420TIP3    H167675   3.927   4.968  12.577 -1.2056 -0.0436  0.6495
15420TIP3    H267676   3.783   4.982  12.532 -0.6371  0.5825 -1.0321
15421TIP3   OH267677   0.351   0.227   4.633 -0.4756 -0.1729 -0.1017
15421TIP3    H167678   0.429   0.177   4.611 -1.3240 -2.1063  1.0439
15421TIP3    H267679   0.295   0.220   4.555 -0.6046 -1.0484  0.0676
15422TIP3   OH267680   4.997   1.695   3.167 -0.2234 -0.6501  0.7535
15422TIP3    H167681   4.957   1.766   3.218 -1.2558 -1.0654  0.5534
15422TIP3    H267682   5.035   1.739   3.091 -1.0122 -0.3113  0.5388
15423TIP3   OH267683   4.154   1.677   2.473 -0.1826 -0.7623 -0.0096
15423TIP3    H167684   4.139   1.768   2.500  0.8545 -0.9084  1.1759
15423TIP3    H267685   4.230   1.682   2.415 -0.5310 -0.7958 -0.4669
15424TIP3   OH267686   5.665   4.545  17.145  0.0553 -0.0964 -0.8474
15424TIP3    H167687   5.577   4.532  17.180  0.7860  0.0706  1.1497
15424TIP3    H267688   5.682   4.638  17.155  0.3923 -0.0835 -1.4607
15425TIP3   OH267689   0.588   5.012  16.799  0.4652  0.5363  0.1766
15425TIP3    H167690   0.666   4.970  16.835  1.4635  2.4679  0.4205
15425TIP3    H267691   0.532   5.029  16.875 -0.2907 -0.9488 -0.0110
15426TIP3   OH267692   2.907   2.889   1.875 -0.0802 -0.0549 -0.5933
15426TIP3    H167693   2.876   2.897   1.965  0.9528  0.5957 -0.2789
15426TIP3    H267694   2.992   2.847   1.883  0.7908  1.5532 -1.1114
15427TIP3   OH267695   5.560   4.834  12.826 -0.3068  0.0948 -0.0292
15427TIP3    H167696   5.647   4.795  12.831 -0.2440  0.0425 -1.2187
15427TIP3    H267697   5.570   4.908  12.765 -1.2413 -0.3770 -0.7969
15428TIP3   OH267698   4.637   6.254  16.302 -0.0852 -0.2567 -0.4736
15428TIP3    H167699   4.607   6.301  16.379  0.4322  0.9028 -0.9650
15428TIP3    H267700   4.587   6.172  16.303 -0.2434 -0.1667  0.9597
15429TIP3   OH267701   3.638   2.777  11.739 -0.2458 -0.9024  0.0006
15429TIP3    H167702   3.706   2.825  11.692 -1.8289  0.8558 -0.5878
15429TIP3    H267703   3.585   2.736  11.671 -1.0356 -0.4774  0.3470
15430TIP3   OH267704   4.509   0.390   2.725  0.2176  0.2177 -0.3619
15430TIP3    H167705   4.533   0.300   2.748 -0.2062  0.2944  0.4078
15430TIP3    H267706   4.556   0.407   2.644  1.3234 -0.2510  0.1654
15431TIP3   OH267707   6.772   5.816   6.035 -0.0448  0.2278 -0.5043
15431TIP3    H167708   6.800   5.889   6.090 -0.4793  1.9565 -2.4540
15431TIP3    H267709   6.854   5.777   6.004  0.1935 -0.3190  0.7855
15432TIP3   OH267710   1.284   4.753   5.355  0.0602 -0.1031 -0.3356
15432TIP3    H167711   1.222   4.684   5.332 -0.7611  0.5129  0.0048
15432TIP3    H267712   1.233   4.833   5.353  0.6771  0.3310  0.6773
15433TIP3   OH267713   4.158   1.162  15.597 -0.4620  1.0693 -0.7538
15433TIP3    H167714   4.222   1.232  15.580  2.9268 -2.0673 -2.1875
15433TIP3    H267715   4.108   1.156  15.516  0.2800  0.8561 -1.2045
15434TIP3   OH267716   3.284   4.990   3.142  0.1473 -0.3310 -0.3650
15434TIP3    H167717   3.305   5.033   3.059 -2.0195  1.1409 -0.2599
15434TIP3    H267718   3.211   4.931   3.121 -0.4216  0.0517  0.4505
15435TIP3   OH267719   1.648   5.148  15.406 -0.5344  0.0919 -0.4203
15435TIP3    H167720   1.730   5.102  15.425 -0.8319 -0.5224 -0.5828
15435TIP3    H267721   1.640   5.213  15.476 -1.5372 -2.0124  1.5526
15436TIP3   OH267722   2.003   1.878  16.459  0.1572  0.0071 -0.2346
15436TIP3    H167723   2.036   1.810  16.518  0.1998  0.0757 -0.1792
15436TIP3    H267724   1.913   1.894  16.488 -0.1699 -0.6757 -0.8185
15437TIP3   OH267725   1.359   5.303  12.666 -0.0136  0.0273 -0.0549
15437TIP3    H167726   1.283   5.266  12.710  0.4780 -0.7306  0.1958
15437TIP3    H267727   1.364   5.257  12.582  0.8300 -0.7950  0.4234
15438TIP3   OH267728   1.677   6.070  12.668 -0.5215  0.4985 -1.3400
15438TIP3    H167729   1.675   6.164  12.684 -1.5913  0.4110 -0.8808
15438TIP3    H267730   1.767   6.052  12.640 -0.7190  1.9106 -3.0041
15439TIP3   OH267731   6.722   0.402  16.149  0.0917  0.6267 -0.2613
15439TIP3    H167732   6.739   0.330  16.089  1.0674 -0.2511  1.0207
15439TIP3    H267733   6.771   0.380  16.228 -0.0623  2.4085  0.3831
15440TIP3   OH267734   3.315   5.276  16.688  0.1559 -0.0373 -0.1809
15440TIP3    H167735   3.280   5.220  16.758 -0.3131 -0.5752 -0.8261
15440TIP3    H267736   3.380   5.221  16.645  1.2667  0.6877  0.5186
15441TIP3   OH267737   1.178   1.413   1.981  0.1318  0.1505 -0.2691
15441TIP3    H167738   1.273   1.407   1.971  0.0257 -1.6141 -0.5157
15441TIP3    H267739   1.154   1.493   1.934  1.5399  0.8934  0.2239
15442TIP3   OH267740   4.012   3.859   3.254  0.0594 -0.3400  0.7979
15442TIP3    H167741   4.067   3.792   3.296  0.2326 -1.0062 -0.4249
15442TIP3    H267742   4.036   3.941   3.297  0.4706 -0.9333  1.7360
15443TIP3   OH267743   3.287   4.319   3.530  0.2001  0.3237  0.3120
15443TIP3    H167744   3.336   4.354   3.604 -1.7020  1.7802  0.9689
15443TIP3    H267745   3.220   4.385   3.511 -1.7747 -1.6826 -0.2404
15444TIP3   OH267746   1.162   6.714  16.508  0.2436 -0.3059 -0.3050
15444TIP3    H167747   1.168   6.643  16.445  0.7306  0.7369 -1.4848
15444TIP3    H267748   1.081   6.698  16.555  0.4367 -1.7252 -0.4199
15445TIP3   OH267749   6.657   1.445   1.553  0.0415  0.7674  0.8164
15445TIP3    H167750   6.577   1.462   1.603 -1.7458 -0.9604 -1.2380
15445TIP3    H267751   6.627   1.398   1.475  3.3115 -1.8008  0.8982
15446TIP3   OH267752   4.616   0.182   3.628  0.0252  0.2435  0.6339
15446TIP3    H167753   4.530   0.174   3.585  0.2929  1.3429 -0.1366
15446TIP3    H267754   4.608   0.260   3.682  1.0924  1.4326 -0.8444
15447TIP3   OH267755   3.385   3.205   2.866 -0.3737 -0.4833  0.1619
15447TIP3    H167756   3.300   3.220   2.907 -0.2802 -1.0309  0.5733
15447TIP3    H267757   3.422   3.131   2.915 -0.0332 -0.8087 -0.5703
15448TIP3   OH267758   6.432   1.711   5.978  0.3298  0.8672  0.2418
15448TIP3    H167759   6.412   1.683   6.067  1.9399 -0.1406  0.3232
15448TIP3    H267760   6.369   1.666   5.923  0.3437  0.2434  0.7332
15449TIP3   OH267761   2.183   6.054  11.292 -0.3391 -0.3393 -0.3012
15449TIP3    H167762   2.182   6.083  11.383 -0.7577 -0.9662 -0.1060
15449TIP3    H267763   2.275   6.059  11.267 -0.0670 -1.1392  0.4718
15450TIP3   OH267764   1.645   0.002  13.607 -0.0991  0.1070  0.1167
15450TIP3    H167765   1.574   0.064  13.622 -0.3907 -0.3238  0.5529
15450TIP3    H267766   1.634  -0.026  13.516  0.0790  0.7486 -0.1015
15451TIP3   OH267767   0.720   2.662   3.495 -0.0512 -0.2519  0.1180
15451TIP3    H167768   0.626   2.647   3.503 -0.1024 -0.3125 -0.5206
15451TIP3    H267769   0.760   2.593   3.548 -0.3687 -0.0512  0.6215
15452TIP3   OH267770   2.933   1.469   1.181  0.2471  0.1531  0.9168
15452TIP3    H167771   2.896   1.525   1.114 -1.0113 -0.5008  1.0343
15452TIP3    H267772   2.905   1.508   1.264  2.6318  1.5373  1.1589
15453TIP3   OH267773   0.579   2.216  15.506 -0.0749  0.1118  0.3903
15453TIP3    H167774   0.487   2.195  15.520 -0.1401 -0.7079 -1.1087
15453TIP3    H267775   0.580   2.309  15.486 -0.5092  0.2181  0.8278
15454TIP3   OH267776   3.832   2.752   2.477 -0.2028  0.2903 -0.4901
15454TIP3    H167777   3.911   2.748   2.530 -0.3964  0.1453 -0.2082
15454TIP3    H267778   3.771   2.692   2.520 -0.6060  0.7108 -0.4695
15455TIP3   OH267779   4.576   2.844   4.951  0.5076  0.2000 -0.5457
15455TIP3    H167780   4.550   2.779   4.885 -0.9189  3.6121 -3.6753
15455TIP3    H267781   4.496   2.858   5.002  0.1415  1.0182 -1.3223
15456TIP3   OH267782   5.682   4.817   0.849 -0.5554  0.2723  0.3292
15456TIP3    H167783   5.659   4.906   0.876 -0.8600  0.1771  0.3799
15456TIP3    H267784   5.620   4.761   0.895 -0.6537  0.0623 -0.0598
15457TIP3   OH267785   2.840   2.908  12.820  0.2393  0.6293 -0.0552
15457TIP3    H167786   2.896   2.985  12.813  0.7583  0.2405 -0.3678
15457TIP3    H267787   2.752   2.939  12.801  0.5108  1.0657 -0.6405
15458TIP3   OH267788   2.701   0.161   4.365 -0.0339 -0.0619 -0.5882
15458TIP3    H167789   2.726   0.224   4.433  0.6514 -0.8850 -0.0545
15458TIP3    H267790   2.639   0.208   4.310 -0.2970  0.7481  0.3809
15459TIP3   OH267791   3.136   6.593   3.469  1.0190 -0.0635  0.1604
15459TIP3    H167792   3.137   6.498   3.461  0.9093  0.0484 -1.4437
15459TIP3    H267793   3.110   6.624   3.382 -0.8027  1.3672  1.1492
15460TIP3   OH267794   5.705   5.445  13.073  0.4490 -0.1739 -0.4437
15460TIP3    H167795   5.800   5.453  13.086  0.4500  2.6753 -1.4547
15460TIP3    H267796   5.692   5.354  13.048  2.8013 -0.8587  0.5835
15461TIP3   OH267797   1.774   0.054  16.145  0.3066  0.5077  0.6990
15461TIP3    H167798   1.865   0.053  16.174  0.4461  0.9113  0.2714
15461TIP3    H267799   1.775   0.015  16.058 -0.0749 -0.4139  1.0880
15462TIP3   OH267800   6.481   2.742   6.243  0.1178  0.3866 -0.5397
15462TIP3    H167801   6.564   2.788   6.252  0.2278 -0.0129  0.6826
15462TIP3    H267802   6.496   2.658   6.285 -1.0542  0.5016  0.1269
15463TIP3   OH267803   2.054   0.942  15.926 -0.1983 -0.5654 -0.5080
15463TIP3    H167804   2.074   1.026  15.967 -0.0773 -0.9081  0.1433
15463TIP3    H267805   2.108   0.941  15.846 -1.3165  0.6074 -1.3240
15464TIP3   OH267806   0.527   4.805  10.675  0.5458  0.2256 -0.1762
15464TIP3    H167807   0.449   4.856  10.698  0.2827 -1.1184  2.2355
15464TIP3    H267808   0.600   4.859  10.703  0.3058 -0.1281  1.2153
15465TIP3   OH267809   3.158   4.738  12.367 -0.7057 -0.4347  0.0161
15465TIP3    H167810   3.196   4.826  12.371 -0.0029 -0.7581  0.7330
15465TIP3    H267811   3.077   4.749  12.317  0.1235  0.3484 -1.1974
15466TIP3   OH267812   3.247   3.095  11.497  0.3247  0.0343  0.3407
15466TIP3    H167813   3.294   3.030  11.444  0.0068  0.7058 -0.8052
15466TIP3    H267814   3.279   3.081  11.586  0.2251 -1.7309  0.1519
15467TIP3   OH267815   1.843   2.612   4.161 -0.6328  0.0399 -0.5458
15467TIP3    H167816   1.936   2.610   4.138 -0.1351  0.8204  1.1765
15467TIP3    H267817   1.818   2.520   4.169  0.9910 -0.2760  2.3767
15468TIP3   OH267818   1.267   5.742  13.304 -0.2572 -0.2368 -0.1669
15468TIP3    H167819   1.252   5.647  13.299  0.4668 -0.4748  1.5846
15468TIP3    H267820   1.351   5.755  13.261 -0.9940 -0.1702 -1.6498
15469TIP3   OH267821   1.460   0.690  11.520  0.8499 -0.0784 -0.7465
15469TIP3    H167822   1.399   0.720  11.453  0.4287  1.0093  0.0862
15469TIP3    H267823   1.494   0.770  11.559  2.7839 -0.6616 -1.1355
15470TIP3   OH267824   3.575   5.351   3.801 -0.6576  0.0158 -0.4720
15470TIP3    H167825   3.604   5.354   3.710 -0.5453 -0.3345 -0.4473
15470TIP3    H267826   3.586   5.260   3.827  0.6894  0.3805  0.3384
15471TIP3   OH267827   0.761   5.437   0.828 -0.2006 -0.1180 -0.0540
15471TIP3    H167828   0.771   5.516   0.776  1.9517 -0.4996 -0.2809
15471TIP3    H267829   0.737   5.468   0.915 -2.3776  0.5850 -0.8333
15472TIP3   OH267830   2.505   1.891   5.779 -0.3692  0.2152  0.3547
15472TIP3    H167831   2.599   1.906   5.787 -0.2360 -0.0314 -0.6518
15472TIP3    H267832   2.496   1.833   5.704 -1.2127 -1.0242  1.3525
15473TIP3   OH267833   0.433   1.268  15.550  0.1869 -0.5993  0.1369
15473TIP3    H167834   0.461   1.358  15.567 -1.7729  0.1308 -0.1859
15473TIP3    H267835   0.444   1.223  15.634  0.5833  0.1097  0.4717
15474TIP3   OH267836   0.597   5.001   6.562 -0.7543 -0.2401  0.5750
15474TIP3    H167837   0.518   4.952   6.585 -0.9328 -0.8691 -1.2115
15474TIP3    H267838   0.567   5.069   6.502  0.0359 -0.4551 -0.0855
15475TIP3   OH267839   0.549   6.558  16.073 -0.2752  0.1602 -0.2707
15475TIP3    H167840   0.547   6.631  16.011 -0.2233  0.2500 -0.1669
15475TIP3    H267841   0.481   6.499  16.042  2.0736 -1.5935 -2.5942
15476TIP3   OH267842   4.123   1.252  16.438  0.1368  0.1250 -0.2078
15476TIP3    H167843   4.156   1.202  16.513  2.5365  1.6646 -0.1345
15476TIP3    H267844   4.177   1.222  16.364  1.7207  2.5331 -0.1404
15477TIP3   OH267845   6.480   4.376  13.894 -0.4296  0.1962  0.2932
15477TIP3    H167846   6.435   4.292  13.893  0.3227 -0.2135 -0.8056
15477TIP3    H267847   6.483   4.403  13.802  1.5863  0.1891  0.3185
15478TIP3   OH267848   6.693   6.353   0.658 -0.0427 -0.0138  0.6131
15478TIP3    H167849   6.665   6.291   0.591 -1.9282 -1.1017  2.2902
15478TIP3    H267850   6.757   6.305   0.710  0.2565  0.2873  0.5286
15479TIP3   OH267851   4.048   5.813   4.173 -0.1954  0.2040 -0.0196
15479TIP3    H167852   4.064   5.728   4.212  0.0199 -0.3523 -1.2769
15479TIP3    H267853   4.133   5.856   4.171 -0.1195  0.0451 -0.2842
15480TIP3   OH267854   2.907   4.756   2.577  0.4433  0.4948 -0.2623
15480TIP3    H167855   2.887   4.665   2.554 -0.3887  0.7488 -0.6151
15480TIP3    H267856   2.824   4.802   2.562 -0.2649  0.6885  3.3883
15481TIP3   OH267857   6.109   6.705   4.824 -0.0506  0.2748 -0.5880
15481TIP3    H167858   6.159   6.701   4.743 -0.1991  0.2285 -0.6773
15481TIP3    H267859   6.040   6.639   4.813  0.1873 -0.0393 -0.2529
15482TIP3   OH267860   5.592   1.400  13.160 -0.1284  0.5714 -1.0406
15482TIP3    H167861   5.648   1.436  13.092  0.7704  1.8189  0.3049
15482TIP3    H267862   5.598   1.305  13.149 -1.4967  0.7048 -3.8320
15483TIP3   OH267863   4.980   2.087  11.543 -0.6392 -0.0326 -0.3442
15483TIP3    H167864   4.953   2.099  11.634 -2.1948  1.0451 -0.9110
15483TIP3    H267865   5.069   2.051  11.549  1.2857  4.3129  1.6757
15484TIP3   OH267866   3.238   2.339  16.580 -0.7752  0.2577  0.5936
15484TIP3    H167867   3.239   2.252  16.542 -3.2303  0.5382 -0.3123
15484TIP3    H267868   3.232   2.324  16.675 -0.4792 -0.5196  0.4975
15485TIP3   OH267869   4.259   1.051   5.413  0.6227  0.4782  0.7825
15485TIP3    H167870   4.244   1.125   5.471 -0.6667 -0.4368  1.6817
15485TIP3    H267871   4.229   1.081   5.327 -0.5396  0.7953  1.2778
15486TIP3   OH267872   5.297   5.416  12.450 -0.8332  0.5673 -0.6810
15486TIP3    H167873   5.212   5.459  12.458 -0.2847  1.5245  0.3403
15486TIP3    H267874   5.318   5.387  12.539  0.0943  0.7266 -0.8356
15487TIP3   OH267875   3.716   5.292  15.077  0.2359 -0.1279  0.1582
15487TIP3    H167876   3.676   5.213  15.040  2.8276 -1.0517 -0.9178
15487TIP3    H267877   3.742   5.266  15.166  0.0259 -0.0945  0.2302
15488TIP3   OH267878   6.156   5.642   2.951 -0.1552 -0.0812  0.5379
15488TIP3    H167879   6.239   5.672   2.988  1.1335 -2.0919 -0.5985
15488TIP3    H267880   6.094   5.649   3.024  0.6288  2.6501  1.0697
15489TIP3   OH267881   4.635   5.810  10.610  0.2560  0.1755  0.3716
15489TIP3    H167882   4.574   5.737  10.617  0.1506  0.2926  0.6688
15489TIP3    H267883   4.698   5.782  10.544 -0.5244  0.3434 -0.4720
15490TIP3   OH267884   2.552   4.984   0.591  0.2027  0.2829  0.4211
15490TIP3    H167885   2.506   4.939   0.662 -0.9500 -0.5274 -0.8014
15490TIP3    H267886   2.483   5.020   0.536  1.0133 -0.3351 -1.0684
15491TIP3   OH267887   2.513   3.636  16.765 -0.0227 -0.4266 -0.1147
15491TIP3    H167888   2.567   3.693  16.711 -2.3748  1.4233 -0.7029
15491TIP3    H267889   2.575   3.583  16.815  2.4237  3.3811  1.2871
15492TIP3   OH267890   3.639   5.186  11.562 -0.0313 -0.2439 -0.1268
15492TIP3    H167891   3.611   5.207  11.473 -1.2754 -0.7522  0.1234
15492TIP3    H267892   3.610   5.260  11.615  0.7931  0.1029 -0.1470
15493TIP3   OH267893   4.657   6.711  12.614  0.0679  0.1919 -0.3303
15493TIP3    H167894   4.677   6.619  12.630  1.5451  0.2836 -1.4543
15493TIP3    H267895   4.662   6.720  12.519 -0.5653  1.3439 -0.2737
15494TIP3   OH267896   3.780   5.629   0.403  0.4596  0.1550  0.1311
15494TIP3    H167897   3.699   5.609   0.449  0.9967  1.0561  1.5422
15494TIP3    H267898   3.780   5.725   0.396  1.6996  0.2153  0.7488
15495TIP3   OH267899   1.114   5.989   6.878 -0.4982  0.2597  0.3724
15495TIP3    H167900   1.209   5.985   6.864 -0.3856 -0.0363  1.1457
15495TIP3    H267901   1.076   5.973   6.792  0.1535  0.5292  0.0214
15496TIP3   OH267902   1.413   3.209   6.572  0.8665  0.7286  0.0146
15496TIP3    H167903   1.444   3.246   6.654  1.0835  1.9411 -0.5883
15496TIP3    H267904   1.475   3.240   6.506  0.2448  0.4479 -0.7274
15497TIP3   OH267905   5.033   5.815  12.673 -0.3277  0.2274 -0.1400
15497TIP3    H167906   5.128   5.801  12.683 -0.3367 -1.0743 -1.6138
15497TIP3    H267907   5.011   5.877  12.743  1.7055  0.9855 -0.1007
15498TIP3   OH267908   5.848   4.356  13.384  0.3282 -0.0075 -0.1224
15498TIP3    H167909   5.770   4.301  13.374 -1.2183  1.9308  0.5786
15498TIP3    H267910   5.850   4.377  13.477  2.4115 -0.9403  0.1013
15499TIP3   OH267911   5.978   5.455   5.537 -0.1101  0.2596  0.1531
15499TIP3    H167912   5.975   5.411   5.452 -0.1240 -0.3761  0.4676
15499TIP3    H267913   6.029   5.534   5.522 -1.1601  0.7970 -0.7182
15500TIP3   OH267914   0.103   6.690  11.376  0.1671 -0.0674 -0.1052
15500TIP3    H167915   0.088   6.685  11.282  0.9452  1.5553 -0.3509
15500TIP3    H267916   0.157   6.614  11.397  0.0712 -0.3791 -0.9774
15501TIP3   OH267917   0.962   5.340  13.824 -0.2336  0.4521 -0.5846
15501TIP3    H167918   0.925   5.427  13.811 -2.1558 -0.0161  1.1925
15501TIP3    H267919   0.894   5.280  13.793 -0.6584 -0.4308  1.8126
15502TIP3   OH267920   3.453   5.999   4.231 -0.0785 -0.6778 -0.4090
15502TIP3    H167921   3.500   6.072   4.190  0.5226 -0.8484 -0.0418
15502TIP3    H267922   3.378   6.040   4.275  0.1472 -0.3025 -0.3697
15503TIP3   OH267923   4.733   1.773  14.060 -0.3954  0.0640 -0.3353
15503TIP3    H167924   4.802   1.707  14.066  0.5198  1.0267  0.0208
15503TIP3    H267925   4.652   1.723  14.052  0.2627 -1.1048  0.1388
15504TIP3   OH267926   5.544   5.184  13.144 -0.1131 -0.0728  0.2926
15504TIP3    H167927   5.575   5.094  13.131  0.0035 -0.2624  1.7436
15504TIP3    H267928   5.480   5.177  13.214 -0.4335  0.9309  0.1161
15505TIP3   OH267929   3.724   4.661   3.873 -0.2034  0.1791  0.6518
15505TIP3    H167930   3.766   4.742   3.902  0.1376  0.2638 -0.0609
15505TIP3    H267931   3.692   4.681   3.785  1.2453 -0.9159 -0.1729
15506TIP3   OH267932   4.257   2.091  11.607  0.8442  0.0930  0.1158
15506TIP3    H167933   4.211   2.164  11.565 -2.8633 -1.9147  0.2663
15506TIP3    H267934   4.259   2.114  11.700  0.8576  0.5598  0.0019
15507TIP3   OH267935   6.151   3.964  15.302  0.1988 -0.0048 -0.2960
15507TIP3    H167936   6.089   4.012  15.357  0.0326 -0.0305 -0.4562
15507TIP3    H267937   6.217   3.931  15.362  1.5740  2.3019 -0.4181
15508TIP3   OH267938   4.688   0.753  16.664 -0.1281  0.3076  0.1537
15508TIP3    H167939   4.775   0.713  16.652 -0.3397 -0.0297 -0.3005
15508TIP3    H267940   4.680   0.763  16.758  0.0334 -0.5283  0.2685
15509TIP3   OH267941   0.205   5.487  10.862 -0.6031 -0.2636 -0.3797
15509TIP3    H167942   0.239   5.553  10.802  0.4647 -1.4263 -1.1058
15509TIP3    H267943   0.195   5.533  10.945  1.8879  0.4230 -0.3742
15510TIP3   OH267944   0.461   4.742  13.566  0.2930 -0.3249 -0.2327
15510TIP3    H167945   0.385   4.685  13.557  0.5834 -0.9207  0.8699
15510TIP3    H267946   0.514   4.700  13.633 -0.0603  1.8404  1.5226
15511TIP3   OH267947   6.228   3.276  12.893 -0.0634 -0.2528 -0.0524
15511TIP3    H167948   6.244   3.367  12.871  0.1846  0.0150  1.1333
15511TIP3    H267949   6.236   3.273  12.989  1.3057 -1.7598 -0.1586
15512TIP3   OH267950   1.957   2.325  12.328  0.0714  0.0689  0.2388
15512TIP3    H167951   1.967   2.420  12.325  0.7702 -0.0214 -0.4107
15512TIP3    H267952   1.863   2.311  12.318  0.1030  0.6461 -0.9435
15513TIP3   OH267953   2.011   4.772   2.628  0.0600  0.1666  0.1628
15513TIP3    H167954   1.968   4.857   2.634 -1.8005 -0.7344  0.3045
15513TIP3    H267955   2.068   4.779   2.551 -0.9474  1.1731 -0.5235
15514TIP3   OH267956   1.494   4.780  13.242  0.1677  0.0607  0.2837
15514TIP3    H167957   1.563   4.846  13.232 -1.5469  1.9900  0.4995
15514TIP3    H267958   1.473   4.782  13.336 -1.7024  1.1748 -0.1256
15515TIP3   OH267959   4.955   6.330  12.312 -0.4556  0.5662  0.2445
15515TIP3    H167960   4.946   6.254  12.256  0.4303 -0.1355  1.0177
15515TIP3    H267961   4.896   6.395  12.275  0.0048  0.0749 -1.3999
15516TIP3   OH267962   0.017   5.707   4.040 -0.1133  0.2357  0.0925
15516TIP3    H167963   0.050   5.757   3.965 -0.3019  2.4053  1.3423
15516TIP3    H267964   0.086   5.645   4.061  0.3924  0.3377 -1.2045
15517TIP3   OH267965   2.207   5.139   3.897 -0.0213  0.1909 -0.0414
15517TIP3    H167966   2.271   5.084   3.942  1.7615  1.8963 -0.3457
15517TIP3    H267967   2.237   5.142   3.806 -0.0873  1.6029 -0.0354
15518TIP3   OH267968   1.139   5.703   2.709 -0.0044  0.5640 -0.0096
15518TIP3    H167969   1.176   5.777   2.756  0.6611 -0.9577  1.9775
15518TIP3    H267970   1.192   5.697   2.629 -0.4038  2.4839 -0.4825
15519TIP3   OH267971   5.204   4.950  12.024 -0.5964 -0.1820 -0.3221
15519TIP3    H167972   5.135   5.007  11.990 -0.3223  1.4881  1.6933
15519TIP3    H267973   5.256   4.927  11.947 -3.3409 -1.5427 -1.9073
15520TIP3   OH267974   2.755   6.710   3.769  0.5092 -0.2768  0.3661
15520TIP3    H167975   2.798   6.631   3.737  0.7162 -0.0963  0.1844
15520TIP3    H267976   2.827   6.772   3.784  0.3264 -0.0228  0.2114
15521TIP3   OH267977   4.181   3.395  13.187 -0.2236  0.8284  0.3692
15521TIP3    H167978   4.110   3.349  13.232 -0.1566 -0.2215 -0.5399
15521TIP3    H267979   4.209   3.463  13.248  1.4620 -1.9690  3.0018
15522TIP3   OH267980   2.582   1.517   0.393 -0.3856 -0.0515  0.0996
15522TIP3    H167981   2.626   1.591   0.436  0.2461 -0.0174 -0.5848
15522TIP3    H267982   2.653   1.465   0.356 -0.8899 -0.3563 -0.4614
15523TIP3   OH267983   4.130   4.822   3.926  0.5774 -0.0279  0.2460
15523TIP3    H167984   4.157   4.887   3.991 -0.8762  0.8539  0.0084
15523TIP3    H267985   4.174   4.742   3.953  1.6514  0.8207  1.1055
15524TIP3   OH267986   3.271   6.028  11.808 -0.1703 -0.5417  0.4372
15524TIP3    H167987   3.362   6.058  11.809  0.5779 -2.2394  4.3312
15524TIP3    H267988   3.273   5.948  11.755  0.8121 -0.8951  0.9632
15525TIP3   OH267989   5.062   1.599   0.063  0.2677  0.6537 -0.2603
15525TIP3    H167990   5.122   1.529   0.036 -0.1207  0.8563 -1.7591
15525TIP3    H267991   5.067   1.599   0.159  0.4386 -1.2711 -0.2185
15526TIP3   OH267992   1.179   0.550  11.487  0.7953 -0.2262  0.8260
15526TIP3    H167993   1.209   0.485  11.423 -0.1719 -0.6731  0.8181
15526TIP3    H267994   1.116   0.603  11.439  0.7443  0.0170  1.1601
15527TIP3   OH267995   3.881   0.346   0.772  0.4215  0.1634  0.0589
15527TIP3    H167996   3.821   0.369   0.843 -1.3432 -1.4862 -0.8498
15527TIP3    H267997   3.951   0.297   0.815  0.4801  0.9737  0.9293
15528TIP3   OH267998   5.645   5.556   3.533 -0.6218  0.2206  0.3820
15528TIP3    H167999   5.695   5.568   3.614  0.4622 -3.4752  0.4708
15528TIP3    H268000   5.554   5.560   3.561 -0.2709 -0.1626  1.6473
15529TIP3   OH268001   5.964   2.269   5.253 -0.1750  0.2761  0.1847
15529TIP3    H168002   5.935   2.321   5.178 -0.8661 -0.3112  0.0361
15529TIP3    H268003   5.884   2.252   5.303  0.2943  0.7781  1.1392
15530TIP3   OH268004   0.683   5.037   1.276 -0.0394  0.3960 -0.3618
15530TIP3    H168005   0.714   4.947   1.265 -1.0899 -0.0990  0.4720
15530TIP3    H268006   0.662   5.044   1.369 -1.8002  0.8640 -0.7513
15531TIP3   OH268007   4.503   6.493  16.775  0.4089  0.8305  0.0027
15531TIP3    H168008   4.465   6.566  16.824  0.3460  0.1928  0.9436
15531TIP3    H268009   4.482   6.416  16.828  1.2660  0.2334 -0.5025
15532TIP3   OH268010   6.707   0.582  15.415 -0.4425 -0.3767  0.5201
15532TIP3    H168011   6.762   0.538  15.480 -0.8851 -0.3843  0.8912
15532TIP3    H268012   6.665   0.511  15.367  2.6507 -0.5637 -2.2977
15533TIP3   OH268013   2.245   2.334  17.035  0.1515 -0.6345 -0.3412
15533TIP3    H168014   2.328   2.370  17.002 -0.1551  0.4148  0.0274
15533TIP3    H268015   2.179   2.365  16.973 -0.2867  0.4884  0.6784
15534TIP3   OH268016   2.878   3.689  16.538 -0.4081  0.7620  0.1883
15534TIP3    H168017   2.786   3.664  16.531 -0.0138 -0.3190 -1.7108
15534TIP3    H268018   2.926   3.609  16.519  0.9284  1.5285  0.2527
15535TIP3   OH268019   3.968   2.908   2.882  0.0015 -0.7316  0.0306
15535TIP3    H168020   3.931   2.821   2.899 -1.6015 -0.1110 -0.1441
15535TIP3    H268021   3.955   2.955   2.965 -0.9652 -0.0575 -0.4827
15536TIP3   OH268022   1.239   0.565  13.237 -0.0733  0.4081  0.8147
15536TIP3    H168023   1.272   0.640  13.187  0.1486 -1.0091 -1.2658
15536TIP3    H268024   1.145   0.582  13.245 -0.2911  0.2416 -0.9559
15537TIP3   OH268025   1.010   6.149  10.778  0.1256 -0.8301  0.0521
15537TIP3    H168026   0.938   6.212  10.777  2.1766  1.7083  0.0331
15537TIP3    H268027   0.976   6.074  10.827 -1.5229  1.6216  3.0813
15538TIP3   OH268028   2.530   4.384   0.421 -0.3462  0.7715  0.0202
15538TIP3    H168029   2.601   4.396   0.483 -0.3695 -3.7157  1.2587
15538TIP3    H268030   2.451   4.387   0.474 -0.5020 -1.1404 -0.0401
15539TIP3   OH268031   1.707   2.314   5.183 -0.2254 -0.1374 -0.4277
15539TIP3    H168032   1.782   2.287   5.235 -0.6840 -1.4151 -0.4099
15539TIP3    H268033   1.744   2.370   5.114  0.4315  1.2161  0.9712
15540TIP3   OH268034   6.485   5.996   4.570  0.2210  0.3134  0.4411
15540TIP3    H168035   6.416   5.933   4.546 -0.2241  1.1247 -0.4625
15540TIP3    H268036   6.444   6.082   4.560  0.9316  0.7709  1.3143
15541TIP3   OH268037   3.301   3.999  15.513  0.2008  0.0468  0.6471
15541TIP3    H168038   3.370   3.957  15.564 -0.5469  0.3404  1.9381
15541TIP3    H268039   3.227   4.004  15.573 -0.5796  0.7663 -0.3534
15542TIP3   OH268040   3.990   4.918  12.222  1.0310 -0.4364 -0.8051
15542TIP3    H168041   4.077   4.947  12.251  0.3847  0.5510  0.2811
15542TIP3    H268042   3.931   4.946  12.293 -0.9534  3.6815 -3.6731
15543TIP3   OH268043   0.909   2.668  16.786  0.3171 -0.3596 -0.2387
15543TIP3    H168044   0.903   2.624  16.870  0.8496 -1.1884 -0.6201
15543TIP3    H268045   0.900   2.761  16.807  1.6119 -0.4455  0.8903
15544TIP3   OH268046   4.344   3.547  11.212  1.0058  0.8151 -0.4729
15544TIP3    H168047   4.366   3.513  11.126 -0.0433 -3.0466  0.6047
15544TIP3    H268048   4.398   3.496  11.273  0.4862  2.2296  1.2977
15545TIP3   OH268049   6.635   0.849   3.691  0.0963 -0.2881 -0.1697
15545TIP3    H168050   6.687   0.846   3.771  0.1034 -0.1123 -0.1685
15545TIP3    H268051   6.699   0.847   3.620  0.0614 -1.7400 -0.2016
15546TIP3   OH268052   4.584   1.335  13.256 -0.1749 -0.0158  0.3668
15546TIP3    H168053   4.628   1.259  13.295 -0.6666 -0.5532 -0.1136
15546TIP3    H268054   4.646   1.369  13.191 -0.7517 -1.2356 -0.8595
15547TIP3   OH268055   5.003   1.851  12.916  0.6559  0.8657  0.2851
15547TIP3    H168056   5.008   1.855  12.821 -1.5643 -1.7739 -0.0529
15547TIP3    H268057   4.947   1.925  12.940  1.3282  1.6145 -0.4205
15548TIP3   OH268058   0.108   2.627  16.160  0.2618  0.2413 -0.4534
15548TIP3    H168059   0.019   2.592  16.155  0.5384 -0.3660 -3.9025
15548TIP3    H268060   0.155   2.565  16.214 -1.0112 -0.4062 -0.0419
15549TIP3   OH268061   4.540   4.746   5.945  0.1367 -0.7526  0.0872
15549TIP3    H168062   4.552   4.667   5.893 -0.9513 -0.5530 -0.4878
15549TIP3    H268063   4.497   4.716   6.025 -0.7968 -0.6873 -0.3745
15550TIP3   OH268064   1.717   6.090  10.982 -0.5064 -0.7315 -0.6117
15550TIP3    H168065   1.645   6.095  11.044 -1.4181 -2.8347 -1.4130
15550TIP3    H268066   1.796   6.094  11.036 -0.9068  4.4792  0.1385
15551TIP3   OH268067   2.252   6.597   5.170  0.9809 -0.5122  0.6234
15551TIP3    H168068   2.316   6.629   5.232  0.5767 -1.4813  1.5662
15551TIP3    H268069   2.297   6.527   5.122  1.4097  0.4661 -0.4675
15552TIP3   OH268070   0.366   5.449  16.532  0.1753  0.2950 -0.6138
15552TIP3    H168071   0.406   5.366  16.557  1.2225  0.6991 -0.8942
15552TIP3    H268072   0.436   5.497  16.489 -0.6475  0.9954 -1.2053
15553TIP3   OH268073   2.724   0.909  10.600  0.1280 -0.3171 -0.1286
15553TIP3    H168074   2.797   0.901  10.537 -0.4064 -0.7803 -0.6982
15553TIP3    H268075   2.762   0.881  10.683  0.4762 -1.0225 -0.5147
15554TIP3   OH268076   6.283   3.769  16.436 -0.3342 -0.5856  0.5849
15554TIP3    H168077   6.301   3.801  16.525 -1.0789 -0.1608  0.5917
15554TIP3    H268078   6.318   3.680  16.435  1.9216  0.2401  0.5178
15555TIP3   OH268079   1.355   3.474  16.408  0.4432 -0.3127 -0.1020
15555TIP3    H168080   1.410   3.436  16.476  0.4509 -0.1392 -0.0122
15555TIP3    H268081   1.405   3.549  16.375 -0.6366  1.1461  1.4243
15556TIP3   OH268082   0.488   3.947   0.920 -0.1364 -0.5828 -0.5618
15556TIP3    H168083   0.531   3.953   0.835 -0.2598 -1.7343 -0.7117
15556TIP3    H268084   0.517   4.026   0.967  0.4695 -0.2892 -1.4122
15557TIP3   OH268085   3.820   1.705  14.872  0.2930 -0.0514  0.4151
15557TIP3    H168086   3.873   1.627  14.858  0.6394 -0.2406  2.3958
15557TIP3    H268087   3.875   1.777  14.840  0.1755 -0.5479 -0.9572
15558TIP3   OH268088   5.134   0.141  12.545 -0.1305  0.0678 -0.4984
15558TIP3    H168089   5.155   0.087  12.469 -0.2823  1.3440 -1.4782
15558TIP3    H268090   5.067   0.091  12.592 -0.4158 -0.4992 -1.4835
15559TIP3   OH268091   0.944   2.643   3.287  0.4036 -0.0033 -0.4248
15559TIP3    H168092   0.886   2.680   3.220  2.3399  0.3196 -2.0398
15559TIP3    H268093   1.002   2.584   3.238 -0.9969 -3.4162  1.7177
15560TIP3   OH268094   5.474   4.884  13.473 -0.1492 -0.4828 -0.8608
15560TIP3    H168095   5.462   4.805  13.526  0.6393  0.2874  0.5303
15560TIP3    H268096   5.453   4.956  13.533  1.0835  0.4361 -1.4959
15561TIP3   OH268097   5.587   1.811   0.418 -0.1268  0.0029  0.3090
15561TIP3    H168098   5.611   1.724   0.449 -2.8394 -0.4901  1.3543
15561TIP3    H268099   5.647   1.870   0.463  1.3855 -1.2546  0.0292
15562TIP3   OH268100   0.234   1.885   3.399 -0.1757 -0.0050  0.6027
15562TIP3    H168101   0.158   1.942   3.410 -1.3594 -1.6217  1.2942
15562TIP3    H268102   0.242   1.874   3.304  0.0362  1.2295  0.4682
15563TIP3   OH268103   2.214   1.648   2.666 -0.2686  0.0640  0.3762
15563TIP3    H168104   2.189   1.569   2.618 -1.9611  1.4511 -1.1857
15563TIP3    H268105   2.295   1.677   2.624 -0.1761 -0.3003  0.2992
15564TIP3   OH268106   1.665   5.210   0.706  0.2891  0.0221 -0.8706
15564TIP3    H168107   1.626   5.193   0.620 -1.8609  0.6330 -0.0903
15564TIP3    H268108   1.684   5.303   0.705 -0.7520  0.2581 -0.3448
15565TIP3   OH268109   1.894   0.037   1.166  0.1021 -0.0150  0.7021
15565TIP3    H168110   1.952   0.065   1.095 -1.1901 -0.6363 -0.6458
15565TIP3    H268111   1.881   0.117   1.218  0.4008  0.6684 -0.2389
15566TIP3   OH268112   4.817   1.143   2.478  0.1431 -0.2066  0.4592
15566TIP3    H168113   4.762   1.214   2.443  0.8181  0.6909  1.1541
15566TIP3    H268114   4.785   1.130   2.567  0.5146 -0.2503  0.5879
15567TIP3   OH268115   5.246   5.879  15.740 -0.6967  0.1656 -0.1090
15567TIP3    H168116   5.236   5.784  15.748  0.9292  0.1412  4.2417
15567TIP3    H268117   5.162   5.914  15.767 -1.2696  0.0539 -1.6331
15568TIP3   OH268118   2.639   4.455  11.713 -0.6487 -0.1457 -0.1931
15568TIP3    H168119   2.605   4.497  11.792  1.5820 -1.1685  1.3956
15568TIP3    H268120   2.613   4.364  11.722 -1.7399  0.0104 -1.4811
15569TIP3   OH268121   1.707   3.741   5.055 -0.1703 -0.0437  0.1550
15569TIP3    H168122   1.718   3.792   4.975  2.2912 -0.8874 -0.1181
15569TIP3    H268123   1.756   3.661   5.040 -3.0355 -2.1307  0.9775
15570TIP3   OH268124   3.113   5.252   6.643  0.0852  0.1374  0.1421
15570TIP3    H168125   3.142   5.343   6.637 -0.6799  0.3357 -0.5923
15570TIP3    H268126   3.193   5.201   6.629  0.4986  0.6850  0.4544
15571TIP3   OH268127   1.266   2.756   0.063 -0.7740 -0.0626 -0.1576
15571TIP3    H168128   1.179   2.726   0.091 -0.8259  0.7997  0.6492
15571TIP3    H268129   1.258   2.851   0.058 -0.4054 -0.0804 -1.9682
15572TIP3   OH268130   2.650   2.153   6.320  0.1305  0.2020  0.3409
15572TIP3    H168131   2.643   2.216   6.248  0.0909  0.4964  0.6018
15572TIP3    H268132   2.560   2.126   6.337  0.1795 -0.1702  0.0124
15573TIP3   OH268133   4.012   1.371  17.114 -0.1983 -0.1888  0.5461
15573TIP3    H168134   4.038   1.307  17.048  1.8281  1.0339  0.0667
15573TIP3    H268135   3.932   1.335  17.153  0.9959 -3.1577  0.5221
15574TIP3   OH268136   1.433   6.723  16.596 -0.0602 -0.1419  0.2435
15574TIP3    H168137   1.344   6.742  16.625  0.1840  1.2436  0.1676
15574TIP3    H268138   1.425   6.712  16.501  0.1616  2.4542 -0.1522
15575TIP3   OH268139   5.644   4.266   4.971 -0.1279 -0.8740 -0.4410
15575TIP3    H168140   5.732   4.304   4.969 -0.0961 -0.6989  1.7224
15575TIP3    H268141   5.646   4.197   4.905  1.0060  0.3835 -1.7967
15576TIP3   OH268142   4.416   0.571  16.918 -0.4807 -0.4671 -0.0834
15576TIP3    H168143   4.372   0.655  16.908  1.1750  0.5650  0.9576
15576TIP3    H268144   4.449   0.550  16.831 -0.1683  0.3837 -0.1735
15577TIP3   OH268145   2.684   5.427   0.639 -0.2349 -0.3189  0.7711
15577TIP3    H168146   2.712   5.339   0.663 -0.1414 -0.4974  0.0374
15577TIP3    H268147   2.606   5.414   0.584  1.2731 -0.1310 -1.5815
15578TIP3   OH268148   4.459   1.015   5.180  0.0772  0.1808 -0.2762
15578TIP3    H168149   4.491   0.926   5.164  1.5681  0.9444 -2.0485
15578TIP3    H268150   4.454   1.054   5.093 -1.1002  1.6642  0.4162
15579TIP3   OH268151   1.482   2.224   3.312 -0.6136  0.0537  0.3224
15579TIP3    H168152   1.444   2.228   3.399 -2.5742  2.3183 -0.5485
15579TIP3    H268153   1.420   2.172   3.261 -0.8153  0.9067 -0.3147
15580TIP3   OH268154   4.141   5.442   2.398 -0.1755 -0.3185  0.0684
15580TIP3    H168155   4.086   5.373   2.433  1.3526 -0.4955  2.3327
15580TIP3    H268156   4.092   5.523   2.414 -0.8367 -0.6487 -0.2525
15581TIP3   OH268157   3.257   4.342   0.756  0.0889 -0.5036  0.1286
15581TIP3    H168158   3.208   4.424   0.760  2.3059  0.8880  0.7910
15581TIP3    H268159   3.196   4.276   0.787 -1.7833  0.8711 -0.4583
15582TIP3   OH268160   1.463   5.702   6.046  0.0300  0.2333  0.1873
15582TIP3    H168161   1.498   5.645   5.978  1.4342 -0.8318  1.7274
15582TIP3    H268162   1.427   5.777   5.999 -1.3867 -1.6248 -1.8846
15583TIP3   OH268163   3.248   1.455   0.953  0.0897  0.1355  0.4935
15583TIP3    H168164   3.230   1.465   0.860  0.3902 -3.1755 -0.0364
15583TIP3    H268165   3.178   1.398   0.986 -0.8352  2.3581  2.6942
15584TIP3   OH268166   2.692   5.509  14.038  0.0612  0.0745  0.0693
15584TIP3    H168167   2.685   5.472  14.126  0.2098 -2.0883 -0.7761
15584TIP3    H268168   2.776   5.476  14.005 -0.7761 -0.5779 -1.5028
15585TIP3   OH268169   3.619   4.510  16.251 -0.0152  0.1807  0.8127
15585TIP3    H168170   3.673   4.509  16.330 -1.3787  0.5482  1.7813
15585TIP3    H268171   3.680   4.535  16.181  1.5120 -1.4584  1.4786
15586TIP3   OH268172   6.377   5.586   2.222  0.0214  0.1995  0.4436
15586TIP3    H168173   6.354   5.594   2.315  0.2739  0.5445  0.4768
15586TIP3    H268174   6.293   5.597   2.176  0.0292  0.9144  0.5912
15587TIP3   OH268175   1.864   0.087  12.756 -0.6674 -0.1494  0.9842
15587TIP3    H168176   1.876   0.182  12.754  0.3985 -0.2837  0.1656
15587TIP3    H268177   1.869   0.064  12.849  1.3722  0.3419  1.0433
15588TIP3   OH268178   0.378   5.457   4.802 -0.4862  0.0108  0.1311
15588TIP3    H168179   0.338   5.413   4.877 -0.6705  1.2638  0.8042
15588TIP3    H268180   0.457   5.498   4.838 -1.7798  2.6161  0.2840
15589TIP3   OH268181   3.007   2.305   4.414  0.3493  0.4495 -0.2599
15589TIP3    H168182   3.086   2.296   4.361 -0.7845  2.3186 -2.4030
15589TIP3    H268183   2.951   2.232   4.386  0.9686 -0.4250  0.7118
15590TIP3   OH268184   0.651   2.456   2.573  0.6226  0.3816 -0.2263
15590TIP3    H168185   0.684   2.494   2.654 -2.3385 -0.4351  1.5243
15590TIP3    H268186   0.647   2.362   2.591  1.0250  0.0397 -1.7866
15591TIP3   OH268187   4.716   3.118   4.790  0.0508  0.0048  0.6660
15591TIP3    H168188   4.777   3.135   4.861  1.5860 -0.7315 -0.4350
15591TIP3    H268189   4.735   3.029   4.762 -0.2583  0.3913 -0.8971
15592TIP3   OH268190   4.760   4.096  14.415 -0.3174 -0.0508  0.4928
15592TIP3    H168191   4.751   4.123  14.323  1.1132  1.5857  0.7878
15592TIP3    H268192   4.709   4.161  14.464 -0.7225 -0.6727  0.9140
15593TIP3   OH268193   5.097   1.590   6.537  0.1946  0.5434 -0.0474
15593TIP3    H168194   5.055   1.505   6.529  0.8500  0.3802 -2.2833
15593TIP3    H268195   5.185   1.578   6.499  0.0459  2.3565 -1.0877
15594TIP3   OH268196   4.468   1.504   0.355 -0.7849  0.0044  0.2818
15594TIP3    H168197   4.535   1.537   0.297  0.1379 -0.2685  1.1621
15594TIP3    H268198   4.430   1.429   0.309 -0.7101  0.3519 -0.3502
15595TIP3   OH268199   3.112   3.084   3.636  0.0648 -0.1329  0.5050
15595TIP3    H168200   3.174   3.024   3.594 -2.5920 -1.5495 -1.7265
15595TIP3    H268201   3.130   3.169   3.595  2.1251  0.1333  1.7894
15596TIP3   OH268202   2.682   3.238  14.611  0.2984 -0.6241 -0.4180
15596TIP3    H168203   2.673   3.170  14.678 -0.0929 -1.2289 -1.0710
15596TIP3    H268204   2.660   3.319  14.656  0.6037 -0.9492  0.3307
15597TIP3   OH268205   1.903   5.878   4.809 -0.0887  0.4029 -0.1851
15597TIP3    H168206   1.879   5.900   4.719  0.4316 -0.0870 -0.4505
15597TIP3    H268207   1.918   5.783   4.808 -0.5355  0.3112  0.5237
15598TIP3   OH268208   3.371   4.550  13.204  0.7571  0.3042  0.1658
15598TIP3    H168209   3.317   4.540  13.283 -1.4160 -1.2432 -1.4116
15598TIP3    H268210   3.453   4.505  13.225 -0.0719 -0.7306  1.2859
15599TIP3   OH268211   5.315   1.182   1.940 -0.0748  1.2569 -0.2998
15599TIP3    H168212   5.239   1.191   1.883 -0.9426  1.1738  0.8243
15599TIP3    H268213   5.280   1.148   2.023  0.7241  3.8975  1.2377
15600TIP3   OH268214   3.398   0.922  13.093  0.0858  0.0346 -0.4504
15600TIP3    H168215   3.473   0.947  13.146  0.9682 -0.7462 -1.2953
15600TIP3    H268216   3.356   0.852  13.142  0.0681  0.2888 -0.1025
15601TIP3   OH268217   5.392   2.325  13.162  0.5326  0.1476  0.2102
15601TIP3    H168218   5.484   2.332  13.140  0.2726 -0.4318 -1.1532
15601TIP3    H268219   5.346   2.372  13.092 -0.1839  0.9435  1.1841
15602TIP3   OH268220   4.639   5.095  15.070  0.4671  0.2148 -0.2836
15602TIP3    H168221   4.563   5.124  15.121  0.3689 -0.6334  0.0688
15602TIP3    H268222   4.713   5.104  15.130  0.6721  1.1462 -0.6630
15603TIP3   OH268223   6.379   4.871  12.252 -0.2023 -0.3558 -0.5915
15603TIP3    H168224   6.423   4.906  12.175 -0.0926 -0.9348 -0.8023
15603TIP3    H268225   6.362   4.779  12.229  0.3512 -0.6878  0.2970
15604TIP3   OH268226   3.684   5.564   6.192 -0.2419  0.0690 -0.5572
15604TIP3    H168227   3.627   5.487   6.184 -1.4541  0.6357  1.6374
15604TIP3    H268228   3.771   5.528   6.209 -0.6411 -0.8348 -0.3494
15605TIP3   OH268229   2.014   2.378   4.691  0.6905  0.8078  0.0649
15605TIP3    H168230   1.983   2.467   4.672  1.4159  0.7218 -1.6970
15605TIP3    H268231   2.098   2.371   4.645  1.8183 -0.0409  2.0822
15606TIP3   OH268232   2.880   5.810  12.230 -0.1093 -0.1551 -0.1468
15606TIP3    H168233   2.796   5.764  12.234  0.1533 -0.6744 -0.5021
15606TIP3    H268234   2.870   5.873  12.158  0.5414 -1.7430 -1.6836
15607TIP3   OH268235   0.612   0.587   5.960  0.4215  0.6473 -0.1214
15607TIP3    H168236   0.600   0.494   5.975  2.2544  0.1541 -1.3461
15607TIP3    H268237   0.646   0.621   6.043 -1.0098  0.4222  0.5837
15608TIP3   OH268238   6.724   2.964  13.468  0.2549 -0.3294 -0.0176
15608TIP3    H168239   6.661   3.036  13.466  0.1143 -0.4479  0.0672
15608TIP3    H268240   6.677   2.891  13.426  0.5426 -0.2552 -0.4766
15609TIP3   OH268241   0.454   3.247   6.349  0.1776  0.3491 -0.2828
15609TIP3    H168242   0.519   3.258   6.418 -0.1179 -0.1048  0.0676
15609TIP3    H268243   0.391   3.317   6.364  0.5575  0.7705 -0.6031
15610TIP3   OH268244   1.655   1.553   2.362  0.1751 -0.5167  0.4871
15610TIP3    H168245   1.703   1.475   2.332  0.6172 -0.3118  0.6462
15610TIP3    H268246   1.625   1.530   2.450  0.4473 -0.4551  0.6001
15611TIP3   OH268247   0.135   2.465   5.219  0.0184 -0.4337  0.2649
15611TIP3    H168248   0.190   2.387   5.224 -0.2782 -0.5861  1.2062
15611TIP3    H268249   0.094   2.460   5.132  1.8846 -0.0454 -0.6914
15612TIP3   OH268250   0.229   3.727  16.304 -0.3937  0.8207  0.2347
15612TIP3    H168251   0.233   3.815  16.266 -0.7012  1.1856  1.0367
15612TIP3    H268252   0.141   3.696  16.284  0.2382  0.0125 -1.5046
15613TIP3   OH268253   6.074   2.709   3.797 -0.3590  0.0769 -0.5042
15613TIP3    H168254   6.110   2.645   3.736 -0.0739  1.4171 -1.7967
15613TIP3    H268255   6.035   2.776   3.741  3.1733  3.3221  0.4825
15614TIP3   OH268256   3.453   3.421  14.594  0.0717 -0.1990 -0.2094
15614TIP3    H168257   3.520   3.374  14.644  0.3251 -1.1200 -1.3493
15614TIP3    H268258   3.415   3.482  14.656  1.4597 -0.1767  0.6757
15615TIP3   OH268259   2.404   3.059  11.937 -0.3208 -0.2675 -0.4634
15615TIP3    H168260   2.346   2.984  11.943 -0.2335 -0.3663 -0.8537
15615TIP3    H268261   2.426   3.066  11.844 -0.3726  0.2734 -0.4418
15616TIP3   OH268262   0.235   1.937  17.028 -0.3620 -0.1054  0.2954
15616TIP3    H168263   0.180   1.940  16.950 -0.1993  1.9454  0.1823
15616TIP3    H268264   0.322   1.965  16.996  0.0421 -0.5741  0.9635
15617TIP3   OH268265   3.648   1.359   5.898 -0.3673 -0.2131 -0.5068
15617TIP3    H168266   3.664   1.283   5.952  1.9114  0.4748 -0.1328
15617TIP3    H268267   3.553   1.357   5.882 -1.1257 -0.6499  3.1593
15618TIP3   OH268268   1.666   3.493   1.306 -0.1284 -0.0350  0.7283
15618TIP3    H168269   1.704   3.556   1.367  0.7498 -0.6722  0.8587
15618TIP3    H268270   1.662   3.539   1.223  0.7532  0.1075  0.7613
15619TIP3   OH268271   6.536   0.841   2.897 -0.5165 -0.3347 -0.0380
15619TIP3    H168272   6.556   0.808   2.985 -1.1503  1.6617  0.9225
15619TIP3    H268273   6.448   0.808   2.879 -0.6676 -0.1628  0.3807
15620TIP3   OH268274   0.436   4.181  16.450  0.2108 -0.5352 -0.0820
15620TIP3    H168275   0.407   4.173  16.359  2.2273 -2.3816 -0.6352
15620TIP3    H268276   0.371   4.238  16.491 -1.2537 -0.3909 -2.4424
15621TIP3   OH268277   1.229   0.012  11.408 -0.1777 -0.6972 -0.2989
15621TIP3    H168278   1.315   0.054  11.412 -1.4691  2.3416 -1.6065
15621TIP3    H268279   1.232  -0.041  11.329  1.2855 -2.7723  1.0530
15622TIP3   OH268280   1.339   4.939   4.021 -0.1460  0.2751  0.4509
15622TIP3    H168281   1.319   4.849   3.995 -0.2567 -0.0499  1.6395
15622TIP3    H268282   1.418   4.932   4.073 -0.3282  0.8333  0.8081
15623TIP3   OH268283   2.784   4.631  15.931 -0.4081 -0.3141  0.0096
15623TIP3    H168284   2.783   4.724  15.908 -1.8047 -0.2207  0.3454
15623TIP3    H268285   2.776   4.630  16.027 -1.1947 -0.7701 -0.0495
15624TIP3   OH268286   6.551   1.938   2.602  0.1532 -0.1886 -0.1796
15624TIP3    H168287   6.591   1.855   2.629  1.1017  0.8070  1.7493
15624TIP3    H268288   6.567   1.997   2.676 -2.4980  1.0859 -0.4925
15625TIP3   OH268289   4.665   5.039  12.529 -0.0557  0.1384 -0.3385
15625TIP3    H168290   4.729   5.063  12.596 -1.1267  0.1586  0.7189
15625TIP3    H268291   4.710   4.974  12.475  0.4520 -0.7990  1.1501
15626TIP3   OH268292   3.427   5.199  13.200  0.0627  0.5000 -0.2752
15626TIP3    H168293   3.511   5.183  13.244 -0.6736  0.9017  1.3416
15626TIP3    H268294   3.379   5.257  13.259 -2.1962 -1.3662 -0.1497
15627TIP3   OH268295   6.747   1.745   5.496 -0.0929 -0.7232  0.1527
15627TIP3    H168296   6.659   1.735   5.531 -0.0456 -0.7846  0.2522
15627TIP3    H268297   6.797   1.672   5.532  0.0158 -0.6515  0.1489
15628TIP3   OH268298   6.651   6.472   4.988  0.0902 -0.6395  0.5471
15628TIP3    H168299   6.562   6.458   5.019 -0.0486 -2.4478 -0.5384
15628TIP3    H268300   6.643   6.476   4.893  0.8637  1.8813  0.5206
15629TIP3   OH268301   0.696   4.516   4.620 -0.1934  0.2213 -0.0318
15629TIP3    H168302   0.672   4.569   4.543  2.2451  1.2824 -0.1517
15629TIP3    H268303   0.680   4.426   4.593 -4.6435  0.7002  0.2281
15630TIP3   OH268304   5.204   5.313   2.534 -0.1578  0.2199  0.6889
15630TIP3    H168305   5.148   5.390   2.528  0.6069  0.7660  0.3714
15630TIP3    H268306   5.189   5.279   2.622 -0.9117  0.4080  0.6376
15631TIP3   OH268307   1.568   1.524  16.567 -0.5316 -0.1682 -0.2159
15631TIP3    H168308   1.519   1.600  16.534  0.6237  0.8904  0.3773
15631TIP3    H268309   1.519   1.495  16.644 -1.3318 -0.4314 -0.8193
15632TIP3   OH268310   2.134   2.541   6.635  0.2387 -0.3292 -0.2676
15632TIP3    H168311   2.211   2.507   6.588  0.3439  0.2388 -0.5151
15632TIP3    H268312   2.061   2.493   6.597  0.6133 -2.0942  1.1309
15633TIP3   OH268313   5.916   1.409  16.100 -0.3335  0.1419  0.4002
15633TIP3    H168314   5.979   1.376  16.036  0.2811  0.0225  1.0488
15633TIP3    H268315   5.839   1.434  16.048  0.5196  0.9965 -0.4998
15634TIP3   OH268316   3.392   1.979   3.613 -0.3864 -0.1919  0.5743
15634TIP3    H168317   3.303   1.968   3.579  0.0375 -1.7134 -0.1884
15634TIP3    H268318   3.427   1.890   3.614  1.4349  0.4835 -0.0305
15635TIP3   OH268319   2.328   4.432  11.764 -0.8820 -0.3242 -0.6350
15635TIP3    H168320   2.240   4.397  11.781 -0.7358 -0.9397 -1.1182
15635TIP3    H268321   2.352   4.395  11.679 -0.7991  1.1121 -1.2675
15636TIP3   OH268322   4.510   4.020  14.521 -0.4798  0.3564  0.2675
15636TIP3    H168323   4.571   4.002  14.593 -0.3790  0.8465  0.3144
15636TIP3    H268324   4.517   3.944  14.464  1.5618  1.1656 -0.6847
15637TIP3   OH268325   4.914   4.978   3.620 -0.2151  0.5905 -0.7464
15637TIP3    H168326   4.986   4.939   3.669 -0.4651  0.0244 -0.8232
15637TIP3    H268327   4.857   4.904   3.597 -0.5894  0.9708 -1.0709
15638TIP3   OH268328   1.675   6.567   5.935  0.0188 -0.2447 -0.3129
15638TIP3    H168329   1.737   6.528   5.873 -0.6637  0.8580 -1.7558
15638TIP3    H268330   1.672   6.505   6.008  0.7351 -1.6965 -1.4546
15639TIP3   OH268331   4.063   4.868   1.882 -0.4106  0.1252  0.2794
15639TIP3    H168332   4.088   4.867   1.974  2.0236 -0.2276 -0.2983
15639TIP3    H268333   4.089   4.955   1.851  1.2516 -0.6350 -0.6051
15640TIP3   OH268334   5.866   1.283   3.034 -0.2277  0.2669 -0.2172
15640TIP3    H168335   5.792   1.243   2.988  0.7791 -1.0512 -0.7595
15640TIP3    H268336   5.937   1.281   2.971  1.1399 -1.3876  1.2453
15641TIP3   OH268337   4.470   3.828  12.658 -0.4932  0.6698  0.1177
15641TIP3    H168338   4.439   3.738  12.651 -1.4451  0.7966  1.9561
15641TIP3    H268339   4.434   3.873  12.581 -1.1567 -0.2177 -0.0976
15642TIP3   OH268340   0.091   3.175  11.499 -0.0771 -0.2695  0.0729
15642TIP3    H168341   0.174   3.159  11.543  0.7701 -0.2963 -1.4526
15642TIP3    H268342   0.029   3.117  11.542  1.0711 -1.4812  0.1492
15643TIP3   OH268343   4.106   1.486  16.298 -0.0375  0.2765  0.1024
15643TIP3    H168344   4.085   1.414  16.358 -0.2931  0.9501  0.8322
15643TIP3    H268345   4.181   1.529  16.339 -0.2517  0.7796 -0.0352
15644TIP3   OH268346   5.508   5.820  13.237  0.1201 -0.3599 -0.2659
15644TIP3    H168347   5.471   5.890  13.183  0.1818  0.2435  0.4571
15644TIP3    H268348   5.450   5.817  13.314  0.7668 -0.3496  0.2270
15645TIP3   OH268349   2.356   1.205   1.578  0.0851  0.6399 -0.1256
15645TIP3    H168350   2.262   1.195   1.593 -0.2488  1.0909 -1.6970
15645TIP3    H268351   2.364   1.290   1.533  1.1473  0.2750 -0.6719
15646TIP3   OH268352   5.346   2.479   1.040 -0.1047  0.2588 -0.7899
15646TIP3    H168353   5.371   2.387   1.051 -1.6753 -0.2015 -0.7746
15646TIP3    H268354   5.325   2.487   0.946  0.4732  0.7261 -0.8831
15647TIP3   OH268355   1.498   3.658   2.111  0.6506 -0.0641 -0.1329
15647TIP3    H168356   1.477   3.708   2.032  1.1526 -1.2289 -1.0411
15647TIP3    H268357   1.585   3.687   2.136  0.4299  0.4162  0.0857
15648TIP3   OH268358   6.346   5.764   2.690 -0.1740  0.0442 -0.1941
15648TIP3    H168359   6.271   5.716   2.657  0.9213 -0.6156 -1.8648
15648TIP3    H268360   6.318   5.797   2.776 -1.8117 -1.4415 -0.1039
15649TIP3   OH268361   5.576   1.495  14.100  0.3526 -0.4177 -0.1504
15649TIP3    H168362   5.497   1.508  14.152  0.0460  0.3765 -0.7843
15649TIP3    H268363   5.544   1.470  14.013  0.8590 -1.8044  0.0323
15650TIP3   OH268364   0.183   5.295  15.658  0.2317  0.5887 -0.2122
15650TIP3    H168365   0.117   5.242  15.613  1.2518 -0.1322 -0.9217
15650TIP3    H268366   0.202   5.246  15.738  0.4284  0.3958 -0.3722
15651TIP3   OH268367   5.477   2.273  13.940  0.3860 -0.0875 -0.5912
15651TIP3    H168368   5.470   2.181  13.916 -0.7976  0.4295 -2.4178
15651TIP3    H268369   5.567   2.284  13.969  0.8564 -1.5760 -1.4203
15652TIP3   OH268370   6.529   2.239   5.914 -0.0724 -0.5134  0.0001
15652TIP3    H168371   6.607   2.252   5.861  0.5089 -0.5490  0.8271
15652TIP3    H268372   6.562   2.227   6.003 -1.1038  1.6452  0.7665
15653TIP3   OH268373   5.174   4.571  12.428  0.5337 -0.2753 -0.0220
15653TIP3    H168374   5.150   4.573  12.335 -1.3846 -0.2502  0.4352
15653TIP3    H268375   5.268   4.587  12.429  0.6383 -0.5615 -1.9800
15654TIP3   OH268376   4.477   3.144   0.495 -0.6142 -0.1409  0.2715
15654TIP3    H168377   4.568   3.114   0.485 -0.1957  1.3792 -0.7341
15654TIP3    H268378   4.485   3.230   0.537 -1.5645  0.1872 -0.2016
15655TIP3   OH268379   0.218   5.344   3.624  0.1929  0.3172  0.5721
15655TIP3    H168380   0.135   5.314   3.588 -0.1096  1.8256 -0.0715
15655TIP3    H268381   0.194   5.400   3.698  0.7289 -0.7940  1.6218
15656TIP3   OH268382   0.398   4.140  16.147 -0.2781 -0.2824  0.6299
15656TIP3    H168383   0.429   4.109  16.061  0.6586 -0.6231  1.0758
15656TIP3    H268384   0.339   4.213  16.126  0.4821  0.1035 -0.2928
15657TIP3   OH268385   3.123   0.991   3.093  0.1523  0.6366 -0.0322
15657TIP3    H168386   3.196   1.033   3.139 -0.2728 -0.0246  1.3227
15657TIP3    H268387   3.078   0.941   3.162  0.1598 -1.3685 -1.3854
15658TIP3   OH268388   4.878   6.114   2.147  0.1009 -0.8494 -0.2511
15658TIP3    H168389   4.973   6.110   2.157  0.1545 -0.5258 -0.5933
15658TIP3    H268390   4.861   6.073   2.063 -0.2244 -2.3763  0.5266
15659TIP3   OH268391   5.427   6.317   5.733  0.2275 -0.0288  0.0336
15659TIP3    H168392   5.445   6.225   5.713 -1.6663 -0.6490  0.9439
15659TIP3    H268393   5.332   6.325   5.728  0.3972  2.1562 -1.0099
15660TIP3   OH268394   2.819   4.333   5.622  0.0701  0.2666 -0.3707
15660TIP3    H168395   2.835   4.405   5.561  0.2727  0.1118 -0.5048
15660TIP3    H268396   2.742   4.289   5.587  0.2289  0.1337 -0.5613
15661TIP3   OH268397   5.618   0.237   1.082  0.0756 -0.0232 -0.0837
15661TIP3    H168398   5.641   0.287   1.003 -0.8408  0.3319 -0.1356
15661TIP3    H268399   5.608   0.304   1.150  0.9162 -0.3355  0.3585
15662TIP3   OH268400   3.000   1.514  12.567 -0.5202 -0.1190 -0.2989
15662TIP3    H168401   2.982   1.580  12.500 -0.9780 -0.9668 -1.0396
15662TIP3    H268402   3.079   1.545  12.611 -1.0691  1.2258 -0.2114
15663TIP3   OH268403   4.369   3.868  13.438 -0.0770 -0.1833  0.1483
15663TIP3    H168404   4.394   3.952  13.400 -0.0722 -0.7303 -1.1067
15663TIP3    H268405   4.276   3.878  13.458 -0.5337 -0.4460 -1.6714
15664TIP3   OH268406   2.589   2.378   4.576 -0.6312  0.1648  0.0340
15664TIP3    H168407   2.542   2.433   4.512  0.7807  0.7821 -0.5299
15664TIP3    H268408   2.650   2.439   4.618  0.0451 -0.7216  0.3466
15665TIP3   OH268409   3.113   4.287   1.523 -0.6992  0.1475 -0.4549
15665TIP3    H168410   3.081   4.239   1.447 -0.3137 -1.4961  0.3676
15665TIP3    H268411   3.190   4.334   1.492  2.1022 -3.8200 -0.2908
15666TIP3   OH268412   2.821   1.847  14.517  0.0356  0.2842 -0.5054
15666TIP3    H168413   2.859   1.856  14.430 -1.3568 -0.2940 -1.2054
15666TIP3    H268414   2.855   1.764  14.550 -1.6003 -0.9095 -1.6846
15667TIP3   OH268415   0.442   1.959   5.053  0.2971  0.1754  0.1132
15667TIP3    H168416   0.478   2.027   5.109 -1.0032  0.5202  0.5621
15667TIP3    H268417   0.452   1.878   5.103  2.7501 -0.2021 -0.8157
15668TIP3   OH268418   0.894   1.536   4.740 -0.1904 -0.0979 -0.4053
15668TIP3    H168419   0.937   1.485   4.809 -0.0387  1.3570  0.6038
15668TIP3    H268420   0.802   1.510   4.745  0.0484 -1.0648 -0.6519
15669TIP3   OH268421   6.595   6.599   1.203  0.2243  0.2420 -0.7446
15669TIP3    H168422   6.616   6.670   1.142  1.6258 -1.0084 -1.7839
15669TIP3    H268423   6.657   6.610   1.275  0.9129 -0.3018 -1.2389
15670TIP3   OH268424   5.319   1.677  13.670 -0.2600  0.3511  0.0498
15670TIP3    H168425   5.271   1.637  13.597 -0.6623  0.8086  0.0596
15670TIP3    H268426   5.293   1.627  13.747  1.0359 -0.8693 -0.2744
15671TIP3   OH268427   5.194   0.571   5.257  0.3619  0.2795 -0.8812
15671TIP3    H168428   5.289   0.585   5.259  0.7611 -1.9923 -0.8448
15671TIP3    H268429   5.175   0.526   5.340 -0.6050  0.0004 -1.2406
15672TIP3   OH268430   5.256   4.051  11.051  0.3276  0.1309  0.4202
15672TIP3    H168431   5.255   4.007  10.967  0.6324 -0.1886  0.5812
15672TIP3    H268432   5.236   4.143  11.031 -0.2468 -0.0681  0.0811
15673TIP3   OH268433   3.591   4.431  13.319  0.2681  0.0968 -0.0706
15673TIP3    H168434   3.561   4.451  13.407  2.0418 -0.6789  0.7621
15673TIP3    H268435   3.686   4.446  13.322  0.2784  0.6799 -2.0315
15674TIP3   OH268436   5.485   1.689   5.356  0.3022  0.5498  0.1453
15674TIP3    H168437   5.447   1.777   5.358  0.5844  0.7897 -1.9819
15674TIP3    H268438   5.531   1.686   5.272  0.8120 -1.4328  0.4612
15675TIP3   OH268439   5.495   1.899   1.889 -0.4276  0.4904  0.6515
15675TIP3    H168440   5.452   1.851   1.818  0.5187  0.0098  0.3800
15675TIP3    H268441   5.498   1.989   1.859 -0.1515  0.3111  0.1279
15676TIP3   OH268442   0.895   4.045   3.129 -0.4309 -0.1065  0.2011
15676TIP3    H168443   0.907   3.976   3.194 -2.4038 -0.6796  0.0276
15676TIP3    H268444   0.906   4.126   3.177 -0.5463 -0.5394  0.9721
15677TIP3   OH268445   5.208   5.361   3.256  0.3649  0.3639 -0.0118
15677TIP3    H168446   5.301   5.350   3.238  0.6685  1.9508  0.4546
15677TIP3    H268447   5.178   5.424   3.191 -0.5387 -0.5316 -0.5039
15678TIP3   OH268448   6.585   0.030   4.664 -0.0917 -0.8662  0.4288
15678TIP3    H168449   6.581   0.122   4.691 -0.9811 -0.2932 -1.4460
15678TIP3    H268450   6.679   0.010   4.660  0.1994  0.5063 -0.7023
15679TIP3   OH268451   4.537   1.409  10.568  0.1983 -0.4181  0.0353
15679TIP3    H168452   4.626   1.442  10.581  0.7213 -1.8380  0.3535
15679TIP3    H268453   4.480   1.475  10.607  1.0911  0.6485 -0.4306
15680TIP3   OH268454   0.193   6.364  11.600  0.3177 -0.2659 -0.2244
15680TIP3    H168455   0.215   6.452  11.630  0.0477  0.1860 -1.2890
15680TIP3    H268456   0.277   6.325  11.577  0.4122 -0.1871 -0.0167
15681TIP3   OH268457   5.318   3.756   5.751 -0.3591  0.0474  0.1588
15681TIP3    H168458   5.259   3.746   5.825  0.0496 -1.1778  0.3356
15681TIP3    H268459   5.405   3.760   5.790 -0.2536  1.0157 -0.1555
15682TIP3   OH268460   4.777   6.648  13.302 -0.1913 -0.2749 -0.0059
15682TIP3    H168461   4.751   6.713  13.237  0.8120  0.0406 -0.1020
15682TIP3    H268462   4.716   6.575  13.289 -0.4095  0.0531 -0.8546
15683TIP3   OH268463   1.954   3.955  12.228 -0.1243  0.2635  0.6654
15683TIP3    H168464   2.038   3.979  12.188 -1.3163  0.2260 -2.0584
15683TIP3    H268465   1.978   3.907  12.307  2.3934  0.9277  0.3925
15684TIP3   OH268466   0.412   5.175  15.963  0.6429 -0.0663 -0.4217
15684TIP3    H168467   0.327   5.199  15.926  1.3533  1.0181 -1.4321
15684TIP3    H268468   0.416   5.079  15.957  0.1645 -0.0074 -1.9178
15685TIP3   OH268469   5.160   5.645  11.348  0.0949 -0.8043  0.6300
15685TIP3    H168470   5.254   5.640  11.367  0.8219 -0.2084 -2.2891
15685TIP3    H268471   5.143   5.568  11.293 -0.1889  1.0099 -2.0022
15686TIP3   OH268472   1.796   2.476  14.296  0.1737 -0.1817 -0.7135
15686TIP3    H168473   1.729   2.460  14.361 -0.6308 -0.7347 -1.6447
15686TIP3    H268474   1.763   2.549  14.244  0.5626 -0.0822 -0.8249
15687TIP3   OH268475   0.282   5.228   4.949 -0.0667  0.5527  0.1641
15687TIP3    H168476   0.258   5.226   4.856  0.0538  2.1461  0.0689
15687TIP3    H268477   0.356   5.168   4.956 -0.9820 -0.6924 -0.4739
15688TIP3   OH268478   4.238   2.509  11.642  0.3089  0.1520 -0.2123
15688TIP3    H168479   4.186   2.495  11.722  0.5320 -0.1203 -0.1092
15688TIP3    H268480   4.312   2.448  11.652  0.7212  0.6371 -0.2892
15689TIP3   OH268481   3.973   6.280  16.945  0.3243 -0.2142 -0.9044
15689TIP3    H168482   4.006   6.276  17.035 -1.6285 -0.7515 -0.1668
15689TIP3    H268483   4.032   6.224  16.896  2.3176  1.2441 -0.2941
15690TIP3   OH268484   2.051   3.336   4.197  0.2732  0.7142 -0.6606
15690TIP3    H168485   2.015   3.290   4.121  0.7233  2.7618 -2.2295
15690TIP3    H268486   1.984   3.400   4.220  1.0363  1.6088 -0.8168
15691TIP3   OH268487   4.439   1.452   4.735 -0.7055 -0.0960 -0.0070
15691TIP3    H168488   4.346   1.470   4.725 -0.3635  1.5193 -0.5159
15691TIP3    H268489   4.463   1.491   4.818 -0.3982 -0.1816 -0.0521
15692TIP3   OH268490   1.284   5.226   0.189 -0.6964  0.1520 -0.3117
15692TIP3    H168491   1.288   5.316   0.157  1.2657  0.4725  0.6893
15692TIP3    H268492   1.195   5.218   0.225 -0.8532  1.7391 -0.2612
15693TIP3   OH268493   3.296   6.651  12.997 -0.0442  0.1027  0.1419
15693TIP3    H168494   3.385   6.649  13.030 -0.0016 -0.6125  0.0043
15693TIP3    H268495   3.299   6.600  12.916 -0.4722  0.4915 -0.1252
15694TIP3   OH268496   6.118   6.735  10.981 -0.1233  0.8499 -0.3759
15694TIP3    H168497   6.173   6.813  10.971 -0.8526  1.3169 -0.8374
15694TIP3    H268498   6.036   6.758  10.938 -0.5731  0.0475  0.0300
15695TIP3   OH268499   2.534   5.208  12.045 -0.5941  0.0006  0.6735
15695TIP3    H168500   2.571   5.165  11.968 -2.4009  1.0560 -0.8806
15695TIP3    H268501   2.605   5.209  12.109  1.1865 -0.3510 -1.2025
15696TIP3   OH268502   3.565   1.302  14.457 -0.9187 -0.8767 -0.2963
15696TIP3    H168503   3.645   1.346  14.485 -1.0426 -0.4094 -0.6570
15696TIP3    H268504   3.507   1.307  14.533 -1.7927  1.6598 -1.0021
15697TIP3   OH268505   3.294   0.920   3.460 -0.8609 -0.0219 -0.4444
15697TIP3    H168506   3.368   0.966   3.420 -0.0490 -0.9256 -0.0078
15697TIP3    H268507   3.301   0.831   3.427 -0.5521 -0.6282  1.2012
15698TIP3   OH268508   4.121   3.996  15.803 -0.6110 -0.9446  0.0541
15698TIP3    H168509   4.165   4.018  15.721  0.0229 -1.5268  0.2239
15698TIP3    H268510   4.036   4.038  15.797  1.5468  4.5651  1.7369
15699TIP3   OH268511   2.487   5.424  13.430 -0.2007  0.6921  0.1260
15699TIP3    H168512   2.478   5.463  13.518  0.3541  0.0598  0.4731
15699TIP3    H268513   2.523   5.337  13.446 -0.5191  0.3998 -0.7090
15700TIP3   OH268514   3.536   6.396  14.229 -0.1612 -0.6075 -0.6569
15700TIP3    H168515   3.507   6.326  14.170 -2.6956  0.4259 -0.7651
15700TIP3    H268516   3.455   6.438  14.258  1.0836  0.0533  2.2129
15701TIP3   OH268517   3.510   3.217   3.481  0.7025  0.1701 -0.3176
15701TIP3    H168518   3.453   3.170   3.420  2.0890  0.0847 -1.5965
15701TIP3    H268519   3.480   3.307   3.477  0.1480 -0.0081 -0.3549
15702TIP3   OH268520   3.589   5.530  15.918 -0.0431 -0.8743 -0.0778
15702TIP3    H168521   3.620   5.592  15.852  2.2177 -1.7024  0.1241
15702TIP3    H268522   3.652   5.458  15.915 -0.8653 -1.7474  1.7855
15703TIP3   OH268523   0.056   4.752  11.378  0.2419  0.1169  0.1386
15703TIP3    H168524   0.088   4.801  11.302  0.3533  0.9693  0.7096
15703TIP3    H268525  -0.023   4.708  11.347 -0.2047  1.1539 -0.2567
15704TIP3   OH268526   3.717   2.787  16.346  0.2343 -0.3062  0.3900
15704TIP3    H168527   3.633   2.745  16.359 -0.4240  0.6192 -0.7293
15704TIP3    H268528   3.743   2.815  16.434 -1.8801  1.6833  0.4753
15705TIP3   OH268529   1.280   2.009  11.688  0.4294  0.2612 -0.3601
15705TIP3    H168530   1.369   1.975  11.696  0.2218 -0.6773 -1.6985
15705TIP3    H268531   1.291   2.104  11.686  1.4622  0.1511 -0.9259
15706TIP3   OH268532   4.843   6.171  15.946  0.2743 -0.2401 -0.5025
15706TIP3    H168533   4.930   6.209  15.933 -0.3405  0.9989 -1.0562
15706TIP3    H268534   4.787   6.245  15.966 -0.4011 -1.1902  1.3353
15707TIP3   OH268535   3.627   4.932   0.974 -0.1011 -0.2402  0.7558
15707TIP3    H168536   3.644   5.013   0.925  1.4103 -1.2887 -0.5603
15707TIP3    H268537   3.710   4.911   1.016  0.1008 -2.0313 -0.4056
15708TIP3   OH268538   3.031   4.213  15.157  0.6461 -0.1031  0.2315
15708TIP3    H168539   3.099   4.268  15.119  0.6472  0.0953  0.5271
15708TIP3    H268540   3.050   4.125  15.123 -0.2474  0.3057 -1.4939
15709TIP3   OH268541   4.147   3.892   1.229 -0.5937 -0.0509 -0.3558
15709TIP3    H168542   4.129   3.874   1.136  0.8845 -0.2718 -0.6256
15709TIP3    H268543   4.185   3.979   1.229 -0.1759 -0.2336 -0.0069
15710TIP3   OH268544   3.912   2.280   2.314 -0.5830  0.2498  0.2232
15710TIP3    H168545   3.930   2.259   2.406 -0.6383 -0.8281 -0.0070
15710TIP3    H268546   3.823   2.315   2.314 -0.0467  1.7253  0.7812
15711TIP3   OH268547   4.220   4.481  15.709  0.0781 -0.7347 -0.1698
15711TIP3    H168548   4.208   4.410  15.646 -0.5370 -1.8804  1.1663
15711TIP3    H268549   4.249   4.555  15.657 -1.2929 -1.3654 -1.9144
15712TIP3   OH268550   3.245   3.454  13.737  0.2761  0.0299  0.0917
15712TIP3    H168551   3.212   3.382  13.683 -1.6024 -0.6117  1.9089
15712TIP3    H268552   3.216   3.533  13.692 -0.3858 -0.4518 -0.3502
15713TIP3   OH268553   4.471   5.256   2.650  0.4128 -0.6207 -0.3377
15713TIP3    H168554   4.506   5.342   2.673 -0.3609  0.0600 -1.5880
15713TIP3    H268555   4.541   5.214   2.599  0.3461 -0.2608 -0.7257
15714TIP3   OH268556   1.764   3.327  14.153 -0.6519  0.1953 -0.4709
15714TIP3    H168557   1.762   3.412  14.197  1.7296  0.2488 -0.3827
15714TIP3    H268558   1.702   3.337  14.081  0.9920  2.7263 -1.6678
15715TIP3   OH268559   6.034   4.930  14.394 -0.5799  0.1022 -0.0513
15715TIP3    H168560   5.951   4.975  14.381  0.4533  2.0005 -0.5337
15715TIP3    H268561   6.049   4.883  14.312 -2.4963 -2.7391  1.0701
15716TIP3   OH268562   5.345   3.895  14.300 -0.7256  0.2741  0.2917
15716TIP3    H168563   5.365   3.972  14.247  0.2829 -1.1064 -1.4606
15716TIP3    H268564   5.359   3.821  14.241  0.1334 -1.3543  2.4017
15717TIP3   OH268565   5.393   3.526   1.028  0.2633 -0.2859 -0.3586
15717TIP3    H168566   5.478   3.484   1.016 -0.6199 -2.1068 -0.5963
15717TIP3    H268567   5.329   3.455   1.015 -1.2213  0.5050  1.9592
15718TIP3   OH268568   3.398   5.039   4.816  0.4057 -0.3393 -0.2883
15718TIP3    H168569   3.493   5.040   4.805  0.2834 -1.5320 -1.7536
15718TIP3    H268570   3.376   4.947   4.829 -0.5507 -0.0608  0.1710
15719TIP3   OH268571   0.929   6.668  13.892 -0.4288  0.4911 -0.1457
15719TIP3    H168572   0.869   6.697  13.960  0.0829  1.9108 -0.2581
15719TIP3    H268573   0.881   6.680  13.810 -0.4616  0.3477 -0.1477
15720TIP3   OH268574   4.415   4.668  12.023  0.1766 -0.3308  0.0508
15720TIP3    H168575   4.461   4.641  11.944 -1.0613  1.7364 -1.4563
15720TIP3    H268576   4.405   4.587  12.074 -0.0635 -1.9840 -2.4568
15721TIP3   OH268577   1.570   3.071   5.944  0.2744  0.5592  0.2448
15721TIP3    H168578   1.635   3.002   5.949  1.5902  1.7607  0.2418
15721TIP3    H268579   1.521   3.052   5.864  0.9321 -0.0858 -0.0166
15722TIP3   OH268580   4.733   3.774   1.123  0.1368  0.1452  0.1290
15722TIP3    H168581   4.724   3.714   1.048 -1.2399  0.1965  0.2191
15722TIP3    H268582   4.701   3.724   1.198  0.4739  0.4647  0.4888
15723TIP3   OH268583   5.008   3.846   1.059  0.2996  0.5791 -0.1424
15723TIP3    H168584   4.922   3.820   1.093  0.5209  0.3266  0.2237
15723TIP3    H268585   5.069   3.782   1.096  0.8167  1.4482  0.5448
15724TIP3   OH268586   1.936   5.865   0.389  0.2857  0.0556 -0.0679
15724TIP3    H168587   1.932   5.873   0.484  0.9485  0.6401 -0.0757
15724TIP3    H268588   1.878   5.934   0.357  0.3863  0.1311 -0.0880
15725TIP3   OH268589   1.871   4.457  12.295 -0.0943  0.8826  0.6551
15725TIP3    H168590   1.898   4.471  12.385  0.8234 -0.0503  0.5419
15725TIP3    H268591   1.831   4.371  12.294  1.6411  0.0212 -0.1558
15726TIP3   OH268592   5.289   6.603   1.726 -0.4624 -0.2539 -0.7941
15726TIP3    H168593   5.238   6.676   1.691 -0.6982 -0.9328 -1.9506
15726TIP3    H268594   5.259   6.527   1.675 -1.4806 -1.5223  1.5089
15727TIP3   OH268595   4.256   4.240  11.616  0.1904  0.7839  0.3850
15727TIP3    H168596   4.190   4.266  11.551  0.2696 -0.4717 -0.2416
15727TIP3    H268597   4.230   4.151  11.642  0.7691  0.8655  1.2835
15728TIP3   OH268598   3.920   2.151   2.976 -0.2859  0.0893  0.1380
15728TIP3    H168599   3.918   2.147   3.072 -1.9682  0.3357  0.1284
15728TIP3    H268600   3.862   2.080   2.948  0.7856 -0.4756 -0.7351
15729TIP3   OH268601   4.699   2.350   4.742 -0.0380  0.5469  0.1647
15729TIP3    H168602   4.776   2.371   4.689 -0.3012  2.6324  0.5307
15729TIP3    H268603   4.731   2.352   4.832 -0.0246 -1.0087  0.2187
15730TIP3   OH268604   1.431   3.053  16.600  1.0194 -0.4343  0.0492
15730TIP3    H168605   1.384   3.123  16.555 -0.7604 -0.8135  1.2423
15730TIP3    H268606   1.498   3.098  16.651  0.6494  0.2867 -0.0917
15731TIP3   OH268607   2.228   4.977  10.504 -0.5351  0.1653 -0.1954
15731TIP3    H168608   2.191   5.010  10.421 -1.6310  0.8419  0.5326
15731TIP3    H268609   2.151   4.950  10.555  0.1362 -0.3248  0.5751
15732TIP3   OH268610   2.185   3.433  11.316 -0.3037 -0.6570 -0.5337
15732TIP3    H168611   2.098   3.470  11.299 -0.6339 -0.3417  1.5665
15732TIP3    H268612   2.200   3.449  11.409  0.5512 -3.7337 -0.0379
15733TIP3   OH268613   1.297   1.801   2.860  0.0452  0.5061 -0.0996
15733TIP3    H168614   1.289   1.896   2.850  1.1215  0.4020 -2.7988
15733TIP3    H268615   1.354   1.790   2.936 -1.4712  1.9020  1.3482
15734TIP3   OH268616   5.996   2.061   3.013 -0.5352  0.5209  0.6474
15734TIP3    H168617   5.988   2.115   3.092  1.8581  0.8972  0.7058
15734TIP3    H268618   6.007   2.124   2.942 -1.1836  0.1430  0.1948
15735TIP3   OH268619   5.605   5.123  12.158  0.0542 -0.3430  0.3697
15735TIP3    H168620   5.630   5.036  12.191  3.7845  0.8884  1.2190
15735TIP3    H268621   5.603   5.113  12.063  3.2145 -0.8595  0.2654
15736TIP3   OH268622   3.363   4.689   3.226 -0.2220 -0.0603  0.2001
15736TIP3    H168623   3.317   4.715   3.146 -0.4240 -0.0541  0.3189
15736TIP3    H268624   3.419   4.764   3.248 -0.0446 -0.1242 -0.0239
15737TIP3   OH268625   3.941   2.069  16.886  0.2889 -1.0724  0.1395
15737TIP3    H168626   4.020   2.015  16.889 -0.2356 -1.8140  1.7033
15737TIP3    H268627   3.902   2.050  16.800  0.6191 -2.4497  0.2731
15738TIP3   OH268628   4.658   2.873   6.054  0.3257 -0.8468  0.2005
15738TIP3    H168629   4.647   2.936   6.125  1.6483 -0.9226  0.5033
15738TIP3    H268630   4.615   2.793   6.085  0.6877 -0.8060  0.8156
15739TIP3   OH268631   4.042   5.847   1.172 -1.0379 -0.3971 -0.0527
15739TIP3    H168632   4.023   5.915   1.236 -0.8624 -1.7454  1.5189
15739TIP3    H268633   3.966   5.845   1.114 -0.0742  2.6478 -1.6260
15740TIP3   OH268634   0.875   6.369   5.044  0.2538 -0.5453  0.3292
15740TIP3    H168635   0.889   6.337   4.955 -0.8698  1.1292 -0.4974
15740TIP3    H268636   0.843   6.292   5.092 -0.6266 -1.1325 -1.1141
15741TIP3   OH268637   4.438   1.333   4.499 -0.1268  0.6615 -0.6048
15741TIP3    H168638   4.515   1.283   4.526 -0.0742  1.3564  0.5833
15741TIP3    H268639   4.415   1.385   4.575 -3.0648 -1.0535 -0.1595
15742TIP3   OH268640   3.787   5.964   1.637 -0.3599  0.2705  0.0135
15742TIP3    H168641   3.848   5.891   1.622 -1.1762 -0.2752 -0.7465
15742TIP3    H268642   3.713   5.925   1.683 -0.1611  0.9271  0.9142
15743TIP3   OH268643   4.447   4.931  17.113 -0.1224  0.3208  0.3653
15743TIP3    H168644   4.409   4.897  17.032  0.7204 -0.0459  0.1171
15743TIP3    H268645   4.509   4.999  17.084  0.8845 -0.4595  0.6266
15744TIP3   OH268646   1.362   0.146   3.753  0.0019 -0.3380  0.1804
15744TIP3    H168647   1.346   0.057   3.783 -0.8989  0.1480  1.2123
15744TIP3    H268648   1.427   0.181   3.814 -0.5146  0.0780  0.5037
15745TIP3   OH268649   2.115   0.189   2.638  0.4173 -0.7384  0.6005
15745TIP3    H168650   2.207   0.163   2.636  0.0279 -2.1799 -1.2139
15745TIP3    H268651   2.101   0.236   2.556 -0.3977 -0.2154  1.0194
15746TIP3   OH268652   1.036   6.102  16.014 -0.5234 -0.2908 -0.0409
15746TIP3    H168653   0.944   6.080  16.029 -1.0598  0.5253 -1.7927
15746TIP3    H268654   1.048   6.186  16.057 -0.9001  0.0764 -0.6283
15747TIP3   OH268655   2.376   4.820  10.810 -0.2351  0.5254 -0.5116
15747TIP3    H168656   2.377   4.796  10.903 -1.4853 -0.0362 -0.6301
15747TIP3    H268657   2.410   4.742  10.765  2.1134  1.4234 -0.4379
15748TIP3   OH268658   4.362   6.243  12.931 -0.1209 -0.6696 -0.0669
15748TIP3    H168659   4.397   6.233  13.019  0.4406  0.6468 -0.1155
15748TIP3    H268660   4.283   6.295  12.942 -0.5895 -1.3295 -0.2503
15749TIP3   OH268661   5.933   3.228  12.788 -0.2632  0.1847  0.2962
15749TIP3    H168662   5.955   3.230  12.881  1.6546 -0.5657 -0.1050
15749TIP3    H268663   5.987   3.296  12.749 -0.8673  0.3242 -0.3269
15750TIP3   OH268664   1.122   5.278  15.220 -0.0443 -0.1855  0.3104
15750TIP3    H168665   1.060   5.208  15.200  1.5269 -1.0852 -1.6874
15750TIP3    H268666   1.068   5.357  15.225 -1.6460 -1.2807  1.0668
15751TIP3   OH268667   6.534   5.938   4.095 -0.1566  0.0860  0.5374
15751TIP3    H168668   6.584   5.882   4.155 -0.8093 -1.3999 -0.2523
15751TIP3    H268669   6.484   5.877   4.041 -1.4980  1.4737  0.1422
15752TIP3   OH268670   5.230   2.552   4.608  0.7688  0.2521  0.8177
15752TIP3    H168671   5.148   2.546   4.657  1.0183 -0.5096  1.1668
15752TIP3    H268672   5.246   2.646   4.598  0.0763  0.4074  1.1160
15753TIP3   OH268673   3.085   3.942  13.663  0.0897  0.0607  0.2881
15753TIP3    H168674   2.990   3.936  13.669  0.1328 -1.2361 -0.0750
15753TIP3    H268675   3.115   3.933  13.754 -0.1339  0.7074  0.4309
15754TIP3   OH268676   0.608   4.620  13.788 -0.3850 -0.1344  0.3231
15754TIP3    H168677   0.687   4.621  13.841 -0.5438 -0.2342  0.5622
15754TIP3    H268678   0.593   4.528  13.768  2.4983  0.0398 -4.1562
15755TIP3   OH268679   6.294   6.225  11.987  0.8957  0.5729 -0.5005
15755TIP3    H168680   6.214   6.276  12.004  0.7999  0.3438 -0.2608
15755TIP3    H268681   6.269   6.135  12.005  0.5458  0.1894 -2.6798
15756TIP3   OH268682   1.950   1.866   0.966  0.2778  0.2880  0.1054
15756TIP3    H168683   2.000   1.815   0.903  2.1626  2.4128 -0.2232
15756TIP3    H268684   1.888   1.916   0.913 -0.9079 -0.8754  0.3455
15757TIP3   OH268685   5.675   0.428   5.012 -0.1754 -0.0851  0.2625
15757TIP3    H168686   5.726   0.452   5.090 -0.1913 -1.0216  0.5690
15757TIP3    H268687   5.586   0.414   5.044  0.1331 -2.0391  0.3892
15758TIP3   OH268688   2.756   5.180   0.041  0.0931 -0.2517  0.1456
15758TIP3    H168689   2.805   5.237  -0.018  1.2411  0.3401  1.6008
15758TIP3    H268690   2.812   5.102   0.050  1.1003  0.6159  2.1764
15759TIP3   OH268691   1.474   1.265  15.911  0.1644 -0.1304 -0.2127
15759TIP3    H168692   1.393   1.238  15.869 -0.6133  0.7537  0.6884
15759TIP3    H268693   1.514   1.182  15.940 -1.0497 -0.4856  0.4850
15760TIP3   OH268694   2.429   6.640  10.480  0.0641  0.2227 -0.2068
15760TIP3    H168695   2.500   6.672  10.535  0.7258  0.2429 -1.0577
15760TIP3    H268696   2.381   6.719  10.454 -0.8304  0.1316  1.1027
15761TIP3   OH268697   2.341   2.256   1.115 -0.1530 -0.2877  0.1790
15761TIP3    H168698   2.374   2.170   1.088 -1.8294 -0.8768 -0.0725
15761TIP3    H268699   2.343   2.308   1.035 -0.3262 -0.4752  0.0522
15762TIP3   OH268700   0.255   3.337   4.775 -0.3547  0.4072 -0.1400
15762TIP3    H168701   0.225   3.248   4.794 -0.7017  0.8972  1.8747
15762TIP3    H268702   0.308   3.361   4.851 -0.3827  1.9701 -0.5832
15763TIP3   OH268703   3.175   6.763   5.882  0.0503  0.0460 -0.0152
15763TIP3    H168704   3.185   6.784   5.789  1.9343 -2.4014 -0.4592
15763TIP3    H268705   3.083   6.735   5.891  0.2884 -1.3490 -1.5443
15764TIP3   OH268706   2.552   2.791   3.152  0.1705  0.2855  0.3823
15764TIP3    H168707   2.535   2.882   3.177  1.2344  0.5905  0.0442
15764TIP3    H268708   2.525   2.740   3.229 -1.7651  0.7417  0.0571
15765TIP3   OH268709   3.676   5.568   1.256 -0.0004  0.0215 -0.3975
15765TIP3    H168710   3.629   5.609   1.329  0.5685 -0.9133  0.5192
15765TIP3    H268711   3.668   5.631   1.184 -0.3583  1.0905  0.5451
15766TIP3   OH268712   3.355   3.702   4.495 -0.5146  0.0028 -0.3224
15766TIP3    H168713   3.338   3.794   4.476 -0.0764  0.0429 -0.5252
15766TIP3    H268714   3.309   3.655   4.425  1.2330  0.1548 -1.6574
15767TIP3   OH268715   5.277   4.117  13.282 -0.1233  0.0315  0.4345
15767TIP3    H168716   5.295   4.047  13.219 -0.0544 -0.2145  0.7234
15767TIP3    H268717   5.221   4.075  13.348  0.3792  0.0946  0.9080
15768TIP3   OH268718   6.421   1.462   1.689  0.0945 -0.4401  0.2339
15768TIP3    H168719   6.346   1.411   1.659  0.3459 -0.4856 -0.3317
15768TIP3    H268720   6.394   1.496   1.774 -0.2607 -1.1234  0.4032
15769TIP3   OH268721   2.252   4.549  13.747  0.5473  0.3036 -0.1197
15769TIP3    H168722   2.287   4.487  13.683  0.2379  2.2851 -2.3650
15769TIP3    H268723   2.293   4.524  13.830  1.5564 -1.9295 -1.2046
15770TIP3   OH268724   3.938   4.210   3.592 -0.3749 -0.0182  0.1791
15770TIP3    H168725   3.861   4.153   3.594 -0.3547 -0.0249  0.9268
15770TIP3    H268726   4.012   4.150   3.601 -0.3106  0.0485  0.0949
15771TIP3   OH268727   2.750   3.561   2.405 -0.3717  0.1678 -0.4227
15771TIP3    H168728   2.843   3.584   2.409 -0.1747 -0.7348  1.1889
15771TIP3    H268729   2.748   3.467   2.423 -1.6053  0.1957 -0.3199
15772TIP3   OH268730   3.326   2.776   3.588  0.0003  0.1717  0.0429
15772TIP3    H168731   3.288   2.760   3.502  1.4786  0.3122 -0.6614
15772TIP3    H268732   3.412   2.814   3.570 -0.1725  1.4063  1.5995
15773TIP3   OH268733   1.623   2.108   2.276 -0.1313 -0.3988  0.3858
15773TIP3    H168734   1.664   2.023   2.288 -0.5246 -0.9484 -1.6293
15773TIP3    H268735   1.531   2.088   2.256  0.0887  0.3201 -1.6637
15774TIP3   OH268736   0.412   0.207   3.376  0.1192 -0.4726 -0.1365
15774TIP3    H168737   0.383   0.298   3.372  1.6383  0.0840  0.6935
15774TIP3    H268738   0.501   0.212   3.411 -0.0992 -2.3427  0.8029
15775TIP3   OH268739   0.487   6.150  12.116  0.5272  0.1981 -0.0212
15775TIP3    H168740   0.420   6.190  12.060 -1.5363 -2.2732  0.4943
15775TIP3    H268741   0.500   6.213  12.186 -2.3666  0.2417  0.6080
15776TIP3   OH268742   5.375   2.208  15.925  0.0984 -0.0757  0.6245
15776TIP3    H168743   5.383   2.217  16.021 -2.6271  0.4399  0.8785
15776TIP3    H268744   5.283   2.185  15.911  0.7526 -1.3997 -1.8327
15777TIP3   OH268745   2.975   0.560  10.410 -0.1935 -0.1349  0.2116
15777TIP3    H168746   3.013   0.507  10.479  1.2983 -0.0426 -0.4998
15777TIP3    H268747   3.038   0.631  10.397 -2.3230  2.1353  1.4463
15778TIP3   OH268748   3.859   1.154  10.513  0.7971 -0.3760 -0.3029
15778TIP3    H168749   3.931   1.155  10.576 -0.8278 -0.5557  1.6484
15778TIP3    H268750   3.839   1.061  10.501  1.4655 -0.3824 -1.6119
15779TIP3   OH268751   2.760   3.935   4.074 -0.3940  0.1424 -0.0535
15779TIP3    H168752   2.730   3.972   3.991 -1.9797  1.4764  1.0536
15779TIP3    H268753   2.688   3.879   4.102  0.6076 -1.2039 -0.0851
15780TIP3   OH268754   3.502   0.663  13.481  0.2382  0.2659 -0.3785
15780TIP3    H168755   3.463   0.634  13.563  0.3163 -0.3681 -0.5582
15780TIP3    H268756   3.551   0.742  13.504  1.4759 -0.7205  0.4789
15781TIP3   OH268757   6.492   3.025   5.259  0.5728 -0.5926 -0.2564
15781TIP3    H168758   6.553   3.097   5.243  0.2517 -0.0555  0.9013
15781TIP3    H268759   6.422   3.063   5.311  0.9391 -1.9786  1.3416
15782TIP3   OH268760   5.262   3.898   5.163  0.3726 -0.2688  1.2516
15782TIP3    H168761   5.169   3.913   5.146 -0.1197 -2.1279  2.0279
15782TIP3    H268762   5.282   3.954   5.238  0.1341  0.8412  0.5039
15783TIP3   OH268763   4.757   3.711   1.843 -0.0475 -0.3592  0.3469
15783TIP3    H168764   4.719   3.798   1.833 -0.7142 -0.9012 -4.0037
15783TIP3    H268765   4.851   3.727   1.855 -0.0923  0.9999 -0.8070
15784TIP3   OH268766   2.628   0.283  12.891 -0.0879 -0.0026 -0.0629
15784TIP3    H168767   2.572   0.352  12.925 -0.7097 -0.6646  0.2783
15784TIP3    H268768   2.716   0.321  12.892 -0.4441  0.8579 -0.1056
15785TIP3   OH268769   4.723   6.744   1.705 -0.7254 -0.3257 -0.1697
15785TIP3    H168770   4.701   6.837   1.711 -1.5234 -0.5895  1.5947
15785TIP3    H268771   4.665   6.702   1.768  0.6596 -1.8419  0.1529
15786TIP3   OH268772   5.386   4.557   1.950 -0.3844 -0.0720  0.6279
15786TIP3    H168773   5.380   4.640   1.904  0.0088 -1.0254 -1.2542
15786TIP3    H268774   5.336   4.571   2.031 -0.1462  2.0249  0.4696
15787TIP3   OH268775   0.849   4.763   4.015  0.0362  0.5854  1.0132
15787TIP3    H168776   0.805   4.712   4.083  0.7896  1.0820  1.9014
15787TIP3    H268777   0.934   4.720   4.005 -0.8146 -0.7819 -1.1669
15788TIP3   OH268778   5.561   5.445   1.032 -0.2433 -0.6860 -0.5459
15788TIP3    H168779   5.580   5.537   1.014 -0.2762 -0.6448 -0.3776
15788TIP3    H268780   5.620   5.396   0.975 -1.3003 -0.5692 -1.7942
15789TIP3   OH268781   2.443   1.300  12.664  0.2180  0.3800 -0.4808
15789TIP3    H168782   2.414   1.223  12.615 -2.1536  0.8195  0.1243
15789TIP3    H268783   2.454   1.368  12.598  2.3935 -0.4252 -1.0305
15790TIP3   OH268784   3.774   4.389   1.748  0.1529 -0.7011  0.3597
15790TIP3    H168785   3.795   4.468   1.798  2.2965  0.9496 -2.8580
15790TIP3    H268786   3.687   4.406   1.712  1.8927  2.0291 -3.1458
15791TIP3   OH268787   4.875   0.783  15.490  0.2314 -0.2389  0.1177
15791TIP3    H168788   4.940   0.715  15.474  0.3660  0.0309 -0.5229
15791TIP3    H268789   4.908   0.831  15.566  0.1626 -0.8524  0.5344
15792TIP3   OH268790   1.794   0.289  14.654  0.0258 -0.0696 -0.8058
15792TIP3    H168791   1.847   0.292  14.574  0.1103  0.5509 -0.7315
15792TIP3    H268792   1.717   0.237  14.629  0.4182 -0.5426 -1.0622
15793TIP3   OH268793   3.413   6.576   1.914 -0.3511  0.0398  0.4686
15793TIP3    H168794   3.422   6.519   1.990 -0.5695 -0.7298 -0.0667
15793TIP3    H268795   3.491   6.557   1.861 -0.2454  0.5010  0.4565
15794TIP3   OH268796   6.028   3.383  16.521  0.1243 -0.1950  0.0031
15794TIP3    H168797   5.953   3.378  16.581 -0.9850  0.4968 -1.2648
15794TIP3    H268798   5.995   3.432  16.445  2.4557  1.9961  0.2637
15795TIP3   OH268799   2.115   1.393   0.817  0.4600 -0.8199  0.1179
15795TIP3    H168800   2.064   1.335   0.874  1.2527 -1.8525 -0.2085
15795TIP3    H268801   2.200   1.352   0.810  0.4122 -0.6878 -1.7719
15796TIP3   OH268802   3.580   4.731  16.022  0.0252 -0.0584 -0.2176
15796TIP3    H168803   3.612   4.792  15.955 -1.6983 -0.8141 -1.8150
15796TIP3    H268804   3.629   4.650  16.008  2.0596  0.7188  1.6789
15797TIP3   OH268805   0.129   1.465  11.304  0.5856  0.0675 -0.1136
15797TIP3    H168806   0.170   1.451  11.389 -0.7756 -0.7609  0.4350
15797TIP3    H268807   0.112   1.559  11.300 -0.9835 -0.1088  1.3503
15798TIP3   OH268808   3.324   2.066  13.836  0.4108 -0.0807 -0.3446
15798TIP3    H168809   3.413   2.091  13.812  0.4126 -1.3440 -1.7885
15798TIP3    H268810   3.314   1.977  13.803 -1.0042 -0.4156  0.8579
15799TIP3   OH268811   4.280   6.252  15.347  0.3740  0.0777 -0.0476
15799TIP3    H168812   4.269   6.304  15.426 -1.6382  1.8017 -1.3582
15799TIP3    H268813   4.254   6.164  15.372 -1.1116  0.7805  0.9999
15800TIP3   OH268814   4.819   2.408  15.484  0.5206 -0.0689 -0.5907
15800TIP3    H168815   4.859   2.421  15.570  0.3592  0.3468 -0.5757
15800TIP3    H268816   4.736   2.365  15.502  0.6695 -0.3474 -0.5699
15801TIP3   OH268817   0.870   5.488  16.388 -0.3965 -0.0114  0.9624
15801TIP3    H168818   0.929   5.501  16.314 -2.9246  1.3866 -0.9972
15801TIP3    H268819   0.910   5.417  16.439  1.2512 -1.4114 -2.0014
15802TIP3   OH268820   1.636   2.767   1.042 -0.8103 -0.5229 -0.1736
15802TIP3    H168821   1.704   2.705   1.070  0.3617  0.8330  0.0669
15802TIP3    H268822   1.681   2.828   0.984 -1.5783  0.9637  0.7283
15803TIP3   OH268823   5.947   0.276  16.773 -0.3965  0.6726 -0.4827
15803TIP3    H168824   5.898   0.243  16.697  0.4552 -1.4526 -0.1793
15803TIP3    H268825   6.023   0.321  16.735 -0.5529  0.5920 -0.8944
15804TIP3   OH268826   0.614   0.915   3.378  0.4362 -0.5523  0.5642
15804TIP3    H168827   0.580   0.849   3.318  0.2787 -0.2375  0.3040
15804TIP3    H268828   0.697   0.942   3.340 -0.2565  0.5811 -0.2280
15805TIP3   OH268829   1.032   2.484  12.560  0.0695  0.7723 -0.2830
15805TIP3    H168830   0.988   2.409  12.521 -0.6361  0.4437  1.0737
15805TIP3    H268831   1.095   2.513  12.493  0.9122 -1.4809 -0.5587
15806TIP3   OH268832   3.060   3.752   4.406 -0.1765 -0.5275  0.3255
15806TIP3    H168833   3.108   3.831   4.379  0.3293 -0.7134  0.6701
15806TIP3    H268834   3.004   3.781   4.478 -0.0432 -0.4670  0.4049
15807TIP3   OH268835   5.966   1.777   4.239  0.6142 -0.5523 -1.0400
15807TIP3    H168836   5.927   1.863   4.220  1.1577  0.1572  0.8783
15807TIP3    H268837   6.050   1.779   4.194  1.8978  1.1075  1.2369
15808TIP3   OH268838   5.840   2.407  16.791 -0.5502  0.0173 -0.2198
15808TIP3    H168839   5.868   2.386  16.880  2.3524 -3.1972 -1.6675
15808TIP3    H268840   5.919   2.440  16.748 -1.7527  1.0228 -1.7623
15809TIP3   OH268841   1.065   0.053   0.897 -0.5744  0.0153 -0.5830
15809TIP3    H168842   1.023   0.025   0.979 -2.7671  1.3921 -1.1470
15809TIP3    H268843   1.096   0.142   0.915 -1.0762  0.3294 -1.2343
15810TIP3   OH268844   3.602   2.667   2.226 -0.1502  0.0814 -0.9911
15810TIP3    H168845   3.645   2.639   2.145  0.4824  1.1320 -1.0460
15810TIP3    H268846   3.598   2.588   2.280 -0.0153 -0.4946 -1.8038
15811TIP3   OH268847   6.273   4.641   3.184 -0.0614 -0.4305 -0.0977
15811TIP3    H168848   6.281   4.554   3.225  1.3015 -1.2113 -1.8584
15811TIP3    H268849   6.299   4.702   3.253 -2.7596 -1.1982  1.7446
15812TIP3   OH268850   5.211   0.211  15.699 -0.4688  0.2231 -0.0286
15812TIP3    H168851   5.184   0.267  15.627 -2.2150  2.2463  2.0612
15812TIP3    H268852   5.130   0.167  15.727 -0.3724  1.3467  2.1909
15813TIP3   OH268853   5.281   2.547   4.095 -0.0071  0.5518  0.6437
15813TIP3    H168854   5.264   2.527   4.003 -0.0712  0.7753  0.6058
15813TIP3    H268855   5.358   2.495   4.117 -0.6780 -0.4028  0.7936
15814TIP3   OH268856   0.155   0.217   4.815  0.5614  0.1416 -0.3574
15814TIP3    H168857   0.171   0.136   4.862 -1.0460 -0.3681 -0.6084
15814TIP3    H268858   0.218   0.217   4.743  0.8751 -0.6565 -0.0902
15815TIP3   OH268859   5.815   4.756  12.803  0.3898 -0.0767  0.4606
15815TIP3    H168860   5.875   4.683  12.788  0.6218 -0.0080  1.0488
15815TIP3    H268861   5.868   4.822  12.846 -0.3042 -0.3477  1.7845
15816TIP3   OH268862   1.391   6.187  13.371  0.5958 -0.1133  0.0219
15816TIP3    H168863   1.333   6.140  13.311  0.6002  0.3870 -0.3890
15816TIP3    H268864   1.351   6.177  13.457 -1.8869  2.7565 -0.6088
15817TIP3   OH268865   4.540   5.633   3.029 -0.1117  0.5016 -0.1703
15817TIP3    H168866   4.586   5.708   2.992  0.6067  0.5656  0.8130
15817TIP3    H268867   4.571   5.628   3.120 -1.2733 -0.0825  0.2146
15818TIP3   OH268868   3.055   5.873  11.328  0.6540 -0.1217  0.0352
15818TIP3    H168869   3.010   5.847  11.248 -1.7792  0.7302  1.0175
15818TIP3    H268870   3.036   5.967  11.337  2.4648  0.2247  0.6767
15819TIP3   OH268871   3.492   6.230  12.457 -0.0048 -0.3426  0.5318
15819TIP3    H168872   3.556   6.178  12.409  1.6308  2.5921 -0.7156
15819TIP3    H268873   3.543   6.273  12.526 -1.3031 -0.3776  1.5539
15820TIP3   OH268874   3.522   2.449  12.221 -0.3282  0.2046  0.4381
15820TIP3    H168875   3.463   2.502  12.274  0.0050  1.8098 -0.7223
15820TIP3    H268876   3.536   2.369  12.273 -2.0880  0.5470  1.5232
15821TIP3   OH268877   1.302   4.244   1.673  0.0222  0.4841  0.0354
15821TIP3    H168878   1.208   4.227   1.668 -0.1416  0.8224  1.5154
15821TIP3    H268879   1.314   4.327   1.626 -0.0528 -0.6255 -2.0650
15822TIP3   OH268880   3.418   1.923  17.103 -0.1836  0.1123 -0.3740
15822TIP3    H168881   3.439   2.002  17.154 -0.0934 -0.2422  0.1410
15822TIP3    H268882   3.464   1.852  17.147 -2.5575 -0.7350  0.9521
15823TIP3   OH268883   6.361   1.995   2.184  0.4125 -0.2213  0.4041
15823TIP3    H168884   6.306   2.069   2.210 -1.0768 -1.4958  1.0631
15823TIP3    H268885   6.439   2.003   2.238  0.8027  1.4831 -0.3577
15824TIP3   OH268886   6.599   4.845  11.058  0.3877  1.0631  0.6836
15824TIP3    H168887   6.617   4.937  11.037  2.1302  0.6427  0.2522
15824TIP3    H268888   6.543   4.815  10.986  0.2050  1.6373  0.5746
15825TIP3   OH268889   6.616   5.174  13.415  0.3868 -0.0313 -0.0067
15825TIP3    H168890   6.581   5.090  13.383 -1.0360  0.2383  0.7395
15825TIP3    H268891   6.582   5.181  13.504  0.1389  1.5230 -0.1973
15826TIP3   OH268892   5.275   5.754  14.580  0.1656 -0.6225 -0.0363
15826TIP3    H168893   5.346   5.808  14.545 -1.0570  1.2332  0.1849
15826TIP3    H268894   5.316   5.702  14.649  1.2334  0.7602  0.4222
15827TIP3   OH268895   6.338   3.290  11.510 -0.3602  0.2210 -0.1215
15827TIP3    H168896   6.272   3.236  11.554  0.7430 -1.5269 -0.5153
15827TIP3    H268897   6.380   3.231  11.448 -1.0446  2.2729 -2.7510
15828TIP3   OH268898   4.622   2.726   1.042 -0.1832 -0.5220  0.7988
15828TIP3    H168899   4.611   2.771   1.126  1.3501  0.6641  0.3950
15828TIP3    H268900   4.679   2.783   0.991 -1.5144 -0.9330 -1.2833
15829TIP3   OH268901   3.553   0.047   0.534  0.3629 -0.3378 -0.4060
15829TIP3    H168902   3.631   0.073   0.583  0.5710  0.6478 -1.2393
15829TIP3    H268903   3.552   0.104   0.457  0.0362 -1.8419 -1.5655
15830TIP3   OH268904   1.576   2.443   0.070  0.3553  0.5173 -0.2749
15830TIP3    H168905   1.634   2.411   0.139  0.8251  1.3138 -0.2847
15830TIP3    H268906   1.618   2.415  -0.011 -0.1094 -0.2729 -0.2548
15831TIP3   OH268907   0.872   4.930  14.187  0.5275  0.2105 -0.4039
15831TIP3    H168908   0.835   5.017  14.176  1.1022  0.8040  1.7698
15831TIP3    H268909   0.966   4.942  14.174  0.6045 -0.0764 -0.1376
15832TIP3   OH268910   3.887   1.140  14.044  0.1966 -0.1777 -0.4251
15832TIP3    H168911   3.834   1.207  14.087  1.7062  1.2140 -0.6282
15832TIP3    H268912   3.978   1.167  14.061  0.8894 -2.6532  0.2300
15833TIP3   OH268913   5.501   1.799   4.200 -0.3378  0.3870 -0.4731
15833TIP3    H168914   5.506   1.786   4.295  0.4081  1.2571 -0.3693
15833TIP3    H268915   5.418   1.845   4.187 -0.1988  0.7407 -0.1638
15834TIP3   OH268916   3.559   6.325   5.692 -0.3112 -0.5008 -0.3153
15834TIP3    H168917   3.476   6.332   5.739 -1.0074 -1.7621 -1.3033
15834TIP3    H268918   3.576   6.414   5.661 -0.4765  0.0906  1.2020
15835TIP3   OH268919   3.033   0.577  16.210  0.4300  1.1648  0.0154
15835TIP3    H168920   2.991   0.530  16.138  0.3832 -1.3088  1.5448
15835TIP3    H268921   2.962   0.624  16.253  0.1909  1.3332 -0.5465
15836TIP3   OH268922   4.942   5.248  11.706 -0.5209  0.3242  0.7009
15836TIP3    H168923   4.915   5.298  11.629  0.0953 -0.7321 -0.2321
15836TIP3    H268924   5.033   5.224  11.688 -0.4065 -0.0262  1.7154
15837TIP3   OH268925   5.448   4.557   0.753 -0.0475 -0.0467 -0.0282
15837TIP3    H168926   5.393   4.479   0.755 -0.8188  0.4848 -0.2377
15837TIP3    H268927   5.444   4.588   0.663 -1.7440  1.6234  0.5655
15838TIP3   OH268928   3.574   3.890   0.288  0.4995 -0.0021 -0.5006
15838TIP3    H168929   3.604   3.815   0.237  1.7833 -0.0150  0.2419
15838TIP3    H268930   3.571   3.962   0.225 -0.2341 -0.5406 -1.0992
15839TIP3   OH268931   5.624   3.602   6.116  0.0834 -0.4769 -0.1245
15839TIP3    H168932   5.604   3.512   6.140  1.6661 -0.8729 -0.1467
15839TIP3    H268933   5.552   3.628   6.059 -0.9466 -1.3497  0.7254
15840TIP3   OH268934   0.690   0.344   0.768  0.4859  0.2955 -0.4242
15840TIP3    H168935   0.749   0.420   0.764 -2.2940  2.8463  1.8591
15840TIP3    H268936   0.611   0.373   0.722 -0.5285 -1.3862  0.1780
15841TIP3   OH268937   0.880   6.276   6.059  0.1910  0.6203  0.4683
15841TIP3    H168938   0.957   6.273   6.116  2.2722 -0.2232 -2.2299
15841TIP3    H268939   0.905   6.333   5.987 -2.6504  2.2993  0.6267
15842TIP3   OH268940   5.951   4.153  14.822 -0.2664  0.4558 -0.8730
15842TIP3    H168941   5.982   4.128  14.909  1.7476 -2.1172 -2.1508
15842TIP3    H268942   5.895   4.080  14.795 -2.3918  2.0918 -1.0941
15843TIP3   OH268943   1.210   1.323  12.901  0.1762 -0.4945 -0.0411
15843TIP3    H168944   1.209   1.395  12.965  2.0294 -0.3563 -0.1094
15843TIP3    H268945   1.121   1.287  12.904 -0.5033  1.1458  0.7343
15844TIP3   OH268946   5.545   2.741   1.673  0.4743  0.0990 -0.4951
15844TIP3    H168947   5.583   2.720   1.759 -0.4958 -2.3973 -0.6081
15844TIP3    H268948   5.620   2.741   1.614  1.0162  0.8770  0.1606
15845TIP3   OH268949   5.766   3.493   2.874 -0.4547  0.3874 -0.3753
15845TIP3    H168950   5.858   3.512   2.856 -0.5816  1.0752 -0.3381
15845TIP3    H268951   5.757   3.399   2.859  0.6695 -0.0386  1.3884
15846TIP3   OH268952   5.315   6.037  12.095  0.2074 -0.2800  0.9319
15846TIP3    H168953   5.230   6.077  12.111  0.2266  0.3466 -0.4410
15846TIP3    H268954   5.356   6.033  12.181 -0.1226  1.8994  1.2313
15847TIP3   OH268955   1.706   2.529  11.239  0.0778 -0.5004 -0.1762
15847TIP3    H168956   1.715   2.454  11.298 -0.0138  0.5711  1.2377
15847TIP3    H268957   1.775   2.590  11.266 -0.2620  0.2186 -0.8811
15848TIP3   OH268958   4.197   2.131   5.548 -0.0015  0.2229 -0.0802
15848TIP3    H168959   4.119   2.096   5.505 -0.9486  1.9813  0.1221
15848TIP3    H268960   4.177   2.124   5.641  0.1954  0.4468 -0.0219
15849TIP3   OH268961   0.331   4.043   4.823  0.3337  0.6829  0.7793
15849TIP3    H168962   0.259   3.990   4.788  1.0696 -0.5109  1.0250
15849TIP3    H268963   0.367   3.991   4.894  2.0472  0.8063  0.0455
15850TIP3   OH268964   1.308   3.778   0.449  0.4786  0.1262  0.3919
15850TIP3    H168965   1.337   3.693   0.416  0.2101 -0.0237  0.5344
15850TIP3    H268966   1.377   3.839   0.423  0.7795 -0.1740  0.4774
15851TIP3   OH268967   2.105   3.515  16.796  0.3257  0.5862 -0.0315
15851TIP3    H168968   2.074   3.515  16.886 -2.8551  0.4273 -1.0298
15851TIP3    H268969   2.105   3.607  16.770  0.2466  0.5465 -0.1763
15852TIP3   OH268970   3.263   4.171   4.137 -0.0751 -0.1843 -0.0881
15852TIP3    H168971   3.222   4.245   4.181  0.0140 -0.1075 -0.1330
15852TIP3    H268972   3.356   4.193   4.134 -0.0165 -0.4082  0.1089
15853TIP3   OH268973   2.469   0.670   1.980  0.1906 -0.2902  0.3137
15853TIP3    H168974   2.378   0.696   1.996  0.3567  0.8350 -0.4497
15853TIP3    H268975   2.477   0.666   1.885  0.5145 -2.0297  0.3853
15854TIP3   OH268976   1.462   2.864  11.998 -0.7809 -0.3040 -0.3064
15854TIP3    H168977   1.548   2.823  11.986 -1.0824 -0.9552 -0.2879
15854TIP3    H268978   1.463   2.897  12.087  0.5969  2.4567 -1.2333
15855TIP3   OH268979   3.540   2.198  12.359  0.5972 -0.2800 -0.1679
15855TIP3    H168980   3.514   2.109  12.336 -0.5159 -0.5688  1.9263
15855TIP3    H268981   3.626   2.188  12.400  0.8765 -0.2724 -0.7541
15856TIP3   OH268982   4.791   1.044  16.320 -0.6626 -0.2382  0.5171
15856TIP3    H168983   4.820   1.129  16.354  0.9732 -0.6313  0.1779
15856TIP3    H268984   4.867   0.987  16.329 -1.2850 -1.2863 -0.6063
15857TIP3   OH268985   0.443   3.555  16.331  0.0684 -0.1516  0.1741
15857TIP3    H168986   0.437   3.529  16.239  1.5516 -0.2189  0.0640
15857TIP3    H268987   0.376   3.622  16.342  0.7255  0.7977 -1.3034
15858TIP3   OH268988   2.235   2.936  12.975 -0.1748  0.2510 -0.0424
15858TIP3    H168989   2.323   2.915  12.945  0.5280 -0.4178  2.2710
15858TIP3    H268990   2.212   2.865  13.036 -2.5493  0.1187 -0.9679
15859TIP3   OH268991   0.450   5.677  16.019  0.4980 -0.4123 -0.3721
15859TIP3    H168992   0.527   5.732  16.010 -0.0786  0.6257  0.6527
15859TIP3    H268993   0.478   5.590  15.991  1.4827  0.3563 -1.8500
15860TIP3   OH268994   6.743   1.352  12.964 -0.5878  0.5714 -0.0072
15860TIP3    H168995   6.698   1.410  13.026 -1.0679 -0.1803  0.3634
15860TIP3    H268996   6.799   1.297  13.020 -1.1519 -0.2292 -0.2110
15861TIP3   OH268997   2.707   3.462  16.895 -0.5201 -0.0895  0.6095
15861TIP3    H168998   2.803   3.465  16.889 -0.5749 -0.5762 -0.6621
15861TIP3    H268999   2.687   3.509  16.976  0.7278  1.0878  0.2707
15862TIP3   OH269000   5.640   3.387  15.066  0.4709 -0.2405  0.5117
15862TIP3    H169001   5.562   3.357  15.018 -0.4188  1.2051  1.0099
15862TIP3    H269002   5.709   3.386  15.000 -0.6367  1.3196 -0.7513
15863TIP3   OH269003   4.308   6.584  15.982 -0.7908  0.0380  0.0204
15863TIP3    H169004   4.355   6.507  16.014  0.8566  1.6395  1.7058
15863TIP3    H269005   4.237   6.597  16.044 -0.7906  0.1479 -0.0018
15864TIP3   OH269006   6.037   5.601  14.308 -0.4166 -0.3140 -0.4038
15864TIP3    H169007   5.977   5.633  14.375 -1.1298  1.6334 -1.8928
15864TIP3    H269008   5.985   5.599  14.227  1.4684  1.4503 -1.7608
15865TIP3   OH269009   2.277   6.511  11.400  0.5429 -0.4324  0.5626
15865TIP3    H169010   2.279   6.604  11.378  0.5174 -0.3998  0.6982
15865TIP3    H269011   2.321   6.505  11.485 -0.0609 -0.4561  0.8727
15866TIP3   OH269012   1.797   5.419   1.814  0.2319  0.2338 -0.4842
15866TIP3    H169013   1.703   5.438   1.805  0.1095  0.2656  0.6718
15866TIP3    H269014   1.801   5.343   1.872  0.9183  0.1887 -0.5815
15867TIP3   OH269015   3.611   3.941  12.543 -0.2021 -0.4742 -0.5540
15867TIP3    H169016   3.690   3.960  12.594  0.4269 -2.1121 -0.8439
15867TIP3    H269017   3.579   4.027  12.514  0.5002  0.3369  0.9799
15868TIP3   OH269018   4.402   5.917   4.847 -0.3877  0.2617 -0.0240
15868TIP3    H169019   4.340   5.850   4.875 -1.1737  1.4944  1.3506
15868TIP3    H269020   4.390   5.922   4.752 -0.0705 -1.7330 -0.2083
15869TIP3   OH269021   3.109   1.354  12.352 -0.2155 -0.0066 -0.0602
15869TIP3    H169022   3.058   1.393  12.423  0.5422 -1.1471  1.1527
15869TIP3    H269023   3.052   1.288  12.314 -0.1304 -0.3434  0.3959
15870TIP3   OH269024   2.219   6.766  11.268 -0.0335  0.3594  0.0697
15870TIP3    H169025   2.131   6.774  11.230  0.4358 -1.3311 -1.4945
15870TIP3    H269026   2.262   6.849  11.246 -0.3203  0.0580 -1.7550
15871TIP3   OH269027   3.445   5.349   0.857  0.0886 -0.1585 -0.0955
15871TIP3    H169028   3.433   5.442   0.837  0.2545 -0.2862 -0.8094
15871TIP3    H269029   3.517   5.347   0.920 -0.9685  0.3082  1.1843
15872TIP3   OH269030   5.070   0.408  12.634 -0.1450  0.4567  0.6903
15872TIP3    H169031   5.032   0.423  12.720 -1.3156  0.1371  0.2518
15872TIP3    H269032   5.110   0.321  12.640 -1.2851 -0.1011  0.5815
15873TIP3   OH269033   3.655   1.713   6.265  0.3280  0.3074  0.2289
15873TIP3    H169034   3.666   1.715   6.360  1.3996  1.0425  0.1101
15873TIP3    H269035   3.625   1.801   6.242  2.6476  1.0484 -0.3452
15874TIP3   OH269036   6.648   4.031  11.450 -0.2291 -0.8042  0.1035
15874TIP3    H169037   6.742   4.041  11.435 -0.0670 -1.5762  0.5357
15874TIP3    H269038   6.636   3.936  11.460 -0.9624 -0.6542  0.6876
15875TIP3   OH269039   6.729   2.452   1.476 -0.2621 -0.1343  0.3276
15875TIP3    H169040   6.764   2.524   1.423 -0.5497 -0.5741 -0.4690
15875TIP3    H269041   6.803   2.394   1.491  0.7633  1.7113  3.4785
15876TIP3   OH269042   4.604   1.772  16.135  0.1744  0.1395 -0.1144
15876TIP3    H169043   4.544   1.697  16.138 -0.4329  0.5576 -1.2813
15876TIP3    H269044   4.582   1.816  16.053  2.2647  0.1490 -0.7156
15877TIP3   OH269045   3.880   2.159  13.420  0.1958  0.3626 -0.7955
15877TIP3    H169046   3.971   2.163  13.449  0.3585 -0.9236 -1.0754
15877TIP3    H269047   3.861   2.065  13.413 -1.1198  0.6162 -0.8403
15878TIP3   OH269048   0.090   2.884  16.288  0.1311 -0.0629 -0.4060
15878TIP3    H169049   0.005   2.876  16.332  0.9215 -0.1641  1.1724
15878TIP3    H269050   0.119   2.793  16.276  0.8248 -0.0199  0.7614
15879TIP3   OH269051   4.866   2.576  11.432  0.1838 -0.3691  0.5076
15879TIP3    H169052   4.894   2.658  11.473 -1.5485  0.0539  0.9204
15879TIP3    H269053   4.781   2.557  11.471 -0.7527 -0.8751 -1.6328
15880TIP3   OH269054   2.302   0.396   3.532 -0.4861  0.1292  0.0355
15880TIP3    H169055   2.215   0.421   3.499 -1.2859  0.6982  2.4031
15880TIP3    H269056   2.322   0.461   3.599 -0.1917 -2.4240  2.6200
15881TIP3   OH269057   2.975   2.931   1.067  0.5006  0.3229 -0.3088
15881TIP3    H169058   3.026   2.862   1.110 -0.3547 -0.7661 -1.0038
15881TIP3    H269059   3.035   2.968   1.002  0.3735 -1.1124 -1.2941
15882TIP3   OH269060   0.555   5.895   4.788  0.4977 -0.4828 -0.2187
15882TIP3    H169061   0.486   5.835   4.819 -0.3919  0.1623 -0.9010
15882TIP3    H269062   0.634   5.841   4.786 -0.2062 -1.5424 -0.4611
15883TIP3   OH269063   1.656   6.353  13.152 -0.3794  0.0098 -0.8337
15883TIP3    H169064   1.575   6.341  13.102 -1.3908 -1.2009  0.9787
15883TIP3    H269065   1.680   6.445  13.137 -4.0170  1.5198  1.1776
15884TIP3   OH269066   3.795   0.032  11.809  0.3893 -0.3138 -0.4861
15884TIP3    H169067   3.754   0.118  11.821  0.0472 -0.6918  1.2742
15884TIP3    H269068   3.865   0.048  11.745 -0.4145  1.0130 -1.0742
15885TIP3   OH269069   1.379   0.734  15.098 -0.1043 -0.5978  0.2454
15885TIP3    H169070   1.384   0.657  15.043 -0.0351 -0.0854 -0.4784
15885TIP3    H269071   1.289   0.735  15.130 -0.1847 -0.8140  0.0236
15886TIP3   OH269072   3.362   0.548  14.650  0.2076 -0.2013 -0.6039
15886TIP3    H169073   3.294   0.543  14.717 -0.1149  0.3271 -0.8819
15886TIP3    H269074   3.325   0.502  14.574  0.9998 -1.7589 -0.0908
15887TIP3   OH269075   5.863   1.038  12.196 -0.1859  0.4893  0.1316
15887TIP3    H169076   5.815   1.049  12.114  0.8233  0.0805 -0.5321
15887TIP3    H269077   5.928   0.970  12.177 -0.2440  0.0502  1.4134
15888TIP3   OH269078   4.533   4.391   6.440 -0.2792 -0.0715 -0.3230
15888TIP3    H169079   4.454   4.428   6.478 -1.1292  0.1135 -2.1510
15888TIP3    H269080   4.601   4.455   6.459 -1.3647  1.6502 -1.8566
15889TIP3   OH269081   6.085   3.741  17.145  0.3768 -0.5037 -0.7477
15889TIP3    H169082   6.010   3.800  17.137  1.3581  0.9143  0.0256
15889TIP3    H269083   6.132   3.752  17.062  1.1197  0.6524 -0.1985
15890TIP3   OH269084   2.926   3.440  12.362  0.6996 -0.6657  0.2588
15890TIP3    H169085   2.865   3.423  12.433 -0.7095  0.9855 -0.4896
15890TIP3    H269086   3.013   3.430  12.401 -0.0266  0.5376  2.3065
15891TIP3   OH269087   6.137   0.791   3.373 -0.8149 -0.3857 -0.3105
15891TIP3    H169088   6.071   0.786   3.303 -0.3487 -0.4891 -0.7492
15891TIP3    H269089   6.220   0.774   3.329 -0.6311 -1.6542  0.4719
15892TIP3   OH269090   3.146   4.950  11.388 -0.5030 -0.1287  0.1169
15892TIP3    H169091   3.129   4.980  11.299  1.4689  1.6837  0.2908
15892TIP3    H269092   3.229   4.991  11.413 -0.0482 -2.0554  2.1389
15893TIP3   OH269093   0.443   5.740  12.511 -0.0498  0.3969  0.1746
15893TIP3    H169094   0.501   5.717  12.439 -0.7859 -2.8623  0.4906
15893TIP3    H269095   0.359   5.699  12.490 -1.1952  1.9026  1.4940
15894TIP3   OH269096   3.759   1.577   3.781  0.2672 -0.2357 -0.5619
15894TIP3    H169097   3.849   1.609   3.790 -0.1254  0.6504  0.4815
15894TIP3    H269098   3.768   1.486   3.754  1.4571  0.2767 -2.0668
15895TIP3   OH269099   5.655   4.737   3.180  0.4076 -0.0578 -0.3131
15895TIP3    H169100   5.740   4.774   3.206  2.4616 -4.0361 -0.4503
15895TIP3    H269101   5.612   4.717   3.263  0.2104  0.7325 -0.2211
15896TIP3   OH269102   0.290   2.096  11.818  0.2788 -0.2986  0.9743
15896TIP3    H169103   0.339   2.178  11.810  1.7067 -1.2012 -0.1192
15896TIP3    H269104   0.208   2.121  11.861  0.1302  1.9023 -0.4112
15897TIP3   OH269105   0.974   0.179  15.643  0.6159 -0.1972 -0.7008
15897TIP3    H169106   1.038   0.233  15.689  1.1258 -0.2256 -1.3670
15897TIP3    H269107   0.891   0.196  15.688  1.5610 -2.6434  2.3795
15898TIP3   OH269108   3.119   0.194  15.418 -0.3297  0.5677  0.0527
15898TIP3    H169109   3.033   0.154  15.430  0.7321 -2.5219 -1.4606
15898TIP3    H269110   3.122   0.217  15.325  0.5181  0.4171  0.0260
15899TIP3   OH269111   5.759   3.310   2.382 -0.3830  0.2887  0.6012
15899TIP3    H169112   5.835   3.369   2.379  1.2393 -1.5608  2.0398
15899TIP3    H269113   5.784   3.236   2.325 -1.1192 -0.3295  1.0590
15900TIP3   OH269114   2.799   4.939  16.614 -0.3743 -0.0021  0.0723
15900TIP3    H169115   2.856   5.014  16.599  0.5186 -0.4742  0.9937
15900TIP3    H269116   2.804   4.923  16.708  0.1624 -1.7510 -0.2043
15901TIP3   OH269117   0.062   6.391   5.292 -0.0672 -0.4717 -0.6804
15901TIP3    H169118   0.008   6.444   5.352  0.6104 -1.2297  0.6476
15901TIP3    H269119   0.110   6.456   5.241  0.3040  0.2355  0.5064
15902TIP3   OH269120   4.057   5.963  12.250  0.3923 -0.0859  0.2403
15902TIP3    H169121   4.009   5.961  12.333  0.2480 -1.0399  0.1446
15902TIP3    H269122   3.990   5.975  12.183  0.7063  3.1652  0.3746
15903TIP3   OH269123   5.666   4.044   2.594 -0.3256 -0.0621  0.1555
15903TIP3    H169124   5.677   4.127   2.639 -1.3002 -0.5014  1.2440
15903TIP3    H269125   5.733   4.045   2.525 -0.0059  1.3937  0.4614
15904TIP3   OH269126   1.919   0.597   5.497 -0.0452 -0.1048 -0.6648
15904TIP3    H169127   1.940   0.682   5.537 -1.8686 -0.3093  0.8504
15904TIP3    H269128   1.989   0.539   5.527  2.0466  1.0684 -2.8619
15905TIP3   OH269129   1.323   1.630  14.471 -0.8845 -0.0098 -0.5886
15905TIP3    H169130   1.291   1.554  14.422  0.7572 -1.0892 -0.0619
15905TIP3    H269131   1.414   1.608  14.493  0.0024  2.5815 -1.3489
15906TIP3   OH269132   2.565   1.291  12.283 -0.0548  0.5724 -0.4894
15906TIP3    H169133   2.640   1.290  12.343  0.7015  0.4742 -1.4014
15906TIP3    H269134   2.603   1.268  12.198 -1.3699 -0.9327 -0.7095
15907TIP3   OH269135   3.128   3.674  10.885  0.2598  0.5080  0.1219
15907TIP3    H169136   3.155   3.766  10.889  2.0849 -0.0141  3.3114
15907TIP3    H269137   3.050   3.670  10.940  0.7176  0.0443  0.7526
15908TIP3   OH269138   2.982   4.504   0.719 -0.4856 -0.1692  0.0920
15908TIP3    H169139   3.063   4.537   0.681  0.1417 -0.1024  1.4077
15908TIP3    H269140   2.987   4.529   0.812 -0.6848 -2.5855  0.8318
15909TIP3   OH269141   3.397   3.708   0.009  0.4805 -0.6113  0.8646
15909TIP3    H169142   3.368   3.629   0.053  0.2693  0.0481  1.9434
15909TIP3    H269143   3.319   3.762   0.001  0.3335 -1.0264 -1.0684
15910TIP3   OH269144   5.199   3.346  13.993 -0.1267 -0.1561  0.2534
15910TIP3    H169145   5.188   3.253  14.012  0.0478  0.0236  1.2502
15910TIP3    H269146   5.210   3.388  14.078  0.8253  0.6516 -0.2399
15911TIP3   OH269147   1.591   1.741  14.764  0.1752  0.0750  0.5853
15911TIP3    H169148   1.504   1.735  14.804  0.0424  1.1369  0.4826
15911TIP3    H269149   1.651   1.725  14.837 -0.0880  0.1244  0.8159
15912TIP3   OH269150   0.648   3.371  16.121  0.5349  0.0028  0.2054
15912TIP3    H169151   0.560   3.335  16.133  1.0020 -0.6517  2.0816
15912TIP3    H269152   0.637   3.440  16.056 -1.6384  0.8980  1.4132
15913TIP3   OH269153   0.688   1.266   2.999 -0.0288 -0.2561 -0.2503
15913TIP3    H169154   0.595   1.261   2.980  0.2485 -0.7616 -1.5269
15913TIP3    H269155   0.726   1.189   2.956  0.9167 -0.3186  0.6504
15914TIP3   OH269156   6.768   2.334  15.959 -1.2914  0.0272 -0.2018
15914TIP3    H169157   6.697   2.283  15.921 -0.9345 -0.4048 -0.2918
15914TIP3    H269158   6.825   2.355  15.885 -0.7697 -0.5305  0.0326
15915TIP3   OH269159   3.349   4.556  15.403  0.7169  0.2900  0.2424
15915TIP3    H169160   3.348   4.461  15.391 -2.3482  0.2255  0.1535
15915TIP3    H269161   3.299   4.571  15.483  0.9988  1.8467  0.1670
15916TIP3   OH269162   4.800   5.288  15.967  0.5131  0.1351  0.4045
15916TIP3    H169163   4.863   5.270  16.037  0.5910  0.3389  0.3860
15916TIP3    H269164   4.733   5.220  15.978  0.7729 -0.1316  0.3786
15917TIP3   OH269165   4.775   0.690  11.950  0.3363  0.1580  0.6148
15917TIP3    H169166   4.840   0.631  11.912 -2.5982 -3.5719  0.7397
15917TIP3    H269167   4.691   0.652  11.924 -1.8179  2.3045  3.7291
15918TIP3   OH269168   0.121   6.793   2.269 -0.7960 -0.4102  0.5469
15918TIP3    H169169   0.143   6.884   2.290  0.4604 -0.4478 -0.5386
15918TIP3    H269170   0.025   6.791   2.270 -0.8884  1.3337 -1.0365
15919TIP3   OH269171   4.269   6.348   5.084  0.1474  0.2080 -0.3154
15919TIP3    H169172   4.329   6.289   5.038  0.2302 -0.3191  0.4399
15919TIP3    H269173   4.286   6.434   5.045  0.5458 -0.1394 -0.9324
15920TIP3   OH269174   3.485   5.671  12.814 -0.6614 -0.3154  0.1225
15920TIP3    H169175   3.490   5.723  12.894 -0.2131  0.0827 -0.1660
15920TIP3    H269176   3.443   5.589  12.842 -1.4952  0.2391  0.5503
15921TIP3   OH269177   3.320   5.604  11.476  0.2144  0.1132 -0.3911
15921TIP3    H169178   3.294   5.555  11.397  1.4592 -0.3351 -0.5520
15921TIP3    H269179   3.408   5.572  11.495 -0.7442 -1.2124  2.3194
15922TIP3   OH269180   5.876   1.579   1.431 -0.5301  0.1310 -0.3526
15922TIP3    H169181   5.883   1.492   1.392  1.2490  0.1372 -0.1079
15922TIP3    H269182   5.784   1.604   1.417 -1.2796 -2.0771  0.2498
15923TIP3   OH269183   4.669   5.240  14.828  0.3324  0.6598 -0.0978
15923TIP3    H169184   4.702   5.329  14.842  2.5516 -0.2178  0.7270
15923TIP3    H269185   4.682   5.196  14.913 -0.2880 -0.5800 -0.6185
15924TIP3   OH269186   3.355   1.697   5.193 -0.1828  0.5325  0.3108
15924TIP3    H169187   3.410   1.763   5.150  0.7448  0.1659  0.9277
15924TIP3    H269188   3.279   1.747   5.223  0.5171  1.3469  0.7987
15925TIP3   OH269189   4.674   0.663   2.802  0.0093 -0.3919 -0.4433
15925TIP3    H169190   4.715   0.678   2.888 -0.1294  1.2119 -0.6120
15925TIP3    H269191   4.724   0.591   2.764  0.6649 -0.5236  0.6156
15926TIP3   OH269192   2.017   6.663   5.496  0.0340  0.2098 -0.2266
15926TIP3    H169193   2.005   6.586   5.441 -1.3578  0.8991 -0.9441
15926TIP3    H269194   2.037   6.629   5.583  0.7447 -0.9192 -0.8171
15927TIP3   OH269195   3.964   6.673  15.226 -0.4171  0.1609 -0.4325
15927TIP3    H169196   3.983   6.748  15.282 -0.6048  1.3493 -1.9024
15927TIP3    H269197   3.994   6.699  15.139 -3.1354 -0.2705 -1.5967
15928TIP3   OH269198   5.320   0.468   4.598 -0.2438  0.0860  0.2211
15928TIP3    H169199   5.324   0.562   4.616 -0.1709  0.5728 -1.9877
15928TIP3    H269200   5.407   0.436   4.620 -0.3620  0.4556  1.2844
15929TIP3   OH269201   2.884   3.129   0.121  0.3256  0.2195  0.2597
15929TIP3    H169202   2.791   3.138   0.102  0.8100  0.8114 -2.1896
15929TIP3    H269203   2.908   3.209   0.168 -0.6072 -0.5540  2.1804
15930TIP3   OH269204   5.763   4.303  11.196 -0.6880 -0.1161  0.6681
15930TIP3    H169205   5.791   4.304  11.288  0.4745 -1.6617  0.3560
15930TIP3    H269206   5.844   4.297  11.146 -1.3259  0.4165 -0.4703
15931TIP3   OH269207   0.332   4.258  13.466 -0.6942  0.4331 -0.2459
15931TIP3    H169208   0.275   4.191  13.429  0.2648  0.2171 -1.3807
15931TIP3    H269209   0.418   4.216  13.471 -0.2104  1.3831 -0.4257
15932TIP3   OH269210   0.440   5.062   1.168 -0.1691  0.0360  0.0455
15932TIP3    H169211   0.533   5.047   1.188 -1.0314 -1.2583  3.9549
15932TIP3    H269212   0.405   4.974   1.153 -1.2829  0.2049  1.5566
15933TIP3   OH269213   5.456   0.835  11.174 -0.2413 -0.4403 -0.0228
15933TIP3    H169214   5.470   0.925  11.142 -1.6789 -0.8226 -1.9577
15933TIP3    H269215   5.403   0.846  11.253  1.8525  0.4832  1.3333
15934TIP3   OH269216   6.281   5.754   3.951  0.8535  0.5405  0.3437
15934TIP3    H169217   6.228   5.768   4.030  1.3506  1.6860  0.4977
15934TIP3    H269218   6.306   5.662   3.956 -1.3528 -0.1227  0.0914
15935TIP3   OH269219   3.327   3.785   0.897  0.3868 -0.2838  0.0681
15935TIP3    H169220   3.236   3.760   0.915 -0.2726 -1.9339 -4.2932
15935TIP3    H269221   3.323   3.879   0.878  0.1082  0.1791  2.2297
15936TIP3   OH269222   1.705   2.310   3.959  0.2562 -0.0976  0.1525
15936TIP3    H169223   1.740   2.394   3.931 -1.5301  1.6828  2.8106
15936TIP3    H269224   1.783   2.254   3.971  1.4984  1.2135 -1.4349
15937TIP3   OH269225   2.722   4.574  13.779 -0.3287 -0.5092  0.8493
15937TIP3    H169226   2.789   4.565  13.847 -0.5140 -0.2955  1.0637
15937TIP3    H269227   2.656   4.631  13.818 -0.0173  0.3433  0.1591
15938TIP3   OH269228   3.744   4.284  11.150  0.0711 -0.3297 -0.1656
15938TIP3    H169229   3.675   4.221  11.128  0.5546 -0.5347 -1.1115
15938TIP3    H269230   3.826   4.235  11.138  0.4241  0.2707 -0.2185
15939TIP3   OH269231   4.471   5.797   2.727  0.7882 -0.3641  0.0313
15939TIP3    H169232   4.392   5.847   2.711  1.2315  0.4750  0.4203
15939TIP3    H269233   4.526   5.854   2.781  1.1637 -1.4003  0.7788
15940TIP3   OH269234   2.821   3.325   1.845 -0.3250 -0.0181 -0.0498
15940TIP3    H169235   2.807   3.232   1.825  1.1174 -0.5907  1.4185
15940TIP3    H269236   2.828   3.367   1.759 -0.5066 -1.3365 -0.7376
15941TIP3   OH269237   2.849   0.884  11.631 -0.4284  0.2074 -0.2027
15941TIP3    H169238   2.892   0.811  11.676 -1.1733 -0.7839 -1.0519
15941TIP3    H269239   2.902   0.960  11.653  2.1422 -1.0221 -1.6588
15942TIP3   OH269240   3.868   0.357  15.204  0.6438 -0.2960 -0.5656
15942TIP3    H169241   3.819   0.421  15.153  1.4688 -0.7045 -1.9311
15942TIP3    H269242   3.841   0.272  15.168  0.0370 -0.7024  0.7854
15943TIP3   OH269243   0.311   4.806  12.216  0.0965  0.8200  0.5204
15943TIP3    H169244   0.259   4.838  12.289 -1.2661  0.3405 -0.1993
15943TIP3    H269245   0.248   4.762  12.159  1.1578  0.9130 -0.7939
15944TIP3   OH269246   5.827   1.197   5.412  0.1975  0.5704  0.4333
15944TIP3    H169247   5.816   1.103   5.422  2.3227  0.3885  1.9011
15944TIP3    H269248   5.850   1.210   5.320 -0.1370 -0.3401  0.2175
15945TIP3   OH269249   2.344   5.570   5.279 -0.5448  0.1571 -0.8946
15945TIP3    H169250   2.262   5.606   5.245 -0.9239 -0.6390 -0.8429
15945TIP3    H269251   2.390   5.537   5.201 -0.4004  0.3558 -0.8929
15946TIP3   OH269252   6.512   1.398   4.709  0.2321  0.6633  0.3614
15946TIP3    H169253   6.599   1.389   4.672  0.3655 -0.9900  1.0071
15946TIP3    H269254   6.466   1.319   4.683 -1.4387  1.9405 -0.8146
15947TIP3   OH269255   6.111   1.586   0.900 -0.1800  0.1315  0.2656
15947TIP3    H169256   6.166   1.664   0.903  1.1186 -0.7288 -0.4037
15947TIP3    H269257   6.075   1.578   0.989  1.1978  0.4231  0.8674
15948TIP3   OH269258   1.130   1.298   4.054 -0.4254 -0.3669 -0.4768
15948TIP3    H169259   1.152   1.283   4.146  1.1045  0.6207 -0.6356
15948TIP3    H269260   1.037   1.276   4.047 -1.0092  1.1286  1.6726
15949TIP3   OH269261   1.532   6.791   5.806 -0.3664  0.2070  0.8893
15949TIP3    H169262   1.452   6.816   5.853 -1.8046 -1.0367 -0.7787
15949TIP3    H269263   1.573   6.726   5.862 -1.8247 -0.9341  0.7067
15950TIP3   OH269264   5.221   4.284  16.297 -0.4408 -0.3803  0.3658
15950TIP3    H169265   5.178   4.226  16.235  0.1703 -1.0384  0.5331
15950TIP3    H269266   5.215   4.371  16.258 -1.3529 -0.5572  0.0974
15951TIP3   OH269267   3.058   2.074   4.077 -0.1763  0.5474 -0.1007
15951TIP3    H169268   3.072   2.076   3.982 -0.6270  1.0717 -0.1575
15951TIP3    H269269   3.147   2.079   4.113  0.0813 -0.7503 -0.4900
15952TIP3   OH269270   5.667   4.159   2.238 -0.6414 -0.5715 -0.6745
15952TIP3    H169271   5.588   4.174   2.187 -0.2455  2.0036 -0.6536
15952TIP3    H269272   5.732   4.131   2.174 -0.6280  0.9255 -1.3620
15953TIP3   OH269273   3.192   1.349  13.060 -0.2740  0.0910 -0.2949
15953TIP3    H169274   3.106   1.363  13.021 -0.1324 -0.8995 -1.0063
15953TIP3    H269275   3.238   1.293  12.997  0.2121 -0.9921  0.9640
15954TIP3   OH269276   6.656   5.366  16.733 -0.0111 -0.3113  0.2782
15954TIP3    H169277   6.635   5.398  16.821  1.1344 -0.0839  0.4818
15954TIP3    H269278   6.751   5.366  16.730 -0.0398  0.4614 -1.2521
15955TIP3   OH269279   4.970   0.711  13.337  0.2116  0.3344  0.5743
15955TIP3    H169280   4.964   0.784  13.398 -0.4978  0.4956  0.3257
15955TIP3    H269281   5.008   0.750  13.258  0.5497  0.2642  0.7019
15956TIP3   OH269282   3.754   0.747  10.396 -0.1013 -0.4263  0.2093
15956TIP3    H169283   3.718   0.831  10.424 -0.9878 -0.7629  0.1103
15956TIP3    H269284   3.846   0.765  10.377 -0.0696  0.3265  1.0252
15957TIP3   OH269285   4.270   1.476  14.818  0.2890 -0.4896 -0.2867
15957TIP3    H169286   4.342   1.464  14.880 -1.4688 -0.7631  1.8302
15957TIP3    H269287   4.259   1.391  14.777  1.7084 -0.2124 -1.2961
15958TIP3   OH269288   4.577   0.536  14.336  0.5648  0.2905  0.1441
15958TIP3    H169289   4.595   0.453  14.379 -1.1410 -0.0461  0.2891
15958TIP3    H269290   4.629   0.534  14.255 -0.2968 -1.4092 -0.3972
15959TIP3   OH269291   2.213   2.696   3.723 -0.3958 -0.7046  0.3395
15959TIP3    H169292   2.193   2.785   3.696  1.9193 -0.1478  0.2342
15959TIP3    H269293   2.309   2.693   3.727 -0.1675 -4.0276 -2.6464
15960TIP3   OH269294   4.702   4.210   5.903 -0.0170 -0.6246 -0.2607
15960TIP3    H169295   4.648   4.229   5.979 -0.1944 -2.9859  0.2924
15960TIP3    H269296   4.758   4.287   5.893 -1.0143  0.3588  1.3299
15961TIP3   OH269297   1.536   6.377   4.486 -0.4569  0.3893 -0.1875
15961TIP3    H169298   1.539   6.287   4.453  1.2330 -0.3732  1.8332
15961TIP3    H269299   1.445   6.391   4.511 -0.6555 -0.8975 -0.1481
15962TIP3   OH269300   3.504   4.045   5.454 -0.1733 -0.0391 -0.4507
15962TIP3    H169301   3.569   4.032   5.524 -2.1549 -0.6715  1.3680
15962TIP3    H269302   3.431   4.088   5.497 -0.6062  1.6184 -2.6853
15963TIP3   OH269303   1.688   4.558   3.309  0.3721  0.3703  1.0656
15963TIP3    H169304   1.694   4.583   3.217 -1.7235  1.2419  1.1044
15963TIP3    H269305   1.740   4.624   3.355  0.0087  0.9633  0.6407
15964TIP3   OH269306   5.980   5.250  11.935 -0.0047 -0.6155 -0.2442
15964TIP3    H169307   6.024   5.168  11.958 -2.1257 -1.5765  0.6927
15964TIP3    H269308   5.976   5.248  11.839 -0.4518 -1.8795 -0.2285
15965TIP3   OH269309   0.784   0.841  12.064  0.9886  0.6979  0.1373
15965TIP3    H169310   0.818   0.838  12.154  1.0793 -0.1075  0.0882
15965TIP3    H269311   0.710   0.779  12.065  2.3830 -1.0914 -0.8830
15966TIP3   OH269312   5.129   4.663  14.891  0.3650 -0.2055  0.4182
15966TIP3    H169313   5.083   4.629  14.813  0.4220 -1.5993  0.9594
15966TIP3    H269314   5.064   4.656  14.961  0.2946  1.1074  0.4972
15967TIP3   OH269315   3.336   1.194   2.826  0.5633 -0.4257 -0.2038
15967TIP3    H169316   3.263   1.250   2.800 -1.9382 -3.1555  0.2583
15967TIP3    H269317   3.391   1.250   2.880 -1.4003  1.7215 -0.2483
15968TIP3   OH269318   4.462   4.072  17.074  0.3051  0.1594  0.4469
15968TIP3    H169319   4.552   4.041  17.073  0.6608  1.1727 -0.9282
15968TIP3    H269320   4.412   3.999  17.110  1.7627 -0.1080  2.0425
15969TIP3   OH269321   1.528   2.734   0.759  0.5451 -0.5724  0.2455
15969TIP3    H169322   1.574   2.816   0.744 -0.4550  0.1919  1.1703
15969TIP3    H269323   1.435   2.758   0.758  0.1527 -0.5011  6.0087
15970TIP3   OH269324   0.915   0.943  12.585  0.6369 -0.5008 -0.0436
15970TIP3    H169325   0.842   0.913  12.639 -0.0270 -0.5566 -0.9421
15970TIP3    H269326   0.878   1.011  12.529  1.7781  0.9893  0.9216
15971TIP3   OH269327   6.412   4.658   2.934 -0.3908 -0.1712  0.0805
15971TIP3    H169328   6.481   4.592   2.939 -1.8003 -1.6194  1.5901
15971TIP3    H269329   6.358   4.643   3.012 -1.0987  2.4280  0.1828
15972TIP3   OH269330   3.975   2.799   3.407  0.0361 -0.3743  0.3318
15972TIP3    H169331   4.023   2.749   3.472  1.7839 -1.1299 -1.4259
15972TIP3    H269332   3.937   2.733   3.349  2.1969  0.1751 -1.9067
15973TIP3   OH269333   5.110   1.754   2.894 -0.1958 -0.2159  0.5175
15973TIP3    H169334   5.182   1.695   2.874 -2.1614 -2.1606 -1.3392
15973TIP3    H269335   5.148   1.842   2.888  2.1756 -1.1765  0.5242
15974TIP3   OH269336   3.254   2.054   2.309  0.7343 -0.2874 -0.1859
15974TIP3    H169337   3.261   1.967   2.269  1.8868 -0.5360  0.4855
15974TIP3    H269338   3.175   2.092   2.272 -0.2242 -1.9257  0.0798
15975TIP3   OH269339   2.309   4.819  16.686  0.5487  0.4151  0.5870
15975TIP3    H169340   2.375   4.875  16.646  0.0558 -0.6655 -1.9606
15975TIP3    H269341   2.234   4.826  16.627 -0.2495 -1.3163  1.3352
15976TIP3   OH269342   6.594   1.273  15.287 -0.6204 -0.3670 -0.0124
15976TIP3    H169343   6.682   1.253  15.317 -0.5210 -0.2943 -0.2538
15976TIP3    H269344   6.599   1.362  15.252 -1.2530  0.4370  1.8173
15977TIP3   OH269345   3.562   1.644  10.683 -0.2791  0.4237 -0.5441
15977TIP3    H169346   3.490   1.707  10.688  1.3317  2.3242  0.5659
15977TIP3    H269347   3.601   1.659  10.597 -0.5453  0.1701 -0.7100
15978TIP3   OH269348   5.462   3.074  14.043  0.7635  0.4323  0.3014
15978TIP3    H169349   5.430   3.010  13.980  0.2486 -0.1390  1.1205
15978TIP3    H269350   5.465   3.157  13.994  0.5393 -0.0292 -0.5100
15979TIP3   OH269351   6.559   0.420   2.071 -0.6099  0.2950 -0.0510
15979TIP3    H169352   6.472   0.460   2.071  0.3312  2.5167  0.5553
15979TIP3    H269353   6.560   0.363   1.995 -2.2111  1.1118 -0.7203
15980TIP3   OH269354   5.980   4.669  11.050 -0.6344  0.3739  0.1423
15980TIP3    H169355   6.002   4.732  10.982 -1.3542  1.8271  1.2061
15980TIP3    H269356   5.887   4.683  11.067 -0.2308  0.8915  2.2218
15981TIP3   OH269357   3.856   2.906   1.933  0.4524  0.0977 -0.3546
15981TIP3    H169358   3.840   2.939   2.021  1.7642  1.2815 -0.5258
15981TIP3    H269359   3.863   2.984   1.879  2.0285 -0.4915 -1.0756
15982TIP3   OH269360   1.934   2.075   5.539  0.3385  0.4504 -0.0469
15982TIP3    H169361   1.996   2.067   5.612 -0.1211 -0.6216  0.2415
15982TIP3    H269362   1.850   2.050   5.576 -0.4130  2.4360 -0.3021
15983TIP3   OH269363   1.503   3.372   2.167 -0.1100 -0.2735 -0.2408
15983TIP3    H169364   1.469   3.461   2.174 -2.2413 -1.1444  2.0910
15983TIP3    H269365   1.427   3.319   2.142 -0.1996 -2.0354  3.1690
15984TIP3   OH269366   2.537   4.428   3.425 -0.6375  0.6140 -0.0614
15984TIP3    H169367   2.587   4.478   3.361  0.7840  0.4130  0.8455
15984TIP3    H269368   2.495   4.495   3.480 -0.9277  0.7880 -0.4952
15985TIP3   OH269369   5.004   3.549  13.402  0.2162  0.3912 -0.2364
15985TIP3    H169370   5.081   3.514  13.448 -0.4178  0.6076  1.0227
15985TIP3    H269371   5.041   3.595  13.327  1.2709 -0.1626 -0.0890
15986TIP3   OH269372   4.721   1.112   3.034  0.1587 -0.3430 -0.4120
15986TIP3    H169373   4.799   1.162   3.058  0.5590 -1.0619 -0.1987
15986TIP3    H269374   4.711   1.046   3.102 -0.1856 -0.7579 -0.8497
15987TIP3   OH269375   6.302   4.431  16.766 -0.1845 -0.0429 -0.7664
15987TIP3    H169376   6.288   4.521  16.796  0.5023  0.5683 -2.2191
15987TIP3    H269377   6.282   4.433  16.673  1.5591 -0.9755 -1.2066
15988TIP3   OH269378   2.775   4.194  14.928  0.8502  0.2341  0.2233
15988TIP3    H169379   2.777   4.132  15.001 -1.7204 -0.5769 -0.2913
15988TIP3    H269380   2.723   4.268  14.960  1.6637  0.9555 -0.0567
15989TIP3   OH269381   5.279   3.162  15.160 -0.1005 -0.3126 -0.3701
15989TIP3    H169382   5.362   3.149  15.115  0.5900  0.4660  0.6413
15989TIP3    H269383   5.239   3.075  15.162  0.4522 -0.6048 -1.2910
15990TIP3   OH269384   2.399   6.259   1.067 -0.6235 -0.4670 -0.0864
15990TIP3    H169385   2.320   6.223   1.106 -0.9491  0.3204 -0.0157
15990TIP3    H269386   2.392   6.353   1.079  0.3975 -0.3954  0.0596
15991TIP3   OH269387   3.895   3.322   2.193 -0.1342 -0.4317 -0.2778
15991TIP3    H169388   3.841   3.326   2.272  1.0723  2.3073  0.5206
15991TIP3    H269389   3.861   3.392   2.137  0.8876 -0.4275 -0.9196
15992TIP3   OH269390   0.915   1.300  11.089  0.0334  0.3057  0.6928
15992TIP3    H169391   0.971   1.377  11.093 -0.6964  0.8192  1.2565
15992TIP3    H269392   0.834   1.332  11.049 -0.4613 -0.0381  1.3956
15993TIP3   OH269393   4.388   4.577   1.549  0.2219 -0.2618  0.1230
15993TIP3    H169394   4.340   4.633   1.610 -1.3158 -0.5639 -0.7478
15993TIP3    H269395   4.449   4.636   1.505 -0.7264  0.5789 -0.1207
15994TIP3   OH269396   2.144   1.713  16.907  0.1183 -0.6356  0.0284
15994TIP3    H169397   2.225   1.749  16.944 -0.2140  2.2765 -1.7443
15994TIP3    H269398   2.091   1.691  16.983  1.6090 -0.2426  1.2375
15995TIP3   OH269399   4.917   4.608  15.964  0.6914 -0.2962 -0.1970
15995TIP3    H169400   4.833   4.636  15.928  0.7541 -0.4811 -0.4932
15995TIP3    H269401   4.935   4.524  15.921  1.3971  0.1112 -0.7281
15996TIP3   OH269402   3.048   1.774   4.303  0.2088  0.7397 -0.3690
15996TIP3    H169403   2.982   1.781   4.234 -0.3058  2.8868  0.2737
15996TIP3    H269404   3.047   1.860   4.346  2.2664  0.2764  0.7175
15997TIP3   OH269405   6.654   1.135   4.851  0.8614  0.2484  0.0127
15997TIP3    H169406   6.580   1.083   4.819  0.4903  1.2155 -0.7700
15997TIP3    H269407   6.708   1.150   4.773  2.0826 -0.7315  0.6442
15998TIP3   OH269408   2.473   1.424  13.482  0.1477 -0.8692  0.3711
15998TIP3    H169409   2.398   1.427  13.541  0.0482  0.4473  0.1860
15998TIP3    H269410   2.450   1.482  13.410  1.2709 -0.5769  0.2279
15999TIP3   OH269411   6.233   2.332  13.491 -0.0851 -0.4616  0.0901
15999TIP3    H169412   6.196   2.255  13.535 -0.1828 -1.4547 -1.6265
15999TIP3    H269413   6.222   2.314  13.397  0.3485  1.4360 -0.3721
16000TIP3   OH269414   5.233   4.000   4.868 -0.1139 -0.0395  0.3220
16000TIP3    H169415   5.184   3.922   4.842 -1.0411 -0.1731  2.2786
16000TIP3    H269416   5.165   4.064   4.891  0.6354  1.1174 -0.5744
16001TIP3   OH269417   1.713   6.229  16.213 -0.0326 -0.2005  0.5674
16001TIP3    H169418   1.666   6.204  16.133  1.0584  1.5868 -0.7076
16001TIP3    H269419   1.692   6.159  16.275 -0.5824 -1.9128 -1.3968
16002TIP3   OH269420   4.883   6.052  11.874  0.4429 -0.0168  0.2252
16002TIP3    H169421   4.811   6.113  11.862 -0.8487 -1.3283  0.9970
16002TIP3    H269422   4.927   6.049  11.788 -1.9045 -1.0066 -1.0264
16003TIP3   OH269423   1.428   4.789  14.327  0.1049  0.1126  0.5132
16003TIP3    H169424   1.490   4.763  14.259  1.0178  0.6244  1.1238
16003TIP3    H269425   1.367   4.715  14.333  0.5469 -0.3270 -0.2275
16004TIP3   OH269426   3.160   5.303   0.958 -0.3164  0.3825  0.6332
16004TIP3    H169427   3.248   5.338   0.976 -0.0322 -0.4253  0.8293
16004TIP3    H269428   3.101   5.361   1.007  0.2240  0.0021  1.7746
16005TIP3   OH269429   1.003   4.340   0.848  0.3534  0.2218  0.0846
16005TIP3    H169430   0.984   4.248   0.829 -1.3732  0.3718  0.8881
16005TIP3    H269431   1.039   4.375   0.766  0.4199 -0.9984 -0.4281
16006TIP3   OH269432   0.266   2.860  14.004  0.7048 -0.1977  0.4787
16006TIP3    H169433   0.217   2.942  14.000 -1.2359 -1.3079  0.5717
16006TIP3    H269434   0.298   2.846  13.914 -1.1111 -0.5621 -0.1526
16007TIP3   OH269435   4.405   5.157   0.917  0.1775  0.2703  0.4585
16007TIP3    H169436   4.326   5.159   0.971  0.8674  1.9346  1.4957
16007TIP3    H269437   4.385   5.212   0.842  0.5063  1.1750  1.0121
16008TIP3   OH269438   3.739   1.502  11.617 -0.0636 -0.6517 -0.0118
16008TIP3    H169439   3.735   1.594  11.643  0.6282 -0.3824 -0.8073
16008TIP3    H269440   3.809   1.499  11.551  0.1147 -1.7978  0.2133
16009TIP3   OH269441   4.740   5.713   5.374 -0.3190  0.1595 -0.3359
16009TIP3    H169442   4.663   5.766   5.351 -0.3542 -0.3036 -1.3047
16009TIP3    H269443   4.778   5.687   5.290  1.5362  1.2729  0.0990
16010TIP3   OH269444   6.364   5.312  16.729  0.7267 -0.7033 -0.5133
16010TIP3    H169445   6.459   5.314  16.730  0.8336 -3.1846  0.0286
16010TIP3    H269446   6.342   5.274  16.644  0.2668 -0.8569 -0.3297
16011TIP3   OH269447   2.432   1.079  12.517 -0.4434 -0.2122 -0.1849
16011TIP3    H169448   2.380   1.000  12.535  2.1245 -1.5790  2.0380
16011TIP3    H269449   2.468   1.064  12.430 -0.8999 -0.9338 -0.2608
16012TIP3   OH269450   5.160   6.753  15.208  0.0243  0.9886 -0.8776
16012TIP3    H169451   5.236   6.793  15.249  0.5856  0.4384 -1.3660
16012TIP3    H269452   5.196   6.691  15.144 -0.8260  0.8868 -1.2794
16013TIP3   OH269453   3.467   0.278  10.884 -0.1258 -0.3476  0.3584
16013TIP3    H169454   3.447   0.369  10.905  0.2822  0.0726 -0.9742
16013TIP3    H269455   3.387   0.245  10.845 -0.5636 -0.8374  1.6342
16014TIP3   OH269456   3.788   2.740   2.965  1.0726  0.0542 -0.5052
16014TIP3    H169457   3.717   2.729   2.903  1.3221  0.3986 -0.8610
16014TIP3    H269458   3.747   2.731   3.051  0.6976 -0.2750 -0.7181
16015TIP3   OH269459   5.418   3.436  14.890  0.1588  0.4885  0.0922
16015TIP3    H169460   5.334   3.424  14.932  0.7140 -1.3598  0.7532
16015TIP3    H269461   5.401   3.499  14.820 -1.4715  1.1132  1.0100
16016TIP3   OH269462   6.524   6.490   4.527 -0.4206 -0.4325  0.2022
16016TIP3    H169463   6.485   6.507   4.613 -2.4576  0.3448 -0.8006
16016TIP3    H269464   6.530   6.577   4.486 -0.9263 -0.9484 -1.0146
16017TIP3   OH269465   5.644   5.790  14.436  1.0332  0.1832  0.0049
16017TIP3    H169466   5.621   5.707  14.394 -1.1335  1.1000 -0.7752
16017TIP3    H269467   5.649   5.769  14.529 -1.6478 -0.4907  0.0865
16018TIP3   OH269468   5.080   5.541   4.077 -0.2262 -0.3844  0.1222
16018TIP3    H169469   5.078   5.612   4.013 -1.0913  0.3011  0.8856
16018TIP3    H269470   5.034   5.469   4.034 -0.6455  0.0082 -0.0958
16019TIP3   OH269471   4.933   1.548   5.480  0.2159 -0.2144  0.3018
16019TIP3    H169472   5.017   1.545   5.525  0.0564 -2.6744  0.5487
16019TIP3    H269473   4.955   1.566   5.389  0.9561 -0.2168  0.4779
16020TIP3   OH269474   0.121   1.502  15.437 -0.3611 -0.0775 -0.0309
16020TIP3    H169475   0.078   1.419  15.418 -0.7576  0.2697 -0.7128
16020TIP3    H269476   0.097   1.559  15.363 -1.5769  1.2129  1.2767
16021TIP3   OH269477   4.589   1.370  15.310 -0.2479  0.5361  0.0584
16021TIP3    H169478   4.662   1.310  15.327 -0.3869  0.7817  1.6956
16021TIP3    H269479   4.628   1.457  15.319 -0.0867  0.7349 -2.1220
16022TIP3   OH269480   6.676   3.175   4.669  0.0491 -0.0293 -0.0090
16022TIP3    H169481   6.667   3.180   4.574 -0.9591 -0.7007  0.0424
16022TIP3    H269482   6.715   3.089   4.685  1.7528  0.7134  0.1159
16023TIP3   OH269483   6.566   0.127  10.279  0.5985  0.7494  0.3468
16023TIP3    H169484   6.607   0.213  10.290 -1.5298  1.8398  0.1036
16023TIP3    H269485   6.533   0.127  10.189 -0.1575 -0.0053  0.6121
16024TIP3   OH269486   2.379   4.587   1.520  0.4190 -0.1520 -0.2967
16024TIP3    H169487   2.293   4.574   1.481 -0.3554  1.2371  0.8627
16024TIP3    H269488   2.438   4.533   1.468 -1.0594 -0.6718 -1.4712
16025TIP3   OH269489   0.826   1.409  12.625  0.2831  0.4718 -0.0743
16025TIP3    H169490   0.830   1.413  12.720  1.1291  1.6971 -0.1511
16025TIP3    H269491   0.866   1.490  12.595 -0.4778  0.3639 -1.4739
16026TIP3   OH269492   3.948   4.413   6.194  0.2704  0.2572 -0.2026
16026TIP3    H169493   3.956   4.456   6.279  0.9059  1.0363 -0.6533
16026TIP3    H269494   3.987   4.326   6.208 -0.0153  0.2183  0.4061
16027TIP3   OH269495   2.372   4.010  15.605 -0.1321  0.3251  0.1057
16027TIP3    H169496   2.378   4.027  15.699 -2.7509 -1.0214  0.6272
16027TIP3    H269497   2.462   4.019  15.572  0.8428  0.8342  2.7182
16028TIP3   OH269498   1.494   5.651   1.576 -0.1296 -0.3557  0.2900
16028TIP3    H169499   1.562   5.714   1.554 -0.0272 -0.8323 -0.8158
16028TIP3    H269500   1.510   5.576   1.518 -1.1023 -0.8079  0.5799
16029TIP3   OH269501   4.145   2.142  15.117  0.0932  0.0808  0.4602
16029TIP3    H169502   4.158   2.226  15.161 -1.8973  1.4382 -1.3205
16029TIP3    H269503   4.075   2.159  15.053 -0.3052 -2.9117 -0.0581
16030TIP3   OH269504   5.846   3.172  10.784 -0.4770  0.3266  0.4103
16030TIP3    H169505   5.816   3.081  10.779  2.7737 -0.8537  0.0354
16030TIP3    H269506   5.875   3.183  10.875 -0.4846  0.8408  0.3544
16031TIP3   OH269507   1.842   1.995   2.598 -0.1864  0.2338  0.0607
16031TIP3    H169508   1.903   1.925   2.617  1.5010  1.3657 -0.9573
16031TIP3    H269509   1.784   1.960   2.530 -1.1511 -1.0591  1.4750
16032TIP3   OH269510   0.455   4.653   0.077 -0.7629  0.4021  0.5746
16032TIP3    H169511   0.543   4.629   0.105 -0.2120  0.4172 -1.0322
16032TIP3    H269512   0.465   4.740   0.037 -1.3652  0.1284 -0.2095
16033TIP3   OH269513   4.332   2.359  15.421 -0.3839 -0.2339 -0.5336
16033TIP3    H169514   4.348   2.265  15.410 -0.1889 -0.2011 -0.5270
16033TIP3    H269515   4.247   2.373  15.380 -0.1395 -0.3047 -1.0771
16034TIP3   OH269516   2.228   0.917   1.295  0.5318  0.0583 -0.2909
16034TIP3    H169517   2.264   0.918   1.206 -1.3642 -0.4394 -1.1220
16034TIP3    H269518   2.304   0.913   1.352  1.8381  1.2546 -1.8577
16035TIP3   OH269519   1.559   1.112  12.302 -0.4811  0.4196  0.6520
16035TIP3    H169520   1.622   1.135  12.234  1.3634  2.3524  2.8436
16035TIP3    H269521   1.482   1.081  12.254  0.3678  2.4833 -2.3079
16036TIP3   OH269522   5.059   5.784  13.870  0.2205  0.0598  0.1276
16036TIP3    H169523   5.064   5.837  13.949  0.4330 -0.1521  0.2551
16036TIP3    H269524   4.968   5.795  13.840 -0.5720 -1.7136  1.6969
16037TIP3   OH269525   6.346   2.122   2.563  0.2505  0.9486 -0.1949
16037TIP3    H169526   6.429   2.088   2.597  0.4308  1.4096 -0.1701
16037TIP3    H269527   6.281   2.057   2.588  1.0120 -1.0010 -2.8070
16038TIP3   OH269528   1.612   4.287  13.791 -0.6700  0.1355  0.5696
16038TIP3    H169529   1.585   4.246  13.709  2.6258  3.3005 -2.4136
16038TIP3    H269530   1.567   4.371  13.793 -0.0006  0.4947  1.5588
16039TIP3   OH269531   5.261   3.568   2.079 -0.0357 -0.6791 -0.1190
16039TIP3    H169532   5.275   3.628   2.007 -1.2275  0.0435  0.2216
16039TIP3    H269533   5.185   3.603   2.126  0.1988 -1.5835  1.0026
16040TIP3   OH269534   5.786   6.284   2.754  0.1492 -0.3677  0.0157
16040TIP3    H169535   5.864   6.257   2.802  0.5787  0.1045 -0.4051
16040TIP3    H269536   5.820   6.327   2.676 -0.5184  0.5255  0.2059
16041TIP3   OH269537   0.907   6.457  15.041 -0.3294 -0.6117  0.1519
16041TIP3    H169538   0.927   6.400  14.966  1.4099  1.0340 -0.7218
16041TIP3    H269539   0.933   6.406  15.118  0.7482 -1.1831 -0.5649
16042TIP3   OH269540   3.822   4.933  10.895  0.0597  0.6139 -0.0149
16042TIP3    H169541   3.764   4.858  10.911  0.5507  0.4632  1.1872
16042TIP3    H269542   3.832   4.936  10.800 -0.7124 -0.2741 -0.1440
16043TIP3   OH269543   1.430   1.319  12.391 -0.5212  0.5587 -0.8714
16043TIP3    H169544   1.479   1.246  12.352 -0.1334  0.3574 -0.0224
16043TIP3    H269545   1.384   1.358  12.317 -1.8813 -1.4233 -1.1535
16044TIP3   OH269546   4.994   4.889   1.130  0.0082 -0.1497  0.0999
16044TIP3    H169547   4.974   4.968   1.179  0.1484 -0.9471  1.4793
16044TIP3    H269548   5.089   4.893   1.114 -0.0822  0.2405 -0.3689
16045TIP3   OH269549   3.558   5.768   2.381  0.1214 -0.5604 -0.5534
16045TIP3    H169550   3.615   5.711   2.329 -0.1614 -0.4930 -0.9337
16045TIP3    H269551   3.539   5.842   2.325  0.8405  0.1345  0.0932
16046TIP3   OH269552   6.802   5.443   2.172  0.0668  0.4952  0.0916
16046TIP3    H169553   6.839   5.368   2.125  0.1239  0.5735  0.0126
16046TIP3    H269554   6.784   5.409   2.260  0.5080  0.5125  0.1894
16047TIP3   OH269555   3.980   0.467  12.198  0.6753  0.3817 -0.1206
16047TIP3    H169556   4.069   0.476  12.232  1.9305 -1.0490 -2.7003
16047TIP3    H269557   3.978   0.379  12.160 -1.9639  0.2687  0.1305
16048TIP3   OH269558   4.246   1.842   3.982  0.2317 -0.4542 -0.2005
16048TIP3    H169559   4.158   1.875   3.963  0.9658  1.2257 -0.8516
16048TIP3    H269560   4.300   1.873   3.909  1.7389  0.1502  1.1107
16049TIP3   OH269561   4.457   5.608   5.980  0.2383  0.3177  0.4792
16049TIP3    H169562   4.535   5.616   5.925  0.2620  0.8010  0.5865
16049TIP3    H269563   4.384   5.608   5.917  0.3338 -0.4079  0.3594
16050TIP3   OH269564   6.195   5.644  14.052 -0.1708  0.4665 -0.1207
16050TIP3    H169565   6.144   5.606  13.980 -0.3391  0.2141  0.1316
16050TIP3    H269566   6.156   5.730  14.065 -0.1222  0.5247 -0.3510
16051TIP3   OH269567   6.593   5.263   4.028  0.0955 -0.5149  0.0198
16051TIP3    H169568   6.681   5.301   4.037  0.1537 -0.6718  0.1154
16051TIP3    H269569   6.573   5.273   3.935 -0.6149  1.3416  0.3366
16052TIP3   OH269570   4.132   6.354  14.326  0.1030 -0.1989 -0.0240
16052TIP3    H169571   4.097   6.428  14.377  0.3768  0.0017 -0.1232
16052TIP3    H269572   4.096   6.366  14.238  0.8498  0.3130 -0.2657
16053TIP3   OH269573   2.729   4.487   4.398 -0.0189 -0.1208 -0.0401
16053TIP3    H169574   2.656   4.545   4.421 -0.1204 -0.2466 -0.0415
16053TIP3    H269575   2.745   4.505   4.305  0.6520  0.6752  0.2137
16054TIP3   OH269576   3.090   1.512   5.009 -0.1470  0.2689 -0.1073
16054TIP3    H169577   3.136   1.447   5.063 -0.1301 -2.2076 -2.8764
16054TIP3    H269578   3.029   1.554   5.070  0.5442 -1.6548  2.0505
16055TIP3   OH269579   2.819   5.144  12.692  0.3877  0.4021 -0.4112
16055TIP3    H169580   2.763   5.218  12.718  0.4318  0.2601  0.1003
16055TIP3    H269581   2.776   5.107  12.615  1.0676  1.7620 -1.4840
16056TIP3   OH269582   6.766   4.915  13.200 -0.4497 -0.3994 -0.0186
16056TIP3    H169583   6.677   4.915  13.235 -0.5800  0.7090 -0.3176
16056TIP3    H269584   6.812   4.982  13.251  0.0570 -0.5596 -0.2577
16057TIP3   OH269585   0.463   2.841  14.703  0.3906  0.1794 -0.7066
16057TIP3    H169586   0.417   2.883  14.775  2.5154  0.7431  0.3911
16057TIP3    H269587   0.545   2.808  14.741  0.6393 -1.3849 -2.4167
16058TIP3   OH269588   1.479   5.975  10.448 -0.3680  0.8082  0.3361
16058TIP3    H169589   1.491   5.882  10.465 -0.3009  0.8523  0.5308
16058TIP3    H269590   1.395   5.980  10.403 -1.4134  0.8623  2.2083
16059TIP3   OH269591   1.220   3.906  13.162 -0.3995  0.2201  0.5004
16059TIP3    H169592   1.157   3.937  13.098 -0.1085 -3.1220 -1.6787
16059TIP3    H269593   1.293   3.967  13.156 -1.1690  1.0360 -1.0292
16060TIP3   OH269594   5.268   0.054  10.772  0.2610  0.3464 -0.4205
16060TIP3    H169595   5.204  -0.004  10.730  0.0617  0.5008 -0.3289
16060TIP3    H269596   5.322  -0.005  10.825 -1.9763  0.5745  2.3215
16061TIP3   OH269597   5.642   5.820  17.147 -0.3486  0.5810 -0.1085
16061TIP3    H169598   5.636   5.733  17.108 -0.9215  0.9613 -0.8880
16061TIP3    H269599   5.723   5.857  17.111  0.9904 -0.3590  1.7788
16062TIP3   OH269600   0.791   3.762  13.695 -0.6559 -0.0827  0.4766
16062TIP3    H169601   0.813   3.717  13.614  0.1590 -2.7171  2.0286
16062TIP3    H269602   0.864   3.821  13.711 -1.7418  1.9868 -1.6052
16063TIP3   OH269603   5.171   0.608  10.473  0.3015 -0.0418  0.5081
16063TIP3    H169604   5.128   0.612  10.558 -0.2998  0.4906  0.1931
16063TIP3    H269605   5.115   0.550  10.421  0.5429 -0.1879  0.4106
16064TIP3   OH269606   0.550   2.697   0.777 -0.2911 -0.7068  0.1055
16064TIP3    H169607   0.607   2.773   0.784 -0.2425 -0.6506 -0.7620
16064TIP3    H269608   0.469   2.722   0.822 -0.5179  0.1021 -0.7284
16065TIP3   OH269609   2.873   6.671   4.578 -0.0556 -0.6160 -0.2591
16065TIP3    H169610   2.958   6.631   4.560  0.8417  1.3594 -0.6473
16065TIP3    H269611   2.851   6.717   4.497 -0.3828  0.7547  0.5715
16066TIP3   OH269612   4.713   6.371   4.089  0.3917 -0.2461 -0.1916
16066TIP3    H169613   4.768   6.436   4.046  1.4081 -0.6218  0.5265
16066TIP3    H269614   4.685   6.413   4.170 -0.9261  0.1796 -0.8275
16067TIP3   OH269615   5.987   0.758  11.447 -0.4565 -0.2333 -0.2254
16067TIP3    H169616   5.928   0.802  11.386 -2.7017 -0.9236  1.3287
16067TIP3    H269617   6.047   0.708  11.391 -1.3055  0.5425 -1.8767
16068TIP3   OH269618   1.541   3.349   6.372 -0.1414 -0.3105 -0.0323
16068TIP3    H169619   1.499   3.413   6.316 -0.5128 -1.1679 -0.7534
16068TIP3    H269620   1.614   3.315   6.319  0.9597  0.5387  0.8806
16069TIP3   OH269621   0.629   0.626   1.610  0.0620 -0.2130  0.2418
16069TIP3    H169622   0.567   0.696   1.631 -0.6693 -0.7293 -0.1226
16069TIP3    H269623   0.687   0.621   1.686 -2.6397 -2.1967  2.4157
16070TIP3   OH269624   0.451   4.947  10.435 -0.3720 -0.2725 -0.2843
16070TIP3    H169625   0.368   4.991  10.454  0.3344  0.6889  0.6701
16070TIP3    H269626   0.462   4.885  10.508  0.0227  0.0107 -0.1012
16071TIP3   OH269627   0.035   0.415   1.723  0.5515 -0.1181  0.3108
16071TIP3    H169628  -0.055   0.416   1.756  0.3649  0.9435 -0.2059
16071TIP3    H269629   0.085   0.367   1.790 -0.2838 -0.1979  0.8861
16072TIP3   OH269630   0.334   6.728  11.970  0.6428  0.2483 -0.5530
16072TIP3    H169631   0.343   6.809  12.020 -0.3803  0.6418 -0.9960
16072TIP3    H269632   0.373   6.661  12.027  0.0384  0.7833  0.5156
16073TIP3   OH269633   3.234   5.323   5.335 -0.2742 -0.3134 -0.1793
16073TIP3    H169634   3.191   5.347   5.253 -1.1274 -0.9038  0.0703
16073TIP3    H269635   3.305   5.387   5.345  0.7154 -1.0399 -2.0370
16074TIP3   OH269636   6.515   5.831   5.616 -0.1908 -0.2451  0.0994
16074TIP3    H169637   6.468   5.860   5.537  1.6768 -0.3747 -1.1122
16074TIP3    H269638   6.482   5.742   5.632 -1.9973  0.4753  0.6593
16075TIP3   OH269639   2.206   0.974   0.675 -0.0061  0.1098  0.3634
16075TIP3    H169640   2.222   1.026   0.596  0.1095 -0.5636 -0.0611
16075TIP3    H269641   2.173   0.891   0.643  0.3672 -0.2944  1.0091
16076TIP3   OH269642   3.906   2.013  12.688  0.1272  0.4467  0.4118
16076TIP3    H169643   3.895   2.019  12.783 -1.5813  0.7613  0.2207
16076TIP3    H269644   3.941   2.098  12.662  1.1417  0.1663  0.8011
16077TIP3   OH269645   0.008   3.039  14.817  0.0521 -0.5634 -0.1714
16077TIP3    H169646   0.012   3.089  14.736 -1.5215 -0.4407 -0.2132
16077TIP3    H269647   0.011   2.947  14.789  0.0002 -0.5170 -0.3310
16078TIP3   OH269648   5.716   5.804   4.405 -0.4553  0.1583  0.9133
16078TIP3    H169649   5.639   5.859   4.414 -0.7544 -0.3280  1.4110
16078TIP3    H269650   5.695   5.725   4.455 -0.0658 -0.4347  0.1712
16079TIP3   OH269651   1.642   0.447  15.642  0.5685 -0.4405  0.6305
16079TIP3    H169652   1.643   0.520  15.703 -0.3038 -1.7163  2.2625
16079TIP3    H269653   1.734   0.430  15.623  0.7828  1.0830  0.1715
16080TIP3   OH269654   2.169   3.786  15.204  0.2615 -0.6113  0.0195
16080TIP3    H169655   2.104   3.724  15.238 -0.8713  1.1615  1.2963
16080TIP3    H269656   2.238   3.731  15.168 -0.1058 -2.6339  2.1350
16081TIP3   OH269657   1.155   0.472   2.300  0.3368  0.5725  0.6233
16081TIP3    H169658   1.222   0.409   2.322 -1.0206 -0.7697  1.0799
16081TIP3    H269659   1.087   0.459   2.366 -1.6047 -0.0692 -1.3736
16082TIP3   OH269660   4.124   4.420  16.077 -0.0216 -0.2995 -0.5757
16082TIP3    H169661   4.201   4.385  16.032 -1.2387 -1.9588 -1.4793
16082TIP3    H269662   4.086   4.481  16.013  0.2871  0.2112 -0.2848
16083TIP3   OH269663   5.162   2.759   5.117  0.0643 -0.3245  0.2556
16083TIP3    H169664   5.191   2.840   5.159  0.9675 -0.8203  0.6131
16083TIP3    H269665   5.076   2.742   5.156 -1.0349  1.4655 -1.2385
16084TIP3   OH269666   2.998   0.041  16.358 -0.9058 -0.2240  0.2448
16084TIP3    H169667   2.990   0.107  16.288 -0.6638 -0.5941 -0.1382
16084TIP3    H269668   3.092   0.025  16.364 -0.9271 -0.1812  0.6730
16085TIP3   OH269669   2.219   4.924   1.875 -0.1359 -0.0072 -0.3369
16085TIP3    H169670   2.205   5.013   1.907 -0.4975  0.6436 -2.1790
16085TIP3    H269671   2.135   4.880   1.887 -0.6998  0.6639 -1.6308
16086TIP3   OH269672   0.140   4.810  16.059  0.8318  0.3752  0.2791
16086TIP3    H169673   0.215   4.777  16.010  1.6614 -0.3937  1.9669
16086TIP3    H269674   0.118   4.739  16.120 -2.4146 -0.1582 -1.2994
16087TIP3   OH269675   2.263   0.385  11.641  0.1785  0.3200  0.0217
16087TIP3    H169676   2.246   0.291  11.645 -1.8674  0.6712  0.9683
16087TIP3    H269677   2.230   0.412  11.555  1.1560  0.1391 -0.4276
16088TIP3   OH269678   6.758   5.078   3.365  0.0163  0.1212 -0.4411
16088TIP3    H169679   6.727   5.029   3.441 -0.7190 -0.2314 -0.9647
16088TIP3    H269680   6.679   5.105   3.319  0.4196  1.2935 -0.4944
16089TIP3   OH269681   0.442   1.496   0.230 -0.5594  0.1451  0.4305
16089TIP3    H169682   0.467   1.478   0.139  0.9415 -0.3519  0.9072
16089TIP3    H269683   0.347   1.509   0.227 -0.3371  1.9070 -1.4828
16090TIP3   OH269684   4.038   0.777  17.162  0.0037 -0.0972 -0.3845
16090TIP3    H169685   3.981   0.849  17.193 -0.0524  0.2523 -1.2676
16090TIP3    H269686   4.033   0.783  17.067  0.8374 -0.6238 -0.4637
16091TIP3   OH269687   3.178   6.484  15.371 -0.7898  0.8172  0.2076
16091TIP3    H169688   3.209   6.555  15.426 -0.5563  0.5754  0.3885
16091TIP3    H269689   3.256   6.451  15.327 -1.0721  1.4394 -0.7782
16092TIP3   OH269690   1.587   1.752  13.367  0.2639 -0.3159  0.0680
16092TIP3    H169691   1.632   1.773  13.449 -0.7765  0.7146  0.4036
16092TIP3    H269692   1.501   1.719  13.394 -1.1339  2.4746 -0.5615
16093TIP3   OH269693   4.344   2.084  14.681 -0.7385  0.6432 -0.2898
16093TIP3    H169694   4.386   2.034  14.611 -0.1585  1.1590 -0.3207
16093TIP3    H269695   4.346   2.025  14.757  2.4223  1.4956  0.4722
16094TIP3   OH269696   1.801   2.248   2.697  0.6013  0.3678  0.2525
16094TIP3    H169697   1.892   2.275   2.684  0.5222 -0.1513 -1.8825
16094TIP3    H269698   1.799   2.157   2.667 -0.8612  0.7953 -1.1086
16095TIP3   OH269699   2.244   6.542   1.530 -0.0799  0.0710  0.1238
16095TIP3    H169700   2.159   6.523   1.571  0.4954 -1.3638  0.7113
16095TIP3    H269701   2.305   6.546   1.604  0.6329 -0.5513 -0.4211
16096TIP3   OH269702   6.360   5.473  11.869  0.3658  0.6982  0.1378
16096TIP3    H169703   6.357   5.479  11.774  2.5899  0.0156 -0.0375
16096TIP3    H269704   6.359   5.563  11.900  0.6961  0.9658 -0.6157
16097TIP3   OH269705   5.104   3.699  14.332 -0.3360 -0.8596  0.0743
16097TIP3    H169706   5.022   3.731  14.295 -0.5294  0.9242  1.8975
16097TIP3    H269707   5.164   3.773  14.325  0.4408 -1.4042  0.7638
16098TIP3   OH269708   0.937   4.578   2.727  0.2133  0.5880 -0.0544
16098TIP3    H169709   0.980   4.619   2.802  1.7324 -0.0766 -0.5173
16098TIP3    H269710   0.863   4.530   2.764  0.9946  0.2036  1.0400
16099TIP3   OH269711   2.821   4.517  15.068  0.1216  0.0518 -0.6603
16099TIP3    H169712   2.759   4.446  15.051  1.2159 -0.3281 -3.6793
16099TIP3    H269713   2.767   4.587  15.105 -1.1354 -1.9513  1.6087
16100TIP3   OH269714   0.410   5.043  17.002 -0.4777  0.4191  0.4372
16100TIP3    H169715   0.389   4.949  16.999 -1.0269  0.5662 -0.7937
16100TIP3    H269716   0.425   5.061  17.094 -0.6053 -0.8352  0.7213
16101TIP3   OH269717   5.139   2.299   4.203 -0.1673  0.2552 -0.3653
16101TIP3    H169718   5.130   2.267   4.113 -0.1450  0.8051 -0.5627
16101TIP3    H269719   5.158   2.392   4.194 -0.5832  0.4021  0.2193
16102TIP3   OH269720   6.455   6.184  11.771 -0.0583 -0.6728  0.8328
16102TIP3    H169721   6.425   6.186  11.862 -0.6379 -0.5383  0.6487
16102TIP3    H269722   6.374   6.174  11.720  0.2791 -0.9271  0.3440
16103TIP3   OH269723   1.672   5.329  11.476  0.3358 -0.1383 -0.6048
16103TIP3    H169724   1.673   5.283  11.392  0.2231 -0.6899 -0.3088
16103TIP3    H269725   1.715   5.269  11.536 -0.1899 -0.0382 -0.1203
16104TIP3   OH269726   0.450   1.279  11.755  0.0663  0.2842  0.4385
16104TIP3    H169727   0.364   1.288  11.796  0.3654 -0.2171  1.2125
16104TIP3    H269728   0.478   1.368  11.735 -0.6876  0.4395  0.0515
16105TIP3   OH269729   2.239   0.447   2.076 -0.0856 -0.0684  0.2921
16105TIP3    H169730   2.172   0.392   2.117 -1.1258  1.5562  0.8715
16105TIP3    H269731   2.213   0.536   2.097  1.1957  0.6945 -1.1482
16106TIP3   OH269732   1.467   2.299  11.074  0.3256 -0.0195  0.0600
16106TIP3    H169733   1.535   2.297  11.141  1.5460 -0.9158 -1.1409
16106TIP3    H269734   1.515   2.314  10.992 -0.9870 -0.1443 -0.7586
16107TIP3   OH269735   6.741   3.271   2.905  0.2925 -0.2921  0.5725
16107TIP3    H169736   6.678   3.207   2.872 -1.6528  1.1484  1.3346
16107TIP3    H269737   6.777   3.312   2.826 -2.5856  1.4925  0.0336
16108TIP3   OH269738   1.204   3.113   0.356 -0.2071 -0.3897 -0.0623
16108TIP3    H169739   1.201   3.111   0.260  1.1771 -1.5053 -0.1150
16108TIP3    H269740   1.295   3.130   0.377 -0.5444  0.1013  1.0759
16109TIP3   OH269741   0.322   4.350   2.463 -0.3560  0.9196  0.1492
16109TIP3    H169742   0.341   4.396   2.382 -1.6804  1.6311  0.2102
16109TIP3    H269743   0.318   4.258   2.439 -1.5156  1.1872 -0.7746
16110TIP3   OH269744   5.381   2.875  16.895 -0.5668  0.0124  0.2719
16110TIP3    H169745   5.376   2.813  16.967  0.4159 -0.2549  0.1300
16110TIP3    H269746   5.445   2.940  16.924 -1.5538  0.9605  0.4034
16111TIP3   OH269747   2.130   0.658  11.649 -0.2633 -0.3524 -0.2346
16111TIP3    H169748   2.127   0.665  11.745  0.9131  0.6267 -0.2475
16111TIP3    H269749   2.219   0.686  11.626 -0.4448 -0.8540 -1.5963
16112TIP3   OH269750   6.120   6.128  16.293 -0.7223  0.7678 -0.1095
16112TIP3    H169751   6.185   6.114  16.225  0.1679 -0.1755  0.8924
16112TIP3    H269752   6.147   6.071  16.365 -2.1024  1.0951  0.7235
16113TIP3   OH269753   0.192   5.476  14.514 -0.8258 -0.3576 -0.3499
16113TIP3    H169754   0.263   5.414  14.531  0.7066  1.4360  0.0580
16113TIP3    H269755   0.219   5.524  14.436 -1.6578  0.2832 -0.2608
16114TIP3   OH269756   5.442   4.495  12.585 -0.5471 -0.4689  0.7791
16114TIP3    H169757   5.513   4.474  12.645 -3.0557 -1.9810  3.4794
16114TIP3    H269758   5.420   4.586  12.604  0.4510 -0.0419  0.0372
16115TIP3   OH269759   3.719   0.308   3.822  0.2881  0.0512  0.0892
16115TIP3    H169760   3.679   0.251   3.757 -0.5661 -2.7148  2.7768
16115TIP3    H269761   3.811   0.284   3.822  0.9792  2.2195 -1.9918
16116TIP3   OH269762   3.360   2.770  13.362 -0.1620 -0.2227 -0.1985
16116TIP3    H169763   3.370   2.745  13.454 -0.2004  0.6568  0.0625
16116TIP3    H269764   3.407   2.703  13.313 -0.1048 -0.6778  0.4685
16117TIP3   OH269765   5.445   6.030   0.968  0.0182 -0.1227  0.4151
16117TIP3    H169766   5.482   6.032   1.056  0.8803  0.2994  0.0573
16117TIP3    H269767   5.380   6.100   0.968 -0.9122 -0.9504  1.0864
16118TIP3   OH269768   1.084   5.711   1.873  0.2017 -0.3714  0.0919
16118TIP3    H169769   1.100   5.760   1.793  0.6273  0.3058  0.5881
16118TIP3    H269770   1.008   5.754   1.913  0.1559 -0.5407  0.1898
16119TIP3   OH269771   5.023   6.543  12.511  0.1454  0.0678  0.1270
16119TIP3    H169772   5.048   6.465  12.462  1.3582  0.0903  0.6738
16119TIP3    H269773   4.979   6.509  12.589 -1.1890  0.0153 -0.6150
16120TIP3   OH269774   4.295   5.533  11.735  0.6500 -0.0454 -0.5219
16120TIP3    H169775   4.214   5.578  11.761  0.3406 -1.0981  0.4368
16120TIP3    H269776   4.365   5.581  11.780  0.2918 -0.6950  0.7680
16121TIP3   OH269777   0.616   5.879  12.678  0.0727  0.0785 -0.6766
16121TIP3    H169778   0.557   5.818  12.635 -0.4195 -2.3368  2.9240
16121TIP3    H269779   0.691   5.825  12.705  0.3552  1.3676  1.3471
16122TIP3   OH269780   4.607   0.701   5.585 -0.2148 -0.4396 -0.2624
16122TIP3    H169781   4.663   0.734   5.655 -1.1300 -0.6807  0.6051
16122TIP3    H269782   4.542   0.770   5.572 -0.6524 -0.8302 -0.1599
16123TIP3   OH269783   2.420   2.831   0.308  0.4082 -0.3189 -0.1430
16123TIP3    H169784   2.381   2.862   0.227  0.1658 -0.2813 -0.0129
16123TIP3    H269785   2.360   2.861   0.377  0.4309 -0.6471  0.0226
16124TIP3   OH269786   0.228   3.236  10.517  0.5502 -0.0316  0.5745
16124TIP3    H169787   0.262   3.189  10.594 -0.2970  1.1207  1.6989
16124TIP3    H269788   0.143   3.269  10.545  0.6640  1.2758 -0.5326
16125TIP3   OH269789   3.569   1.058  13.920 -0.0022  0.1574 -0.2201
16125TIP3    H169790   3.632   1.083  13.852  1.1776  1.8023  1.3674
16125TIP3    H269791   3.617   0.997  13.976 -1.0586 -1.4211 -0.9859
16126TIP3   OH269792   1.784   1.454   1.712  0.1378 -0.1267 -0.4696
16126TIP3    H169793   1.729   1.532   1.714 -0.4431 -0.5222 -0.7363
16126TIP3    H269794   1.848   1.468   1.782 -0.6576  0.0742  0.2297
16127TIP3   OH269795   6.386   3.145   0.141 -0.5575 -0.6917  0.1554
16127TIP3    H169796   6.316   3.157   0.205  0.0721 -0.2734  0.7754
16127TIP3    H269797   6.365   3.205   0.070 -1.1766 -1.0462  0.0341
16128TIP3   OH269798   2.645   1.644  15.430  0.2935 -0.0601 -0.6125
16128TIP3    H169799   2.739   1.644  15.445  0.2245 -0.3733 -0.1369
16128TIP3    H269800   2.613   1.569  15.481 -0.3947  0.9224  0.4372
16129TIP3   OH269801   4.388   5.446  16.565 -0.6993 -0.4679 -0.2809
16129TIP3    H169802   4.424   5.411  16.646  1.5476 -0.8544 -1.3638
16129TIP3    H269803   4.333   5.519  16.592  0.1698 -0.4479  1.5775
16130TIP3   OH269804   3.445   1.063   5.438 -0.1921  0.3443 -0.4812
16130TIP3    H169805   3.536   1.080   5.414 -1.1942  1.7969 -4.0598
16130TIP3    H269806   3.413   1.006   5.368 -1.9576 -0.4388  0.9012
16131TIP3   OH269807   6.511   3.059  12.059  0.4622 -0.1029 -0.2742
16131TIP3    H169808   6.523   3.070  12.153  1.2616 -0.5468 -0.3128
16131TIP3    H269809   6.444   2.992  12.050  1.1088 -0.7995 -0.0066
16132TIP3   OH269810   3.689   4.493   5.071 -0.8320  0.0987  0.1459
16132TIP3    H169811   3.689   4.541   5.154  0.2272 -1.0821  0.8735
16132TIP3    H269812   3.614   4.434   5.077 -0.9445  0.2414  0.1305
16133TIP3   OH269813   3.480   0.517   1.765  0.1391 -0.4331 -0.6240
16133TIP3    H169814   3.561   0.533   1.716  1.8439  0.5440  2.2311
16133TIP3    H269815   3.465   0.423   1.756  1.9520 -0.7537 -0.7878
16134TIP3   OH269816   2.997   6.147  13.325 -0.0514 -0.2274  0.0455
16134TIP3    H169817   3.018   6.111  13.239  3.5018 -0.3961  0.8168
16134TIP3    H269818   2.969   6.237  13.308  1.4892  0.0450 -1.2985
16135TIP3   OH269819   5.599   5.234  12.443  0.1193 -0.6346  0.5178
16135TIP3    H169820   5.666   5.190  12.391 -0.1947 -1.0337  0.4458
16135TIP3    H269821   5.576   5.171  12.511  0.9800  0.1172  1.5391
16136TIP3   OH269822   5.046   2.037   5.285 -0.0825 -0.3976 -0.1824
16136TIP3    H169823   5.022   1.944   5.285  0.9287 -0.6917  0.9846
16136TIP3    H269824   5.132   2.040   5.242 -0.7614  0.2158 -1.5440
16137TIP3   OH269825   5.512   5.702   1.308 -0.2232  0.3333  0.0146
16137TIP3    H169826   5.510   5.766   1.379  2.2043 -0.7920  1.2026
16137TIP3    H269827   5.524   5.755   1.229  0.6135  1.4111  0.8304
16138TIP3   OH269828   4.761   6.076   3.505 -0.3041  0.0458  0.4483
16138TIP3    H169829   4.804   6.006   3.555 -3.5296 -2.5399 -0.0304
16138TIP3    H269830   4.747   6.145   3.569  1.2413 -0.5277  1.4774
16139TIP3   OH269831   0.085   5.069  16.349  0.5257 -0.3779 -0.2109
16139TIP3    H169832   0.028   5.107  16.416  0.1587  0.1259 -0.8043
16139TIP3    H269833   0.173   5.097  16.373  0.3156  0.3995 -0.3449
16140TIP3   OH269834   4.379   0.504  13.864 -0.1957  0.4461 -0.1196
16140TIP3    H169835   4.302   0.547  13.902  0.3578  0.5554  0.9251
16140TIP3    H269836   4.347   0.465  13.783 -1.3858  0.3747  0.3534
16141TIP3   OH269837   1.468   6.191  11.495 -0.0432  0.1860 -0.2601
16141TIP3    H169838   1.554   6.182  11.535 -0.6721 -0.8478  0.9219
16141TIP3    H269839   1.484   6.182  11.401  1.1166 -0.1492 -0.0437
16142TIP3   OH269840   0.047   5.816  15.238 -0.5411  0.0688 -0.6281
16142TIP3    H169841  -0.030   5.761  15.250 -0.0369 -0.2767  1.4293
16142TIP3    H269842   0.047   5.874  15.314  1.9595 -0.8902  0.1814
16143TIP3   OH269843   6.074   5.326  11.700 -0.0951  0.9437 -0.3613
16143TIP3    H169844   6.139   5.372  11.648  0.1982  1.0280  0.0725
16143TIP3    H269845   5.997   5.383  11.701 -0.5868  0.3689 -1.7802
16144TIP3   OH269846   6.493   3.638   4.570 -0.2325 -0.1096  0.9858
16144TIP3    H169847   6.498   3.723   4.527 -2.1105 -0.2841  0.3170
16144TIP3    H269848   6.430   3.650   4.641  1.5325 -0.2792  2.6750
16145TIP3   OH269849   4.575   4.012   4.770 -0.0502  0.0061 -0.1120
16145TIP3    H169850   4.496   4.059   4.744 -0.0000  0.2174  0.1131
16145TIP3    H269851   4.554   3.920   4.756 -0.1017  0.1055 -0.6791
16146TIP3   OH269852   4.550   2.370  15.580  0.2387 -0.5789 -0.1779
16146TIP3    H169853   4.467   2.355  15.534  0.3618  1.1978 -1.0956
16146TIP3    H269854   4.567   2.464  15.568  2.7610 -1.0275 -0.6770
16147TIP3   OH269855   4.407   2.611  11.445 -0.4546  0.1690 -0.2255
16147TIP3    H169856   4.345   2.575  11.509  1.1180 -0.6388  0.9086
16147TIP3    H269857   4.365   2.597  11.360 -1.8185 -0.3311  0.5034
16148TIP3   OH269858   4.910   6.360  14.522 -0.0196 -0.1659 -0.9159
16148TIP3    H169859   5.005   6.353  14.529  0.0516 -1.1946 -2.4527
16148TIP3    H269860   4.891   6.337  14.431 -1.6494  1.1480 -0.9637
16149TIP3   OH269861   2.578   5.090  17.037  0.2550  0.1030  0.1014
16149TIP3    H169862   2.603   5.147  17.109  0.0346 -0.0107  0.2703
16149TIP3    H269863   2.492   5.123  17.010 -0.4929 -0.9657  1.0756
16150TIP3   OH269864   2.105   4.350   6.158 -0.3444  0.4370  0.0461
16150TIP3    H169865   2.061   4.391   6.084 -0.6042  0.7266  0.3513
16150TIP3    H269866   2.155   4.422   6.198 -0.3089  0.3137  0.2241
16151TIP3   OH269867   0.791   6.150   5.149 -0.2297  0.2871  0.8254
16151TIP3    H169868   0.817   6.062   5.175  1.9448  1.1592  1.9014
16151TIP3    H269869   0.706   6.139   5.107 -0.7193 -2.1059  2.2741
16152TIP3   OH269870   0.413   5.570  12.148  0.7280  0.0155 -0.4408
16152TIP3    H169871   0.476   5.606  12.211  1.7219  0.2239 -1.5230
16152TIP3    H269872   0.420   5.475  12.159 -0.7383  0.0544  1.2983
16153TIP3   OH269873   4.801   3.241   5.681  0.5750  0.2469  0.3480
16153TIP3    H169874   4.771   3.330   5.696 -2.6586 -0.4819 -1.0131
16153TIP3    H269875   4.730   3.186   5.715  0.2476 -1.6549 -3.0405
16154TIP3   OH269876   2.717   0.379   0.748  0.2603 -0.5914 -0.5544
16154TIP3    H169877   2.691   0.377   0.840 -0.2024  1.7978 -0.5430
16154TIP3    H269878   2.800   0.427   0.747  0.4176 -0.8608 -1.3545
16155TIP3   OH269879   2.370   1.882   3.092 -0.4856  0.5289 -0.1060
16155TIP3    H169880   2.344   1.913   3.005 -0.7866  0.7164  0.0516
16155TIP3    H269881   2.451   1.929   3.111 -0.1447  0.1126 -0.4988
16156TIP3   OH269882   2.824   6.611  12.046  0.5637 -0.3408 -0.3675
16156TIP3    H169883   2.863   6.524  12.047  1.1838 -0.1051 -2.1367
16156TIP3    H269884   2.749   6.603  12.105  0.2411 -2.2442 -0.9633
16157TIP3   OH269885   5.499   0.541   5.265  0.4434  0.3249 -0.2207
16157TIP3    H169886   5.514   0.523   5.357 -1.2414 -1.2328 -0.1968
16157TIP3    H269887   5.534   0.464   5.220 -1.4522 -0.3509 -0.6134
16158TIP3   OH269888   2.865   2.066  13.514  0.0537  0.2390 -0.0121
16158TIP3    H169889   2.864   2.108  13.428  0.6765 -1.3916 -0.8588
16158TIP3    H269890   2.953   2.030  13.523 -0.7487 -1.8190  0.1683
16159TIP3   OH269891   3.455   4.858   1.179 -0.8618  0.3104  0.3176
16159TIP3    H169892   3.472   4.903   1.096  1.0926  0.5682  0.7919
16159TIP3    H269893   3.428   4.770   1.154 -0.8659  0.5613 -0.5951
16160TIP3   OH269894   1.135   6.594  15.670 -0.0242 -0.3728 -0.1018
16160TIP3    H169895   1.201   6.605  15.602 -0.2700 -0.6241 -0.3827
16160TIP3    H269896   1.057   6.640  15.637 -0.0649 -0.2803  0.1210
16161TIP3   OH269897   2.782   6.346   5.163  0.5564 -0.0371  0.3371
16161TIP3    H169898   2.858   6.324   5.218  1.0157  0.0787 -0.2478
16161TIP3    H269899   2.783   6.281   5.093 -1.3673 -1.6576  1.6719
16162TIP3   OH269900   1.741   5.643   2.032 -0.0507  0.3271  0.6251
16162TIP3    H169901   1.711   5.713   1.974  0.2524 -1.3898 -1.7558
16162TIP3    H269902   1.744   5.565   1.976  0.4100 -1.4376  2.9447
16163TIP3   OH269903   2.331   2.544   4.788  0.1066 -0.5472 -0.1913
16163TIP3    H169904   2.375   2.502   4.862 -1.1855 -0.8774  0.4349
16163TIP3    H269905   2.315   2.473   4.726  0.7085 -0.3713 -0.5548
16164TIP3   OH269906   4.933   0.567   4.838 -0.0645 -0.5039  0.1679
16164TIP3    H169907   4.954   0.603   4.925 -0.0040  0.1812 -0.1297
16164TIP3    H269908   4.971   0.629   4.776 -1.3476 -0.2266 -0.3683
16165TIP3   OH269909   5.994   5.186  12.434  0.5436  0.4945 -0.2934
16165TIP3    H169910   5.976   5.218  12.346  1.1527  0.5639 -0.3972
16165TIP3    H269911   6.071   5.236  12.462 -0.3338  1.3081  0.7237
16166TIP3   OH269912   1.092   5.685   2.262  0.1719 -0.2643  0.3968
16166TIP3    H169913   1.120   5.626   2.193 -1.0394  0.0309 -0.3925
16166TIP3    H269914   1.052   5.628   2.328  0.2847 -0.4475  0.3060
16167TIP3   OH269915   4.126   2.413  15.197  0.2789  0.3496  0.5720
16167TIP3    H169916   4.032   2.430  15.202  0.0805 -0.5595  0.0866
16167TIP3    H269917   4.165   2.499  15.180 -0.5278  0.6241  0.0449
16168TIP3   OH269918   1.091   3.043  12.574 -0.5966  0.3370 -0.1675
16168TIP3    H169919   1.001   3.013  12.563  0.5839 -3.1904 -2.0577
16168TIP3    H269920   1.118   3.070  12.486  0.9866 -1.7393 -0.4211
16169TIP3   OH269921   2.502   3.647   0.678 -0.1698 -0.5723  0.0719
16169TIP3    H169922   2.579   3.700   0.655 -0.8890 -0.2472 -1.7636
16169TIP3    H269923   2.521   3.560   0.643 -0.6673 -0.4699 -0.4605
16170TIP3   OH269924   3.902   0.500   3.779  0.0018 -0.3986  0.2838
16170TIP3    H169925   3.964   0.444   3.732 -1.5707 -1.4785 -0.5971
16170TIP3    H269926   3.819   0.454   3.772 -1.0992  1.4526  0.6396
16171TIP3   OH269927   3.381   0.833  14.409 -0.9100 -0.5295  0.6730
16171TIP3    H169928   3.447   0.868  14.349 -1.4678 -0.8320 -0.1244
16171TIP3    H269929   3.387   0.738  14.398 -1.6358 -0.5528  0.4178
16172TIP3   OH269930   6.599   6.746  15.492 -0.0330 -0.2021  0.3317
16172TIP3    H169931   6.509   6.777  15.495  0.2134  0.4703  1.2235
16172TIP3    H269932   6.594   6.655  15.523 -0.4620 -0.3467 -0.1454
16173TIP3   OH269933   3.195   4.242  13.693  0.6342  0.4839  0.3046
16173TIP3    H169934   3.198   4.192  13.611  2.6793  0.1995  0.4772
16173TIP3    H269935   3.118   4.297  13.686 -1.4970 -2.3280 -0.1244
16174TIP3   OH269936   0.488   6.199  14.679 -0.4591  0.0158 -0.4369
16174TIP3    H169937   0.544   6.170  14.751 -0.0986  1.9907  0.1561
16174TIP3    H269938   0.436   6.270  14.716 -2.8978 -1.2791 -1.1910
16175TIP3   OH269939   6.566   1.077   3.141  0.0569 -0.4532  0.0006
16175TIP3    H169940   6.526   1.074   3.054 -0.1347  0.3893  0.0516
16175TIP3    H269941   6.660   1.084   3.123  0.0735 -0.9464 -0.1282
16176TIP3   OH269942   1.762   4.708  12.245 -0.0217  0.2136 -0.1406
16176TIP3    H169943   1.806   4.626  12.266 -0.7378  0.1237  1.1014
16176TIP3    H269944   1.730   4.696  12.155 -1.0148 -1.2888  0.3731
16177TIP3   OH269945   6.342   6.696   0.983  0.3137 -0.2551  0.1081
16177TIP3    H169946   6.369   6.786   0.998 -0.7952  0.1937 -0.4339
16177TIP3    H269947   6.416   6.656   0.937  0.7076  0.4582  0.1067
16178TIP3   OH269948   3.205   6.073   5.263  0.3394 -0.8446 -0.1201
16178TIP3    H169949   3.279   6.108   5.214  1.0405  1.7131  2.4475
16178TIP3    H269950   3.245   6.023   5.334 -0.3932 -0.2590  0.7257
16179TIP3   OH269951   5.771   5.558   5.679 -0.0836 -0.0625  0.3398
16179TIP3    H169952   5.690   5.539   5.632  0.0116 -0.4206  0.3148
16179TIP3    H269953   5.840   5.526   5.621 -0.0023 -1.2472  1.0636
16180TIP3   OH269954   6.671   2.036  11.376 -0.7314  0.2668 -0.1716
16180TIP3    H169955   6.594   2.062  11.426 -0.7998  2.1642 -1.1675
16180TIP3    H269956   6.736   2.104  11.395  1.6224 -2.4375  2.4417
16181TIP3   OH269957   4.663   4.431   2.437 -0.5499  0.0137 -0.2473
16181TIP3    H169958   4.691   4.441   2.528  0.1493 -1.9936 -0.2024
16181TIP3    H269959   4.735   4.384   2.394 -2.0606 -1.6360 -1.1203
16182TIP3   OH269960   0.250   6.708   0.700 -0.0903  0.1840  0.2089
16182TIP3    H169961   0.302   6.769   0.649 -1.6930  2.1277  0.7782
16182TIP3    H269962   0.283   6.717   0.789 -0.0284 -0.1336  0.2189
16183TIP3   OH269963   2.686   4.167   4.176 -0.2880 -0.1860  0.3342
16183TIP3    H169964   2.716   4.082   4.145 -1.0174 -0.2045 -0.3747
16183TIP3    H269965   2.736   4.184   4.256 -0.8468 -1.7380  1.0442
16184TIP3   OH269966   0.997   6.000   2.560  0.4252  0.5344 -0.0147
16184TIP3    H169967   1.051   6.030   2.487 -0.1366  1.0197 -0.2354
16184TIP3    H269968   0.988   5.906   2.545 -1.1497  0.8891 -1.5747
16185TIP3   OH269969   3.313   2.030  16.573 -1.1341 -0.4381 -0.7050
16185TIP3    H169970   3.327   2.011  16.665 -1.8446  0.1398 -0.4729
16185TIP3    H269971   3.402   2.041  16.537 -0.8837  0.0846  0.0643
16186TIP3   OH269972   3.849   1.241   4.899 -0.6934  0.8411  0.0513
16186TIP3    H169973   3.938   1.209   4.888 -1.0311 -0.2361  0.3143
16186TIP3    H269974   3.830   1.290   4.819 -0.0287  0.6939 -0.1980
16187TIP3   OH269975   5.233   3.941  16.567 -0.5056  0.2332  0.3978
16187TIP3    H169976   5.257   4.002  16.498 -1.8120  1.7818  1.2389
16187TIP3    H269977   5.315   3.897  16.590  0.2510  0.8449 -0.9983
16188TIP3   OH269978   6.484   5.513   4.376 -0.0198 -0.1546 -0.3664
16188TIP3    H169979   6.443   5.581   4.430 -1.6315  0.2688 -2.0501
16188TIP3    H269980   6.412   5.457   4.348  0.8337 -0.6052 -1.7345
16189TIP3   OH269981   3.426   6.424   3.273  0.5373 -0.3818  0.1293
16189TIP3    H169982   3.476   6.352   3.234 -0.7340 -1.5624  0.6028
16189TIP3    H269983   3.338   6.415   3.237  0.3300  0.9105  0.2590
16190TIP3   OH269984   0.773   2.876   3.352 -0.2091  0.0853 -0.4178
16190TIP3    H169985   0.765   2.799   3.408  0.7513  1.2065  1.3440
16190TIP3    H269986   0.775   2.950   3.413  2.4135  1.2670 -1.7812
16191TIP3   OH269987   5.100   6.242   2.479  0.2327 -0.2901  0.2960
16191TIP3    H169988   5.076   6.274   2.566 -0.6894 -1.2990  0.4275
16191TIP3    H269989   5.028   6.271   2.422  0.2480 -0.6461  0.0947
16192TIP3   OH269990   6.258   2.605  11.923  0.2918 -0.1202 -0.1538
16192TIP3    H169991   6.251   2.602  12.019  0.4038 -0.8142 -0.1651
16192TIP3    H269992   6.349   2.627  11.906  0.1992  0.3225 -0.1040
16193TIP3   OH269993   1.128   1.564   5.979 -0.0175  0.5454  0.2768
16193TIP3    H169994   1.115   1.608   5.895  0.5252 -0.1412 -0.1849
16193TIP3    H269995   1.131   1.634   6.044  0.8260  1.1932 -0.4397
16194TIP3   OH269996   6.268   4.964   1.895  0.7783  0.0630 -0.2753
16194TIP3    H169997   6.300   5.036   1.839  0.0272  0.3036 -0.4094
16194TIP3    H269998   6.329   4.892   1.878 -0.3081 -0.3933 -2.6349
16195TIP3   OH269999   1.891   4.919   4.831  0.1333  0.5661 -0.1977
16195TIP3    H170000   1.979   4.916   4.793 -0.4933  1.6687 -1.8399
16195TIP3    H270001   1.837   4.957   4.763 -1.9837 -1.5803  0.1483
16196TIP3   OH270002   6.553   4.641  12.759  0.0186  0.0259 -0.0590
16196TIP3    H170003   6.646   4.632  12.783 -0.0059  0.3176  0.1533
16196TIP3    H270004   6.554   4.691  12.677  0.1052 -1.0104 -0.6995
16197TIP3   OH270005   0.346   1.626  13.370  0.0435  0.0425 -0.3627
16197TIP3    H170006   0.411   1.557  13.377 -1.3445 -1.1791  2.4953
16197TIP3    H270007   0.377   1.694  13.430 -0.5671  0.0925 -0.0933
16198TIP3   OH270008   5.549   0.512  13.693 -0.2254  0.0154 -0.2260
16198TIP3    H170009   5.515   0.593  13.655  0.4659 -0.7089 -2.5686
16198TIP3    H270010   5.567   0.456  13.617  0.7269 -1.7720  1.2456
16199TIP3   OH270011   3.415   3.063   2.178  0.1452  0.1398  0.3406
16199TIP3    H170012   3.435   3.154   2.198  1.9256 -0.2623  0.5877
16199TIP3    H270013   3.330   3.066   2.134 -1.3887  1.5814  3.1755
16200TIP3   OH270014   3.690   6.613   0.007 -0.2132  0.1714  0.2925
16200TIP3    H170015   3.597   6.594  -0.005  0.0374 -0.0188 -1.7097
16200TIP3    H270016   3.698   6.640   0.098 -2.0001 -1.1104  0.8773
16201TIP3   OH270017   3.091   6.145  13.869  0.2698  0.2207 -0.4871
16201TIP3    H170018   3.136   6.073  13.912  1.2608  0.4764 -1.0861
16201TIP3    H270019   3.004   6.145  13.909  0.5636 -0.7044  0.1912
16202TIP3   OH270020   5.758   6.527  13.045 -0.0609 -0.2797 -0.5549
16202TIP3    H170021   5.839   6.569  13.014 -1.1450  2.1594 -0.2953
16202TIP3    H270022   5.747   6.559  13.134 -1.2299 -0.7257 -0.5311
16203TIP3   OH270023   1.448   3.320   1.027 -0.1000  0.2357  0.2817
16203TIP3    H170024   1.395   3.241   1.014 -0.5201  0.6880 -0.8412
16203TIP3    H270025   1.539   3.291   1.016 -0.2163 -0.1870  0.4308
16204TIP3   OH270026   0.155   4.661  15.367 -0.3028 -0.3929  0.5869
16204TIP3    H170027   0.131   4.701  15.283  1.3378  1.5923  1.0060
16204TIP3    H270028   0.091   4.591  15.379 -0.4441 -0.8991 -2.4228
16205TIP3   OH270029   1.182   2.488  14.056  0.0989  0.2494  0.3040
16205TIP3    H170030   1.233   2.566  14.079  0.0268  0.7523 -1.1931
16205TIP3    H270031   1.241   2.415  14.076  0.6443  0.7340  0.5067
16206TIP3   OH270032   6.306   3.412  14.050  0.1829 -0.3924 -0.1884
16206TIP3    H170033   6.397   3.402  14.025  0.3644 -1.0117  0.6637
16206TIP3    H270034   6.260   3.340  14.006 -0.3030  1.1690 -2.3852
16207TIP3   OH270035   4.282   1.411  16.817  0.2015 -0.0008 -0.4423
16207TIP3    H170036   4.373   1.404  16.846  0.6954  1.1612 -1.6264
16207TIP3    H270037   4.277   1.354  16.740  0.2934  0.9376 -1.1580
16208TIP3   OH270038   0.544   4.014   1.329 -0.5910  0.0361 -0.3790
16208TIP3    H170039   0.524   3.923   1.347 -1.1326 -0.0105 -1.1848
16208TIP3    H270040   0.465   4.062   1.355 -0.2921  0.2908  0.0897
16209TIP3   OH270041   3.158   4.072   0.864 -0.6722  0.1413 -0.0997
16209TIP3    H170042   3.079   4.020   0.845  0.3154 -2.0868  1.5177
16209TIP3    H270043   3.133   4.127   0.938 -0.2663 -1.8600  1.5983
16210TIP3   OH270044   1.999   2.002  10.243  0.4069 -0.2215 -0.6740
16210TIP3    H170045   2.064   2.024  10.310 -1.5438  1.4265  0.8118
16210TIP3    H270046   2.000   1.907  10.239 -0.4534 -0.5728  2.9823
16211TIP3   OH270047   2.460   4.737   2.311  0.1755  0.1030  0.1394
16211TIP3    H170048   2.461   4.790   2.232  0.1125  1.6758  1.1574
16211TIP3    H270049   2.538   4.681   2.303 -0.0953 -0.1106 -1.2346
16212TIP3   OH270050   6.132   0.784  10.659 -0.2606 -0.5492 -0.2962
16212TIP3    H170051   6.089   0.727  10.723 -0.9498  0.7681  0.4577
16212TIP3    H270052   6.190   0.838  10.712  1.3687 -1.3918 -1.1548
16213TIP3   OH270053   2.274   1.224  11.797  0.0173 -0.1648 -0.2410
16213TIP3    H170054   2.340   1.155  11.802 -0.0040 -0.2853 -1.3527
16213TIP3    H270055   2.204   1.186  11.745 -0.6393  0.2044  0.3563
16214TIP3   OH270056   0.039   5.944  11.459  0.1850  0.0617  0.0839
16214TIP3    H170057   0.045   5.848  11.462 -0.3938 -0.0236 -0.9744
16214TIP3    H270058  -0.012   5.967  11.536  0.9236 -0.4264  0.7246
16215TIP3   OH270059   4.002   5.892  15.383 -0.2910 -0.2287 -0.3669
16215TIP3    H170060   4.000   5.985  15.406  0.4923 -0.1823 -0.4782
16215TIP3    H270061   4.080   5.882  15.328  2.2695 -1.7734  3.1476
16216TIP3   OH270062   0.071   2.295   4.144 -0.6574 -0.2947  0.6227
16216TIP3    H170063  -0.001   2.321   4.086 -0.0235 -0.7296 -0.3810
16216TIP3    H270064   0.088   2.203   4.123  2.3503  0.6205 -1.5755
16217TIP3   OH270065   5.050   6.618   6.016 -0.3932  0.0483  0.8167
16217TIP3    H170066   4.961   6.644   6.038 -0.6291 -0.3438  0.3735
16217TIP3    H270067   5.041   6.528   5.983  0.5076 -1.0066  3.2074
16218TIP3   OH270068   1.451   1.621  11.542 -0.4792  0.1264 -0.0572
16218TIP3    H170069   1.529   1.654  11.588  0.8553 -1.9227 -0.6994
16218TIP3    H270070   1.389   1.693  11.545  0.3949  0.8997  2.9243
16219TIP3   OH270071   3.324   3.057  13.357 -0.2924 -0.0582 -0.3144
16219TIP3    H170072   3.331   2.963  13.371 -0.0507  0.0758  0.5717
16219TIP3    H270073   3.320   3.068  13.262 -2.8539 -1.1088 -0.3868
16220TIP3   OH270074   0.353   4.068   2.443  0.2342  0.1033 -0.0535
16220TIP3    H170075   0.300   3.994   2.473  0.4431 -1.5785 -3.4303
16220TIP3    H270076   0.440   4.031   2.429  1.2388  1.8270  1.2612
16221TIP3   OH270077   6.478   5.634   0.049 -0.0914  0.0918  0.2537
16221TIP3    H170078   6.502   5.720   0.014  0.3178 -1.1840 -2.9916
16221TIP3    H270079   6.382   5.634   0.049 -0.1194  0.9093  1.4556
16222TIP3   OH270080   1.949   3.705  13.114  0.2238  0.3397 -0.1563
16222TIP3    H170081   1.973   3.726  13.024  2.2762  0.3619  0.3442
16222TIP3    H270082   2.032   3.683  13.156 -0.7946 -0.4974  1.5227
16223TIP3   OH270083   1.441   1.703   5.784  0.3902 -0.1808 -0.1161
16223TIP3    H170084   1.427   1.621   5.737  1.0363 -0.2282 -0.2428
16223TIP3    H270085   1.504   1.682   5.852 -0.0922  0.0260  0.4043
16224TIP3   OH270086   1.129   0.175   4.243 -0.1212 -1.4662  0.7436
16224TIP3    H170087   1.204   0.216   4.286 -1.1197  0.2851  0.9018
16224TIP3    H270088   1.168   0.124   4.172  1.1843  0.6680 -0.1877
16225TIP3   OH270089   2.368   1.174  10.837  0.2526  0.4550  0.0311
16225TIP3    H170090   2.352   1.191  10.744 -1.2660  0.6484  0.2993
16225TIP3    H270091   2.322   1.245  10.883  1.9761  1.0563  0.9296
16226TIP3   OH270092   1.363   6.225  14.791  0.6994  0.2958 -0.1944
16226TIP3    H170093   1.357   6.320  14.780 -1.3035  0.2508  0.0637
16226TIP3    H270094   1.330   6.208  14.880  3.3180 -0.4893  0.7204
16227TIP3   OH270095   3.554   5.985  13.151 -0.3573 -0.1867 -0.6295
16227TIP3    H170096   3.486   6.025  13.096  0.2302  0.9248 -0.5787
16227TIP3    H270097   3.599   5.924  13.093 -2.4995 -2.3333 -0.2175
16228TIP3   OH270098   4.132   3.371   5.524 -0.1966 -0.0950  0.7232
16228TIP3    H170099   4.053   3.425   5.528 -0.1862 -0.1180  1.2289
16228TIP3    H270100   4.201   3.433   5.499  0.2468  0.6277  3.4426
16229TIP3   OH270101   3.609   0.697   1.456  0.2632  0.4121 -0.2439
16229TIP3    H170102   3.671   0.639   1.500 -0.8929 -0.4785  0.2610
16229TIP3    H270103   3.657   0.730   1.380  0.5297 -2.2735 -1.3450
16230TIP3   OH270104   4.308   3.895   0.876  0.0390  0.1177 -0.1266
16230TIP3    H170105   4.335   3.804   0.861 -2.2136 -0.4140 -1.5251
16230TIP3    H270106   4.378   3.947   0.837  2.2257 -0.8848  2.1945
16231TIP3   OH270107   5.917   2.830  16.593 -0.6441  0.5076 -0.4070
16231TIP3    H170108   5.918   2.915  16.638  1.4965  0.7744 -0.8562
16231TIP3    H270109   6.003   2.824  16.551 -0.0727 -2.5981  0.9365
16232TIP3   OH270110   3.996   1.278   5.951 -0.4962 -0.2764 -0.1119
16232TIP3    H170111   3.987   1.330   6.031 -3.9437  1.2569 -1.2718
16232TIP3    H270112   3.989   1.187   5.980 -1.4436  0.2364  1.3735
16233TIP3   OH270113   3.785   3.382   6.213 -0.9628  0.2463  0.7174
16233TIP3    H170114   3.857   3.430   6.252 -1.7925  1.9434  0.2840
16233TIP3    H270115   3.822   3.299   6.186  0.9351  1.2273  0.1506
16234TIP3   OH270116   4.440   4.292   1.312  0.0459  0.3427 -0.4116
16234TIP3    H170117   4.403   4.270   1.226 -2.5029  3.5078 -0.3342
16234TIP3    H270118   4.373   4.265   1.375  0.3311  1.0928  0.2393
16235TIP3   OH270119   4.514   3.999   2.954  0.3160  0.1009  0.3720
16235TIP3    H170120   4.563   3.931   3.001 -0.5896 -1.3283 -0.6583
16235TIP3    H270121   4.460   4.040   3.022  1.1669  0.0748  1.0806
16236TIP3   OH270122   3.320   5.410   3.705  0.3037  0.4412  0.3408
16236TIP3    H170123   3.393   5.389   3.763 -0.1089  2.9895  1.9478
16236TIP3    H270124   3.323   5.505   3.696 -0.6471  0.2966 -2.5908
16237TIP3   OH270125   0.538   5.888   3.845 -0.0068  0.6320 -0.2291
16237TIP3    H170126   0.611   5.869   3.903 -0.1833  0.8936  0.0807
16237TIP3    H270127   0.551   5.829   3.770 -0.0106 -0.0091  0.2638
16238TIP3   OH270128   2.644   0.820  15.788 -0.0716  0.4497 -0.5036
16238TIP3    H170129   2.674   0.748  15.844  0.9511  1.1671 -0.1006
16238TIP3    H270130   2.687   0.805  15.704 -0.0760  0.4525 -0.5067
16239TIP3   OH270131   5.762   1.976   1.357 -0.8270 -0.2826 -0.2330
16239TIP3    H170132   5.709   1.961   1.435 -1.3605 -2.6275 -0.9753
16239TIP3    H270133   5.732   1.911   1.294  0.8846  0.2994 -1.7637
16240TIP3   OH270134   4.722   4.616   5.345  0.4847  0.4489  0.3797
16240TIP3    H170135   4.759   4.533   5.376 -0.4145  0.2997  1.0905
16240TIP3    H270136   4.673   4.650   5.420 -1.7851  0.0606 -0.8465
16241TIP3   OH270137   1.689   0.218   5.917 -0.1184 -0.1775 -0.1520
16241TIP3    H170138   1.624   0.175   5.862 -0.7130  0.3036  0.1572
16241TIP3    H270139   1.712   0.152   5.983  0.4060 -0.6645 -0.8019
16242TIP3   OH270140   2.257   1.808  13.880 -0.1082 -0.3668  0.1574
16242TIP3    H170141   2.192   1.831  13.814 -0.0329 -1.9260 -0.5001
16242TIP3    H270142   2.206   1.797  13.961 -0.7310 -1.7156 -0.3793
16243TIP3   OH270143   5.764   4.567   6.090  0.1428 -0.1111  0.7246
16243TIP3    H170144   5.784   4.518   6.010  0.4712  2.0063 -0.5564
16243TIP3    H270145   5.846   4.568   6.139  0.0224 -1.1580  0.9678
16244TIP3   OH270146   0.747   0.228  15.172  0.2069 -0.7159  0.0870
16244TIP3    H170147   0.723   0.250  15.081  1.0952 -0.9064 -0.2055
16244TIP3    H270148   0.739   0.133  15.176  1.2067 -0.8222 -0.1187
16245TIP3   OH270149   0.226   4.108  13.871 -0.4542  0.1390 -0.2816
16245TIP3    H170150   0.247   4.094  13.963 -1.0583 -0.0821 -0.1729
16245TIP3    H270151   0.311   4.110  13.827 -0.2123 -1.5563  0.0252
16246TIP3   OH270152   2.428   3.522  11.191  0.2285 -0.1806 -0.1682
16246TIP3    H170153   2.346   3.505  11.238 -0.5738  2.6102 -0.4016
16246TIP3    H270154   2.496   3.485  11.248 -1.0863 -2.0830  0.2819
16247TIP3   OH270155   3.656   0.102  15.533  0.2693  0.0639  0.9351
16247TIP3    H170156   3.568   0.135  15.516 -0.3335 -1.9222 -0.1620
16247TIP3    H270157   3.713   0.178  15.523 -1.2143  1.1807  0.6702
16248TIP3   OH270158   1.283   3.206  11.443  0.1771  0.2431  0.6830
16248TIP3    H170159   1.366   3.226  11.400  0.3565 -1.6521  0.0282
16248TIP3    H270160   1.226   3.279  11.422  1.0261  0.5402 -0.7121
16249TIP3   OH270161   4.334   6.227  10.835  0.6011  0.5743 -0.1488
16249TIP3    H170162   4.358   6.203  10.924  0.5927  0.2060 -0.2461
16249TIP3    H270163   4.338   6.145  10.786  1.6407  0.9459 -0.7112
16250TIP3   OH270164   5.343   6.235  17.026 -0.2656  0.2038 -0.5374
16250TIP3    H170165   5.388   6.151  17.028  1.4560  1.0299 -1.9390
16250TIP3    H270166   5.271   6.222  16.964 -1.8202 -0.9932  1.3871
16251TIP3   OH270167   6.031   0.939  14.629  0.7386 -0.1635  0.2918
16251TIP3    H170168   6.008   0.929  14.721  1.9174 -0.4914  0.5674
16251TIP3    H270169   5.997   1.025  14.605 -1.0398 -0.7540  0.5582
16252TIP3   OH270170   2.342   0.613  12.736  0.1618 -0.1986  0.4615
16252TIP3    H170171   2.263   0.665  12.751 -1.0699 -1.8446 -0.0750
16252TIP3    H270172   2.374   0.593  12.823 -0.7721 -0.5913  0.7314
16253TIP3   OH270173   4.097   4.874  16.073 -0.5194 -0.0944 -0.0557
16253TIP3    H170174   4.014   4.827  16.080 -1.2315  0.5473 -2.8956
16253TIP3    H270175   4.075   4.964  16.096 -0.5912  0.0268 -0.5744
16254TIP3   OH270176   0.482   5.199   6.399 -0.1538  0.2030  0.0828
16254TIP3    H170177   0.409   5.202   6.338 -0.3355  0.7151  0.3187
16254TIP3    H270178   0.560   5.202   6.344 -0.3091 -0.1390 -0.1594
16255TIP3   OH270179   1.738   0.822  15.544 -0.6098 -0.0240  0.1153
16255TIP3    H170180   1.723   0.792  15.455 -0.6431  2.6522 -0.8667
16255TIP3    H270181   1.762   0.914  15.535 -0.9096  0.4247  2.9111
16256TIP3   OH270182   0.069   6.566   0.181  0.0811 -0.7160 -0.1660
16256TIP3    H170183   0.065   6.483   0.228  2.0029 -0.2204  1.0081
16256TIP3    H270184  -0.010   6.567   0.127 -1.5214 -1.9619  1.9950
16257TIP3   OH270185   3.311   0.052   0.408 -1.1930  0.1396  0.4509
16257TIP3    H170186   3.345   0.001   0.334 -1.1251 -0.1439  0.6716
16257TIP3    H270187   3.384   0.054   0.470 -1.4709 -0.2098  0.7969
16258TIP3   OH270188   1.860   6.383   5.839  0.4093  0.3333  0.8238
16258TIP3    H170189   1.948   6.382   5.800  0.5210 -0.6345  1.0770
16258TIP3    H270190   1.866   6.322   5.913 -0.2493  0.9069  1.3639
16259TIP3   OH270191   5.055   0.274  15.475  0.1714  0.1699  0.0720
16259TIP3    H170192   5.034   0.347  15.417  0.3965 -0.2731 -0.5756
16259TIP3    H270193   4.986   0.276  15.541  1.0243  1.9248  0.9883
16260TIP3   OH270194   3.732   5.869  14.199  0.1009  0.0033 -0.7724
16260TIP3    H170195   3.777   5.836  14.121 -0.4217  0.6909 -1.3854
16260TIP3    H270196   3.639   5.862  14.177 -0.0642  2.4331 -1.2352
16261TIP3   OH270197   3.145   1.142   5.844  0.1344 -0.2344  0.1638
16261TIP3    H170198   3.064   1.130   5.893  0.9591 -1.7092  1.2231
16261TIP3    H270199   3.179   1.226   5.874 -0.3479 -0.2129  0.6697
16262TIP3   OH270200   1.665   2.514   6.419 -0.3204  0.2150 -0.5357
16262TIP3    H170201   1.639   2.464   6.342  0.0916 -0.5102 -0.2177
16262TIP3    H270202   1.583   2.547   6.456 -1.0561 -3.0884  1.1832
16263TIP3   OH270203   3.944   1.022   6.020  0.0942 -0.2496 -0.0050
16263TIP3    H170204   3.991   0.965   6.081 -3.5629  0.4934  4.0300
16263TIP3    H270205   3.908   0.963   5.955  2.0635 -1.4951 -0.0501
16264TIP3   OH270206   2.161   4.853  14.672  0.2528  0.3415 -0.3927
16264TIP3    H170207   2.227   4.785  14.688  0.2191  0.1053 -1.2138
16264TIP3    H270208   2.078   4.806  14.666  0.4299  0.1981 -2.6620
16265TIP3   OH270209   4.619   4.485   3.191  0.6696 -0.4083  0.1065
16265TIP3    H170210   4.535   4.461   3.153  1.6414  0.5771 -2.9265
16265TIP3    H270211   4.684   4.456   3.127  2.2343  4.4868 -0.9511
16266TIP3   OH270212   3.811   3.521  13.965 -0.4656  0.4838  0.4647
16266TIP3    H170213   3.814   3.607  13.924  0.2930  0.6837  0.9155
16266TIP3    H270214   3.892   3.516  14.017  1.0599 -1.6338 -1.8497
16267TIP3   OH270215   2.105   3.536  15.646  0.3151 -0.0650  0.4814
16267TIP3    H170216   2.031   3.545  15.705 -1.8005 -0.1505 -2.0115
16267TIP3    H270217   2.122   3.442  15.642  0.3055 -0.0786  0.7173
16268TIP3   OH270218   4.494   0.519  14.641  0.1429 -0.0294  0.0483
16268TIP3    H170219   4.574   0.477  14.608  0.0138  0.0229 -0.3398
16268TIP3    H270220   4.519   0.554  14.726  0.2068 -1.0513  0.4651
16269TIP3   OH270221   2.840   6.044   4.586  0.3058 -0.1644 -0.3901
16269TIP3    H170222   2.819   5.951   4.579 -0.5668  0.1050 -1.6393
16269TIP3    H270223   2.921   6.046   4.636  1.0215 -1.6765 -1.4158
16270TIP3   OH270224   1.980   1.838   4.926  0.7394 -0.0768  0.1767
16270TIP3    H170225   1.898   1.791   4.940  0.7926 -0.3374 -0.3463
16270TIP3    H270226   1.983   1.902   4.996  1.3462 -1.7895  1.8151
16271TIP3   OH270227   2.118   2.057  16.266 -0.1341  0.2094 -0.2075
16271TIP3    H170228   2.065   2.006  16.328  0.3506  1.1278  1.0134
16271TIP3    H270229   2.063   2.065  16.188 -1.4282  0.3304  0.6721
16272TIP3   OH270230   0.222   0.508   0.537 -0.2086  0.0404  0.0825
16272TIP3    H170231   0.196   0.473   0.622  1.1156  1.7365  1.2482
16272TIP3    H270232   0.152   0.482   0.477 -2.3821  0.8135  2.1745
16273TIP3   OH270233   4.097   2.353  17.108 -0.0607 -0.1559 -0.2985
16273TIP3    H170234   4.075   2.362  17.200  1.1273  3.3793 -0.2012
16273TIP3    H270235   4.174   2.409  17.096  0.6319 -1.5125 -3.2005
16274TIP3   OH270236   1.311   4.285  11.658 -0.0222  0.0338  0.0808
16274TIP3    H170237   1.264   4.361  11.624 -0.8574  0.0372  1.1685
16274TIP3    H270238   1.361   4.319  11.733  1.2083 -0.1051 -0.6478
16275TIP3   OH270239   3.825   1.632  11.367  0.9163 -0.4168 -0.2229
16275TIP3    H170240   3.872   1.704  11.410 -1.4685  2.7154 -2.3439
16275TIP3    H270241   3.880   1.609  11.292  0.8342  0.6073 -0.6139
16276TIP3   OH270242   2.940   0.552  14.857  0.1715  0.1544  0.3281
16276TIP3    H170243   3.031   0.557  14.886 -0.5241  1.6508  2.5051
16276TIP3    H270244   2.928   0.629  14.802 -0.0158  0.4558  0.7906
16277TIP3   OH270245   1.392   2.570  15.813 -0.8823  0.9140 -0.5238
16277TIP3    H170246   1.457   2.513  15.772 -0.2713  2.5924 -1.9689
16277TIP3    H270247   1.312   2.555  15.763 -0.7577  1.2250 -0.8159
16278TIP3   OH270248   5.958   6.620  15.589 -0.0635 -0.2131  0.0229
16278TIP3    H170249   5.954   6.598  15.682  2.6382 -0.6013  0.1439
16278TIP3    H270250   5.876   6.589  15.552  0.0773 -2.9090  1.7435
16279TIP3   OH270251   5.914   2.779   4.009  0.3588 -0.4214  0.2181
16279TIP3    H170252   5.926   2.699   4.060  2.1470  0.6804  1.6869
16279TIP3    H270253   5.975   2.770   3.936 -0.3214 -0.8944 -0.3007
16280TIP3   OH270254   0.815   1.289   4.581  0.0995 -0.6960  0.0604
16280TIP3    H170255   0.832   1.262   4.491 -1.4581 -0.5274 -0.3236
16280TIP3    H270256   0.801   1.384   4.575  2.5324 -0.2196  0.9179
16281TIP3   OH270257   0.617   6.107   2.910 -0.2464 -0.3690  0.1776
16281TIP3    H170258   0.613   6.165   2.986 -0.1740 -0.3658  0.1790
16281TIP3    H270259   0.600   6.020   2.945 -1.0366 -0.2662  0.0748
16282TIP3   OH270260   1.242   1.312   5.996 -0.0369  0.3146  0.0556
16282TIP3    H170261   1.210   1.402   5.995 -0.7722  0.0798  1.1303
16282TIP3    H270262   1.164   1.258   5.986  0.2033 -0.2293  0.9655
16283TIP3   OH270263   1.884   6.285  13.337  0.4755 -0.2479  0.4598
16283TIP3    H170264   1.853   6.374  13.320 -1.1217 -0.6539  1.0764
16283TIP3    H270265   1.948   6.295  13.408 -0.6470  0.2928  1.4239
16284TIP3   OH270266   1.444   3.768  15.422 -0.3287 -0.4544  0.8413
16284TIP3    H170267   1.528   3.794  15.384  0.6179 -2.6155  1.2628
16284TIP3    H270268   1.390   3.743  15.346  1.4607 -4.4878  0.6266
16285TIP3   OH270269   1.197   5.289   5.555  0.1672  0.6713 -0.0696
16285TIP3    H170270   1.243   5.373   5.547  0.1501  0.6843 -0.0319
16285TIP3    H270271   1.251   5.228   5.504  0.7366  0.4815  0.7335
16286TIP3   OH270272   1.704   5.904   1.890  0.1047 -0.4219 -0.0480
16286TIP3    H170273   1.716   5.916   1.984  0.6839  1.0220 -0.2745
16286TIP3    H270274   1.791   5.882   1.857 -0.4936 -3.1833  0.0046
16287TIP3   OH270275   2.810   4.860   0.865  0.0233 -0.0413  0.2350
16287TIP3    H170276   2.903   4.882   0.866  0.0709 -0.2486  0.6152
16287TIP3    H270277   2.798   4.811   0.784  0.0638  0.7435 -0.2545
16288TIP3   OH270278   3.703   0.332  14.386  0.1327  0.2586  0.5603
16288TIP3    H170279   3.651   0.256  14.413  0.9621 -0.4409  0.2090
16288TIP3    H270280   3.690   0.396  14.456 -0.8839 -0.0507  0.6669
16289TIP3   OH270281   2.938   2.223   2.788  0.0238  0.1333 -0.6974
16289TIP3    H170282   2.978   2.309   2.775  1.1503 -0.0717  1.0855
16289TIP3    H270283   3.004   2.160   2.760 -0.1155 -0.1676 -0.3666
16290TIP3   OH270284   2.646   4.781  15.577 -0.2193  0.7664  0.7209
16290TIP3    H170285   2.638   4.867  15.536 -0.0604  0.3277 -0.2746
16290TIP3    H270286   2.695   4.729  15.513 -0.6114 -0.1548  1.1534
16291TIP3   OH270287   2.857   0.660   0.985 -0.0689 -0.0627  0.4241
16291TIP3    H170288   2.762   0.660   0.973 -0.0541 -1.8148  0.1126
16291TIP3    H270289   2.871   0.615   1.069  0.4867  0.1978  0.4778
16292TIP3   OH270290   0.820   2.904  11.966  0.1341  0.0826 -0.3671
16292TIP3    H170291   0.838   2.994  11.991 -0.8724  0.2627 -0.2600
16292TIP3    H270292   0.843   2.852  12.043  0.9462  0.2009 -0.5107
16293TIP3   OH270293   4.321   5.993   5.334  0.1752 -0.3711  0.2337
16293TIP3    H170294   4.390   6.059   5.327  0.2133 -0.3141  0.9857
16293TIP3    H270295   4.278   6.013   5.418  1.6562 -2.6793  1.6602
16294TIP3   OH270296   4.657   4.553  12.674 -0.3849 -0.0002  0.2428
16294TIP3    H170297   4.705   4.474  12.647 -0.7546 -0.7808  1.7277
16294TIP3    H270298   4.722   4.623  12.673 -0.1710 -0.1666 -1.6420
16295TIP3   OH270299   1.171   2.863  11.114  0.1255 -0.1114 -0.0454
16295TIP3    H170300   1.092   2.916  11.123  0.5809  0.7342 -0.8483
16295TIP3    H270301   1.146   2.776  11.145 -1.1715  0.0925 -0.4850
16296TIP3   OH270302   1.674   4.504   2.534 -0.7437  0.1554  0.1520
16296TIP3    H170303   1.769   4.501   2.544 -0.7563 -0.0354  0.2021
16296TIP3    H270304   1.660   4.563   2.460 -0.5977  0.4260  0.3346
16297TIP3   OH270305   6.042   6.163   5.850  0.3064 -0.3188  0.6362
16297TIP3    H170306   6.101   6.181   5.924  0.1134 -0.4126  0.8130
16297TIP3    H270307   6.063   6.073   5.824 -1.6150 -1.3702  2.4414
16298TIP3   OH270308   0.908   2.457  16.134  0.6134 -0.9910 -0.0962
16298TIP3    H170309   0.865   2.449  16.220 -1.6208  0.7478 -0.9332
16298TIP3    H270310   0.893   2.373  16.091  1.1159 -1.6191  0.9191
16299TIP3   OH270311   0.703   4.401  12.972  0.1456  0.2432 -0.0709
16299TIP3    H170312   0.654   4.322  12.950 -0.4646  0.4720  0.4358
16299TIP3    H270313   0.767   4.372  13.038 -0.9928  0.4129  1.1611
16300TIP3   OH270314   4.520   3.210   5.011 -0.1451 -0.0622 -0.3659
16300TIP3    H170315   4.512   3.118   4.983 -0.3579 -0.0352 -0.3934
16300TIP3    H270316   4.612   3.218   5.038 -0.2969 -0.4668  0.2876
16301TIP3   OH270317   5.431   5.652  12.854  0.4349 -0.6527 -0.1819
16301TIP3    H170318   5.383   5.608  12.924  1.8294 -1.6621  0.1758
16301TIP3    H270319   5.494   5.709  12.900 -0.3258  0.6074 -0.6431
16302TIP3   OH270320   0.042   4.599   1.787  0.5540 -0.2142 -0.5073
16302TIP3    H170321   0.044   4.691   1.814  0.2105 -0.5052  0.5764
16302TIP3    H270322   0.134   4.571   1.794  0.5979 -0.0585 -0.4338
16303TIP3   OH270323   6.629   2.204  17.051 -0.5642  0.0666 -0.2054
16303TIP3    H170324   6.663   2.273  17.108  1.0995  0.4130 -1.5363
16303TIP3    H270325   6.538   2.230  17.034  0.2272  2.4106 -1.3045
16304TIP3   OH270326   4.138   6.677   4.065  0.1526  0.2256  0.4819
16304TIP3    H170327   4.127   6.616   3.992  2.3389 -1.1525  1.1928
16304TIP3    H270328   4.066   6.739   4.056 -0.2610 -0.5115 -2.2127
16305TIP3   OH270329   0.257   0.349   3.059 -0.3042  0.5200  0.5250
16305TIP3    H170330   0.210   0.345   2.976  0.6785  1.2637 -0.0886
16305TIP3    H270331   0.207   0.291   3.117 -0.9915 -0.0437 -0.5807
16306TIP3   OH270332   3.572   2.093  16.447 -0.3074  0.4004  0.4215
16306TIP3    H170333   3.593   2.172  16.497 -0.6037 -0.2611  1.6277
16306TIP3    H270334   3.519   2.125  16.374  0.3691  1.4226  0.3408
16307TIP3   OH270335   6.601   0.117  11.606 -0.1679  0.1954  0.3575
16307TIP3    H170336   6.575   0.058  11.676  0.0535  0.4408  0.6541
16307TIP3    H270337   6.534   0.186  11.607 -1.4884 -1.0186 -1.2400
16308TIP3   OH270338   3.513   6.513  11.655 -0.6015 -0.3631 -0.1379
16308TIP3    H170339   3.431   6.467  11.636  0.0989 -1.3022 -0.9916
16308TIP3    H270340   3.560   6.512  11.572 -0.1129  0.9940  0.1083
16309TIP3   OH270341   6.271   1.099  14.636  0.6202 -0.2637  0.4798
16309TIP3    H170342   6.198   1.160  14.625  0.9856  0.3615  1.2947
16309TIP3    H270343   6.230   1.013  14.645  0.1807 -0.5307 -2.8267
16310TIP3   OH270344   5.856   1.086  13.594  0.4370 -0.3295  0.4076
16310TIP3    H170345   5.867   1.153  13.527  0.8354 -0.8146 -0.0166
16310TIP3    H270346   5.879   1.131  13.676 -0.7647  0.4735  0.3331
16311TIP3   OH270347   3.565   0.793  12.001 -0.5062 -0.4100 -0.0826
16311TIP3    H170348   3.636   0.750  12.049  0.0066 -1.0333 -1.3350
16311TIP3    H270349   3.529   0.856  12.062  1.1341 -0.0802  0.6028
16312TIP3   OH270350   0.096   6.186  12.707  0.2066 -0.4902  0.1174
16312TIP3    H170351   0.047   6.215  12.631  1.0758 -0.1709 -0.3407
16312TIP3    H270352   0.135   6.102  12.681 -1.0784 -1.3565  0.9101
16313TIP3   OH270353   2.271   2.805   2.109 -0.2052 -0.3809  0.2603
16313TIP3    H170354   2.225   2.796   2.193 -0.3102 -2.1639  0.0430
16313TIP3    H270355   2.232   2.883   2.069 -0.7447  0.0104  1.5014
16314TIP3   OH270356   4.982   1.967  12.084 -0.0998 -0.0680 -0.3891
16314TIP3    H170357   5.053   2.011  12.130 -0.0919  0.4815 -0.9101
16314TIP3    H270358   5.000   1.874  12.094  2.1957  0.0050 -2.7472
16315TIP3   OH270359   2.526   6.572   3.108 -0.0702  0.5184  0.1129
16315TIP3    H170360   2.438   6.543   3.083 -0.0966  0.4433  0.2949
16315TIP3    H270361   2.522   6.585   3.202  0.5893 -1.1453  0.3991
16316TIP3   OH270362   1.795   1.211   0.116  0.0190  0.6494 -0.0085
16316TIP3    H170363   1.847   1.188   0.193  0.4826 -4.1813 -1.4461
16316TIP3    H270364   1.841   1.168   0.043 -3.4453  0.1158 -2.0779
16317TIP3   OH270365   1.266   4.167  13.902  0.5279  0.0017 -0.6689
16317TIP3    H170366   1.278   4.158  13.808 -1.7393  1.7700 -1.2364
16317TIP3    H270367   1.309   4.091  13.940  1.7944 -0.5736 -3.0965
16318TIP3   OH270368   6.410   4.809  14.303  0.0202  0.1757  0.5594
16318TIP3    H170369   6.390   4.758  14.225  0.9946 -0.7629  0.8954
16318TIP3    H270370   6.421   4.898  14.271  1.0057 -0.2941 -0.4890
16319TIP3   OH270371   2.828   2.581   2.949 -0.1901 -0.2696  0.2482
16319TIP3    H170372   2.762   2.649   2.946  1.1625  1.0755 -0.2139
16319TIP3    H270373   2.892   2.612   3.013 -0.3975 -1.9389  1.3225
16320TIP3   OH270374   3.290   6.146   0.727  0.5858  0.2449  0.2096
16320TIP3    H170375   3.223   6.173   0.790 -1.4362  0.7050 -1.9651
16320TIP3    H270376   3.300   6.222   0.669  2.9715  0.1439  0.3801
16321TIP3   OH270377   0.200   4.782   3.642  0.1572 -0.8179 -0.0779
16321TIP3    H170378   0.187   4.874   3.618 -0.8379 -0.5107  1.4771
16321TIP3    H270379   0.287   4.780   3.683  1.4836 -1.1871 -2.6522
16322TIP3   OH270380   4.826   5.670  15.718 -0.6500 -0.1905  0.1140
16322TIP3    H170381   4.851   5.579  15.734 -1.0755 -0.2510  0.4544
16322TIP3    H270382   4.739   5.678  15.756 -0.5067  0.4301  0.3203
16323TIP3   OH270383   1.713   5.691   3.786  0.2335 -0.6805 -0.8141
16323TIP3    H170384   1.797   5.651   3.804  0.2584 -0.7501 -1.0755
16323TIP3    H270385   1.715   5.710   3.692 -0.3737 -1.4561 -0.9902
16324TIP3   OH270386   5.224   6.464  13.331 -0.2618 -0.5792 -0.3002
16324TIP3    H170387   5.295   6.529  13.330  0.9707 -1.7850  1.8497
16324TIP3    H270388   5.229   6.422  13.245  2.6144 -1.5427  0.2271
16325TIP3   OH270389   5.852   0.925  10.920  0.1597 -0.3918 -0.3642
16325TIP3    H170390   5.810   0.842  10.898  1.0808 -0.3952 -2.3452
16325TIP3    H270391   5.790   0.992  10.892 -1.0370 -0.3267  2.1657
16326TIP3   OH270392   1.216   6.457  14.922 -0.1310  0.6864  0.2406
16326TIP3    H170393   1.180   6.455  14.833  0.5537  2.1589 -0.0883
16326TIP3    H270394   1.188   6.541  14.958  0.8413  0.7544  0.8764
16327TIP3   OH270395   2.346   0.442  13.907  0.3399  0.3473 -0.1255
16327TIP3    H170396   2.440   0.428  13.905  0.2896  0.0327 -0.3829
16327TIP3    H270397   2.318   0.433  13.816 -0.2094 -1.5748  0.1850
16328TIP3   OH270398   0.055   1.911   0.578  0.7814 -0.4742  0.2233
16328TIP3    H170399   0.133   1.862   0.607  1.4094 -1.6900 -3.1134
16328TIP3    H270400   0.013   1.853   0.515 -1.2684  1.3617 -0.1820
16329TIP3   OH270401   1.236   5.473   3.950 -0.1776 -0.8622  0.3645
16329TIP3    H170402   1.301   5.543   3.942 -1.3113  0.0075 -1.7417
16329TIP3    H270403   1.262   5.408   3.885  0.7513 -2.4157  2.1614
16330TIP3   OH270404   5.943   2.074  16.620  0.4602 -0.0631 -0.5027
16330TIP3    H170405   5.849   2.082  16.602 -0.2338 -1.4572  2.0325
16330TIP3    H270406   5.969   1.992  16.578  0.4410  0.0671 -0.7741
16331TIP3   OH270407   5.739   6.143  15.424  0.2283 -0.3903  0.1917
16331TIP3    H170408   5.722   6.232  15.393  1.4823 -0.6955 -1.4963
16331TIP3    H270409   5.680   6.089  15.373 -0.5016 -0.5643  1.1871
16332TIP3   OH270410   4.829   6.573   1.017 -0.3615 -0.0821  0.0244
16332TIP3    H170411   4.743   6.541   0.989 -0.0213 -1.4360  0.4670
16332TIP3    H270412   4.868   6.499   1.063  0.7865  0.7370  0.3943
16333TIP3   OH270413   1.537   4.736   5.459 -0.4995  0.6152 -0.0616
16333TIP3    H170414   1.456   4.739   5.409  1.1545  0.8769 -3.0028
16333TIP3    H270415   1.594   4.799   5.416  1.6631 -0.4199  1.0989
16334TIP3   OH270416   0.238   2.225  13.371  0.3776 -0.2643  0.3894
16334TIP3    H170417   0.147   2.247  13.352  0.8996  1.3054 -0.4755
16334TIP3    H270418   0.274   2.194  13.288  0.8360 -0.1294  0.5327
16335TIP3   OH270419   3.767   0.608   5.352  0.0453 -0.4708 -0.0414
16335TIP3    H170420   3.859   0.603   5.327 -0.3028 -3.0811 -1.1152
16335TIP3    H270421   3.769   0.616   5.448  1.3492  0.8950 -0.1468
16336TIP3   OH270422   4.410   0.984   4.383  0.0976 -0.4264  0.8182
16336TIP3    H170423   4.503   0.988   4.404 -0.0677 -1.4750  1.8807
16336TIP3    H270424   4.405   1.005   4.290  1.2265  1.1836  1.0745
16337TIP3   OH270425   6.072   5.956   4.174  0.4908  0.0968  0.3277
16337TIP3    H170426   6.076   6.045   4.209  0.4486 -0.3132  1.4306
16337TIP3    H270427   5.988   5.923   4.205 -0.0888  0.0901 -1.1637
16338TIP3   OH270428   3.365   6.069  12.991  0.3607  0.5711  0.1192
16338TIP3    H170429   3.362   6.113  12.906  2.5687 -0.6671 -0.6820
16338TIP3    H270430   3.296   6.003  12.987  0.7688  0.1915 -0.9428
16339TIP3   OH270431   2.548   6.249   5.242  0.1345 -0.3962 -0.0298
16339TIP3    H170432   2.541   6.172   5.185  1.2637 -0.3425 -0.2626
16339TIP3    H270433   2.630   6.290   5.217  0.0847  0.2757  0.8553
16340TIP3   OH270434   4.153   3.011   2.465  0.2100 -0.1229  0.3199
16340TIP3    H170435   4.079   3.068   2.487  0.6150  0.4003  0.3449
16340TIP3    H270436   4.125   2.924   2.493 -0.6266 -0.0366 -0.2031
16341TIP3   OH270437   0.923   3.520   5.212  0.1167  0.0569 -0.6616
16341TIP3    H170438   0.996   3.475   5.172 -0.6139 -0.8505 -1.0021
16341TIP3    H270439   0.845   3.487   5.167 -0.7008 -0.6890  1.1732
16342TIP3   OH270440   2.127   1.788   5.634  0.2816 -0.3336 -0.2927
16342TIP3    H170441   2.177   1.842   5.572  0.7736 -0.1654  0.2398
16342TIP3    H270442   2.039   1.784   5.597  0.4993 -0.0040 -0.8593
16343TIP3   OH270443   1.713   3.388  11.306 -0.1922  0.4154  0.0442
16343TIP3    H170444   1.636   3.332  11.302 -1.1078  1.5949  0.3743
16343TIP3    H270445   1.759   3.360  11.386 -1.5994  1.2776  1.2126
16344TIP3   OH270446   5.859   1.660  17.180  0.1522  0.2910  0.4594
16344TIP3    H170447   5.835   1.580  17.227 -0.8498  0.6380  0.5482
16344TIP3    H270448   5.930   1.632  17.122 -0.0129 -0.6045  0.6639
16345TIP3   OH270449   3.509   5.415   2.516  0.1286  0.0042  0.1589
16345TIP3    H170450   3.490   5.454   2.601  2.4829  0.2207  0.6623
16345TIP3    H270451   3.430   5.428   2.465 -1.4732 -0.4000  2.3870
16346TIP3   OH270452   0.575   6.590  12.756  0.4148 -0.1830 -0.3772
16346TIP3    H170453   0.504   6.628  12.808  1.3049  0.3646  0.4778
16346TIP3    H270454   0.545   6.501  12.737 -0.8205  0.2679 -0.6738
16347TIP3   OH270455   2.648   5.267   1.130  0.6488  0.1960  0.3063
16347TIP3    H170456   2.595   5.198   1.089  0.5220  0.6180 -0.2514
16347TIP3    H270457   2.689   5.312   1.057  2.1467 -0.3958  0.7517
16348TIP3   OH270458   4.033   3.142  15.462 -0.4739  0.3301 -0.1980
16348TIP3    H170459   4.054   3.112  15.373 -2.4783  0.7591 -0.8494
16348TIP3    H270460   4.097   3.097  15.517  3.7850  3.2537 -2.1423
16349TIP3   OH270461   5.644   1.040   4.249  0.2354  0.1555  0.8093
16349TIP3    H170462   5.695   1.102   4.198  0.4996  0.3658  1.3243
16349TIP3    H270463   5.554   1.072   4.245 -0.3334 -1.4375 -2.0166
16350TIP3   OH270464   1.602   3.859  12.037 -0.2486  0.1093  0.0892
16350TIP3    H170465   1.569   3.770  12.039 -1.3933  0.4660 -1.2649
16350TIP3    H270466   1.581   3.895  12.123 -0.8878 -0.5566  0.2193
16351TIP3   OH270467   5.603   4.085   3.729 -0.0441 -0.5340 -0.1318
16351TIP3    H170468   5.653   4.018   3.777 -1.7023  0.8943  4.0579
16351TIP3    H270469   5.652   4.166   3.744 -2.2795  0.5079  2.2417
16352TIP3   OH270470   2.729   6.082  11.361 -0.1811 -0.4861  0.1962
16352TIP3    H170471   2.747   6.031  11.440 -2.1344  0.0643  1.0654
16352TIP3    H270472   2.815   6.100  11.324  0.8873  0.0353  2.7150
16353TIP3   OH270473   3.062   5.231   0.323 -0.1750 -0.7834  0.3863
16353TIP3    H170474   3.151   5.208   0.348  0.0242 -1.7385 -1.0982
16353TIP3    H270475   3.072   5.307   0.266 -0.4343 -0.1077  1.2154
16354TIP3   OH270476   5.564   5.925  15.335 -0.1561 -0.0678 -0.6994
16354TIP3    H170477   5.502   5.937  15.406  0.9920 -2.4442  0.8474
16354TIP3    H270478   5.545   5.837  15.302  1.7675 -0.5010 -0.7731
16355TIP3   OH270479   6.585   5.794  15.515 -0.3906  0.3499  0.2754
16355TIP3    H170480   6.493   5.790  15.540 -0.4332 -0.0406  0.0773
16355TIP3    H270481   6.595   5.880  15.473 -0.6534  0.4109  0.3372
16356TIP3   OH270482   4.621   1.422  14.278 -0.2208 -0.1713  0.4721
16356TIP3    H170483   4.600   1.338  14.320 -2.3315  1.3858  2.8423
16356TIP3    H270484   4.577   1.418  14.193 -0.1529 -1.5221  0.4746
16357TIP3   OH270485   2.831   6.354  14.025 -0.6252  0.2222 -0.8698
16357TIP3    H170486   2.848   6.287  13.959 -2.2044  0.4942 -1.5889
16357TIP3    H270487   2.825   6.436  13.976 -3.2976  0.2234 -0.6544
16358TIP3   OH270488   1.025   4.319  14.447  0.1119  0.1765 -0.0096
16358TIP3    H170489   1.088   4.368  14.394 -0.8566 -0.6823 -2.1020
16358TIP3    H270490   1.055   4.228  14.441 -0.6965 -0.0898 -0.1339
16359TIP3   OH270491   0.865   3.540  13.239 -0.3427 -0.0391 -0.6228
16359TIP3    H170492   0.957   3.531  13.213 -0.7744 -2.0523 -1.6707
16359TIP3    H270493   0.838   3.451  13.262 -1.9856  0.5397 -0.1911
16360TIP3   OH270494   6.723   6.167   0.911  0.7940  0.3608  0.1053
16360TIP3    H170495   6.630   6.146   0.914  0.6530  0.7599 -0.9757
16360TIP3    H270496   6.731   6.249   0.958  0.3701  1.0152 -0.9189
16361TIP3   OH270497   5.764   3.776  12.835  0.0296 -0.0688  0.3055
16361TIP3    H170498   5.682   3.824  12.841  1.0310  1.6406  1.1834
16361TIP3    H270499   5.764   3.719  12.912  0.0229  0.5585  0.7806
16362TIP3   OH270500   0.084   1.092  14.147 -0.7179 -0.4079  0.2537
16362TIP3    H170501   0.031   1.107  14.069  1.1641  1.6883 -0.7494
16362TIP3    H270502   0.031   1.127  14.219 -1.7468 -0.7426 -0.3181
16363TIP3   OH270503   4.007   3.878   0.848 -0.1728 -0.3254  0.7819
16363TIP3    H170504   4.102   3.871   0.832  0.1358  2.0254  1.2247
16363TIP3    H270505   3.978   3.946   0.787 -1.5259 -0.8022  0.8752
16364TIP3   OH270506   6.771   3.699  13.087 -0.0107  0.0266 -0.0984
16364TIP3    H170507   6.743   3.638  13.018  0.3520 -0.0291 -0.1941
16364TIP3    H270508   6.863   3.679  13.102  0.8099  2.0765 -1.7784
16365TIP3   OH270509   3.537   3.396   2.762  0.1018  0.1829 -0.3414
16365TIP3    H170510   3.555   3.331   2.694  2.4130 -0.9031  1.2021
16365TIP3    H270511   3.492   3.347   2.831  0.6164  0.5367  0.2490
16366TIP3   OH270512   2.127   2.787   5.556 -0.1810  0.6850  0.5193
16366TIP3    H170513   2.202   2.727   5.561 -0.5597  0.2714  1.6431
16366TIP3    H270514   2.159   2.861   5.505  0.4037 -0.3186 -0.6443
16367TIP3   OH270515   1.037   0.925   5.053  0.0750 -0.1852 -0.2731
16367TIP3    H170516   1.014   0.835   5.030 -1.9763  0.3764 -0.5803
16367TIP3    H270517   1.055   0.968   4.970 -2.4223  0.5459 -0.5163
16368TIP3   OH270518   4.864   5.097  13.732 -0.3327  0.3613  0.1922
16368TIP3    H170519   4.829   5.025  13.680  0.8463  1.2685 -1.9843
16368TIP3    H270520   4.793   5.119  13.793 -2.0215 -0.4245 -1.3852
16369TIP3   OH270521   2.990   5.381  13.432 -0.3656 -0.0385  0.3405
16369TIP3    H170522   2.990   5.476  13.419  1.4621 -0.1545 -1.0834
16369TIP3    H270523   2.990   5.346  13.343 -0.8463 -1.3834  0.8544
16370TIP3   OH270524   6.336   2.933   1.963 -0.1473  0.4498 -0.1302
16370TIP3    H170525   6.314   3.014   1.916 -0.7699  1.4858  1.8487
16370TIP3    H270526   6.257   2.912   2.012  0.6020 -0.3682  0.7533
16371TIP3   OH270527   6.785   0.296  12.179  0.3561  0.2876  0.4394
16371TIP3    H170528   6.717   0.260  12.121  1.2456  0.0490 -0.4879
16371TIP3    H270529   6.757   0.270  12.267 -1.2380  1.0064  0.1776
16372TIP3   OH270530   5.607   5.011   2.080 -0.0889 -0.4979  0.2044
16372TIP3    H170531   5.536   4.997   2.017  0.0586 -0.5042  0.0391
16372TIP3    H270532   5.640   5.098   2.060  0.4999 -0.8204 -0.2719
16373TIP3   OH270533   6.268   4.376   0.188  0.4095 -0.4453 -0.1967
16373TIP3    H170534   6.190   4.368   0.243  0.5375 -0.0607  0.0477
16373TIP3    H270535   6.340   4.350   0.246  0.4417 -1.0052 -0.4844
16374TIP3   OH270536   3.604   4.716  13.511  0.0128  0.2251  0.6581
16374TIP3    H170537   3.665   4.672  13.570  2.0048 -0.0557 -1.4632
16374TIP3    H270538   3.660   4.763  13.449 -1.9994  2.6360  0.5097
16375TIP3   OH270539   2.534   4.250  14.727  0.3845  0.6321 -0.0234
16375TIP3    H170540   2.612   4.215  14.771 -0.7379 -1.2765  0.5715
16375TIP3    H270541   2.461   4.199  14.762 -1.0706  1.8247 -1.1366
16376TIP3   OH270542   4.635   6.093   3.028  0.6855 -0.2933  0.1486
16376TIP3    H170543   4.641   6.090   3.124  1.6753 -0.6599  0.0942
16376TIP3    H270544   4.606   6.182   3.008  0.8002 -0.1101  0.7802
16377TIP3   OH270545   4.086   5.165  12.359  0.3561  0.0726  0.1030
16377TIP3    H170546   4.018   5.119  12.407  0.0562 -0.7030 -1.0268
16377TIP3    H270547   4.163   5.109  12.366  0.3929  0.0996 -0.0731
16378TIP3   OH270548   3.629   1.354   5.350  0.2260 -0.5174  0.1120
16378TIP3    H170549   3.616   1.441   5.312 -1.0871 -0.7276  0.0306
16378TIP3    H270550   3.582   1.294   5.291  0.7141 -1.2237  0.4219
16379TIP3   OH270551   0.493   6.091   0.245  0.3694  0.2301  0.4529
16379TIP3    H170552   0.419   6.076   0.186  1.2010  0.5137 -0.6937
16379TIP3    H270553   0.525   6.003   0.265 -1.0510  0.0099  2.0448
16380TIP3   OH270554   4.016   0.753  16.870  0.0708 -0.1688 -0.1473
16380TIP3    H170555   4.058   0.703  16.800 -0.1143  2.0773 -1.9794
16380TIP3    H270556   3.925   0.760  16.844 -0.1739  0.0542  0.7345
16381TIP3   OH270557   5.718   4.829  13.593 -0.4968 -0.4039 -0.2587
16381TIP3    H170558   5.791   4.883  13.623 -0.7778 -0.9709  1.6006
16381TIP3    H270559   5.661   4.889  13.546 -0.2216  0.6963  0.7572
16382TIP3   OH270560   1.056   0.919   2.245  0.6207  0.0728  0.2002
16382TIP3    H170561   1.082   1.002   2.205 -0.2281 -0.0705 -0.7075
16382TIP3    H270562   1.033   0.863   2.170  0.7496 -0.8326  0.8194
16383TIP3   OH270563   1.173   5.558   1.085 -0.0276  0.6570  0.4000
16383TIP3    H170564   1.081   5.541   1.105  0.0041  0.1441  0.1305
16383TIP3    H270565   1.221   5.493   1.137  0.0140 -1.4676 -2.0646
16384TIP3   OH270566   2.600   2.466   0.439 -0.4646  0.4712 -0.4067
16384TIP3    H170567   2.681   2.473   0.491  0.8806  0.6337 -2.4214
16384TIP3    H270568   2.579   2.556   0.415 -0.9234  0.3728 -0.3824
16385TIP3   OH270569   3.594   5.485   1.617  0.2033  0.2415  0.2014
16385TIP3    H170570   3.623   5.503   1.707  1.7461 -0.5670 -0.1066
16385TIP3    H270571   3.612   5.391   1.605 -2.0082 -0.1798 -0.2453
16386TIP3   OH270572   2.907   2.841   4.639 -0.2413  0.1322 -0.3888
16386TIP3    H170573   2.840   2.792   4.590  0.5314  0.5187 -1.8991
16386TIP3    H270574   2.860   2.918   4.672 -0.9355 -0.4747  0.0520
16387TIP3   OH270575   5.670   3.563  15.875 -0.2507  0.7319  0.4363
16387TIP3    H170576   5.694   3.549  15.784 -0.0470  0.3777  0.5400
16387TIP3    H270577   5.626   3.481  15.901  0.9863  0.2424  1.0691
16388TIP3   OH270578   6.402   6.161   1.007  0.4233 -0.2849 -0.0018
16388TIP3    H170579   6.445   6.101   1.069  0.0162  1.3394  1.9380
16388TIP3    H270580   6.353   6.103   0.948  0.9746 -1.9085  1.0745
16389TIP3   OH270581   2.686   1.242   4.383  0.1570  0.3937 -0.1489
16389TIP3    H170582   2.624   1.209   4.318  0.0057 -3.2234  1.6166
16389TIP3    H270583   2.639   1.235   4.466  2.1258 -0.3045  0.9712
16390TIP3   OH270584   3.674   3.025   5.411  0.0558 -0.0445  0.0532
16390TIP3    H170585   3.749   3.083   5.400  1.9905 -2.3979  0.0299
16390TIP3    H270586   3.691   2.951   5.352 -1.7090 -1.1847  0.8753
16391TIP3   OH270587   2.763   4.197  17.022 -0.6667  0.3546  0.0333
16391TIP3    H170588   2.828   4.129  17.043 -0.1258  1.0614  0.6683
16391TIP3    H270589   2.783   4.269  17.081 -2.8596  0.1041  1.1720
16392TIP3   OH270590   1.792   6.403   4.869  0.5552 -0.1843 -0.1838
16392TIP3    H170591   1.770   6.446   4.786 -0.4062  0.6176  0.4672
16392TIP3    H270592   1.712   6.409   4.921  1.5454  0.4853  1.2964
16393TIP3   OH270593   2.173   3.440  14.671  0.1735 -0.6613 -0.4637
16393TIP3    H170594   2.147   3.373  14.607 -0.6606 -0.8654  0.0707
16393TIP3    H270595   2.254   3.407  14.709  0.5776 -0.6291 -1.2822
16394TIP3   OH270596   5.350   1.108  16.443 -0.0355 -0.7260 -0.1209
16394TIP3    H170597   5.348   1.081  16.535 -0.6223 -0.7710 -0.1432
16394TIP3    H270598   5.443   1.118  16.423  0.2092 -2.4878 -0.0246
16395TIP3   OH270599   0.483   5.053  11.012 -0.6434 -0.0102 -0.3655
16395TIP3    H170600   0.535   5.080  10.936 -1.6900  0.2233 -1.0168
16395TIP3    H270601   0.412   5.000  10.975 -2.9954  2.6475  0.0478
16396TIP3   OH270602   5.195   3.193  13.601 -0.0627  0.5947  0.0055
16396TIP3    H170603   5.151   3.247  13.667  1.1960  0.8826  0.6534
16396TIP3    H270604   5.179   3.103  13.630  1.0772  0.7336  1.1404
16397TIP3   OH270605   1.932   3.168  14.768 -0.5776  0.2099 -0.1212
16397TIP3    H170606   2.015   3.125  14.785  0.1265  0.9459 -1.5185
16397TIP3    H270607   1.873   3.097  14.743 -0.7416 -0.4687  1.9967
16398TIP3   OH270608   3.200   2.543  12.532  0.0266 -0.0554  0.1289
16398TIP3    H170609   3.120   2.520  12.579  1.2868 -1.4326  1.7214
16398TIP3    H270610   3.264   2.564  12.600  1.3280 -0.0118 -1.0442
16399TIP3   OH270611   0.525   2.944  12.806  0.1825  0.0359 -0.5136
16399TIP3    H170612   0.531   3.035  12.835  1.0050 -0.2103  0.1026
16399TIP3    H270613   0.511   2.950  12.711  0.0570  0.7968 -0.4550
16400TIP3   OH270614   2.849   2.440   6.272 -0.1126  0.2654 -0.2374
16400TIP3    H170615   2.884   2.529   6.272 -0.8128  0.5768  0.7753
16400TIP3    H270616   2.772   2.445   6.216  1.3410 -0.3921 -2.3761
16401TIP3   OH270617   0.573   1.425  14.298 -0.0131  0.2574 -0.2272
16401TIP3    H170618   0.568   1.476  14.217 -0.5188  1.1008  0.3215
16401TIP3    H270619   0.663   1.392  14.300  0.4278  1.4041 -0.4392
16402TIP3   OH270620   6.597   3.020  16.170 -0.4030  0.0921 -0.2230
16402TIP3    H170621   6.534   2.960  16.209  0.3405  0.3198  1.3988
16402TIP3    H270622   6.663   3.034  16.238  1.2456  0.1227 -1.7437
16403TIP3   OH270623   1.081   3.492   6.466 -0.2054 -0.4084  0.3344
16403TIP3    H170624   1.139   3.558   6.428 -0.4977 -0.5558 -0.3874
16403TIP3    H270625   0.995   3.514   6.432 -0.6862  0.1089  1.7930
16404TIP3   OH270626   1.391   1.123  14.335 -0.0456 -0.4887  0.0374
16404TIP3    H170627   1.391   1.063  14.410  0.0343 -0.5462 -0.0089
16404TIP3    H270628   1.483   1.143  14.319 -0.0564 -0.5534 -0.1074
16405TIP3   OH270629   4.315   5.624  11.179 -0.3860 -0.3169  0.8738
16405TIP3    H170630   4.323   5.632  11.274 -2.4887 -0.1024  1.0641
16405TIP3    H270631   4.276   5.706  11.150 -0.1371 -0.5358 -0.1354
16406TIP3   OH270632   0.609   6.733  14.785 -0.1765 -0.0057  0.6365
16406TIP3    H170633   0.528   6.706  14.743  0.2708 -0.8811  0.3290
16406TIP3    H270634   0.628   6.665  14.850  0.6652 -0.1683  0.2400
16407TIP3   OH270635   1.398   2.607   1.073 -0.8161 -0.1677 -0.6560
16407TIP3    H170636   1.334   2.630   1.007 -1.1850  2.2640  0.4209
16407TIP3    H270637   1.472   2.666   1.056  0.3582 -1.6041 -0.7120
16408TIP3   OH270638   6.440   1.813  13.933 -0.2719  0.5986 -0.4583
16408TIP3    H170639   6.412   1.782  13.847  0.7490  2.4684 -1.5373
16408TIP3    H270640   6.534   1.795  13.936 -0.2091  0.9759  0.0643
16409TIP3   OH270641   4.311   3.710   6.288 -0.5104  0.1436  0.1236
16409TIP3    H170642   4.349   3.639   6.237 -1.4218  0.7591 -1.4808
16409TIP3    H270643   4.241   3.745   6.233 -0.8247  1.5564  1.3404
16410TIP3   OH270644   2.596   3.710  12.589 -0.7431  0.2625 -0.5686
16410TIP3    H170645   2.633   3.699  12.501 -2.0611 -1.7313 -0.9443
16410TIP3    H270646   2.507   3.741  12.574 -1.4790 -1.4720 -0.0659
16411TIP3   OH270647   6.008   1.771  10.207  0.3344  0.4360  0.4751
16411TIP3    H170648   5.980   1.686  10.242 -0.6375  1.2307  1.7098
16411TIP3    H270649   6.001   1.831  10.281 -1.6272  2.1703 -0.9922
16412TIP3   OH270650   2.685   3.072   3.933  0.0435 -0.0247  0.3011
16412TIP3    H170651   2.740   3.014   3.881 -0.1902 -0.5941  0.6752
16412TIP3    H270652   2.684   3.031   4.020 -1.5471 -0.4280  0.1241
16413TIP3   OH270653   0.216   6.673  15.521 -0.1519 -0.2992 -0.0667
16413TIP3    H170654   0.256   6.660  15.606 -2.8540 -1.9488  1.0648
16413TIP3    H270655   0.286   6.656  15.458  1.8458  0.7527  1.7523
16414TIP3   OH270656   6.353   5.041   3.774 -0.0331  0.3950  0.0948
16414TIP3    H170657   6.362   5.110   3.708 -0.3958 -1.1033 -1.6340
16414TIP3    H270658   6.439   5.034   3.815  0.1994  1.3833 -0.2112
16415TIP3   OH270659   3.270   0.241   2.835 -0.5089  0.3563  0.2505
16415TIP3    H170660   3.283   0.146   2.825 -1.4383  0.3331 -0.9535
16415TIP3    H270661   3.242   0.270   2.749  3.8353  2.4864 -0.7113
16416TIP3   OH270662   2.437   1.719  12.669 -0.5544  0.2239 -0.5464
16416TIP3    H170663   2.458   1.652  12.605  1.1199  1.5878 -1.5033
16416TIP3    H270664   2.481   1.798  12.638  0.8331  0.8391  2.5231
16417TIP3   OH270665   6.628   6.621  11.572  0.2523 -0.5035  0.2817
16417TIP3    H170666   6.701   6.635  11.511 -0.4923  2.4317 -0.0994
16417TIP3    H270667   6.669   6.599  11.655  1.5937  1.0401  0.0618
16418TIP3   OH270668   0.757   5.297   4.735 -0.1722 -0.2743  0.3742
16418TIP3    H170669   0.803   5.228   4.782  2.2496  1.8300  1.3366
16418TIP3    H270670   0.698   5.336   4.799 -0.5274 -0.5842  0.2333
16419TIP3   OH270671   1.474   5.159   1.483  0.7645 -0.5281 -0.1311
16419TIP3    H170672   1.419   5.108   1.425  1.0033 -2.8883  1.5618
16419TIP3    H270673   1.555   5.173   1.433 -0.4344  0.9609 -1.7600
16420TIP3   OH270674   2.583   5.500   2.675 -0.0853  0.3730  0.2437
16420TIP3    H170675   2.603   5.514   2.582  0.9572  0.9263  0.5245
16420TIP3    H270676   2.541   5.415   2.678 -0.6792  0.6102 -0.8053
16421TIP3   OH270677   5.903   2.427  17.056  0.2967 -0.7740 -0.7062
16421TIP3    H170678   5.926   2.370  17.129 -0.9031 -1.7569 -1.0602
16421TIP3    H270679   5.841   2.490  17.093 -0.2532 -1.2258 -0.8360
16422TIP3   OH270680   3.713   2.584  13.436  0.0414  0.6368 -0.1219
16422TIP3    H170681   3.740   2.579  13.528  1.6378 -0.9160 -0.6163
16422TIP3    H270682   3.779   2.533  13.389 -1.4390  0.3357 -1.9921
16423TIP3   OH270683   4.974   1.268  13.040 -0.1787 -0.6863  0.2013
16423TIP3    H170684   4.984   1.360  13.015  2.1161 -1.0713 -0.5661
16423TIP3    H270685   4.895   1.239  12.995 -0.1632  0.5534 -0.6805
16424TIP3   OH270686   1.324   0.222  12.237  0.3868  0.5854  0.4440
16424TIP3    H170687   1.373   0.300  12.214  2.5755 -1.0956 -1.0127
16424TIP3    H270688   1.247   0.224  12.179  1.9869  0.2027 -1.8218
16425TIP3   OH270689   5.879   3.550   6.341  0.2831  0.2530 -0.4911
16425TIP3    H170690   5.949   3.552   6.277 -1.1223 -0.3410 -2.1207
16425TIP3    H270691   5.859   3.457   6.352 -1.1297  0.4554 -1.1060
16426TIP3   OH270692   2.734   2.412  11.844  0.1911  0.2990  0.2856
16426TIP3    H170693   2.808   2.471  11.859 -0.1831  1.0365 -0.6662
16426TIP3    H270694   2.758   2.364  11.765  0.4661 -0.8103  1.0187
16427TIP3   OH270695   6.564   6.668  14.987  0.1600  0.3614 -0.3814
16427TIP3    H170696   6.647   6.683  15.032 -0.9280  1.7858  1.2366
16427TIP3    H270697   6.587   6.608  14.916  2.8431  1.7811 -0.8653
16428TIP3   OH270698   5.870   2.301  15.310 -0.5097 -0.4076 -0.2126
16428TIP3    H170699   5.868   2.250  15.391 -1.5392  0.2272  0.1699
16428TIP3    H270700   5.942   2.363  15.322 -0.2703 -0.7184 -0.0373
16429TIP3   OH270701   3.750   2.958  13.855 -0.1590  0.0912 -0.6514
16429TIP3    H170702   3.741   3.023  13.924 -1.3089 -1.3195  0.5851
16429TIP3    H270703   3.791   2.882  13.897 -3.6241 -1.9686 -0.5862
16430TIP3   OH270704   4.420   4.085  14.792  0.0897  0.2292 -0.4346
16430TIP3    H170705   4.383   4.091  14.704 -0.9860 -0.8972 -0.0881
16430TIP3    H270706   4.514   4.072  14.777 -0.2670 -1.5038 -1.4876
16431TIP3   OH270707   6.695   3.986  15.984  0.2855  0.0229  0.1531
16431TIP3    H170708   6.617   3.965  15.932 -1.2281  1.4363  1.7620
16431TIP3    H270709   6.678   4.073  16.019  1.0335 -0.9712  3.3130
16432TIP3   OH270710   4.582   0.985  15.349 -0.3029 -0.0632  0.4475
16432TIP3    H170711   4.540   0.983  15.435  0.5863  0.9417  0.9251
16432TIP3    H270712   4.631   1.067  15.348 -1.0071  0.3869 -1.3730
16433TIP3   OH270713   5.846   3.247  11.724  0.1008 -0.1043 -0.6561
16433TIP3    H170714   5.909   3.175  11.724 -1.1850 -1.2846 -1.5603
16433TIP3    H270715   5.851   3.283  11.813  1.0508 -1.0542 -0.2997
16434TIP3   OH270716   3.414   3.629   6.314  0.1740 -0.0289  0.0788
16434TIP3    H170717   3.395   3.720   6.335 -0.7283 -0.3242  0.6247
16434TIP3    H270718   3.461   3.596   6.390 -1.4479 -0.5958  0.8787
16435TIP3   OH270719   1.945   6.527  14.263  0.3392  0.0002  0.3738
16435TIP3    H170720   1.960   6.463  14.193 -0.2462  0.0087  0.2341
16435TIP3    H270721   1.920   6.607  14.217 -1.4486 -0.3808  0.6209
16436TIP3   OH270722   1.375   0.304   1.119  0.1496  0.8820  0.1953
16436TIP3    H170723   1.456   0.295   1.170  0.9995 -1.1610 -1.3566
16436TIP3    H270724   1.327   0.223   1.135 -0.7607  1.3092 -0.2804
16437TIP3   OH270725   3.918   6.672  12.449  0.8019  0.1311  0.8506
16437TIP3    H170726   3.897   6.630  12.365  0.8808  0.3917  0.6987
16437TIP3    H270727   3.834   6.673  12.496 -0.2135  3.4446 -0.7578
16438TIP3   OH270728   1.880   4.815   2.399  0.8452 -0.2085 -0.3687
16438TIP3    H170729   1.789   4.787   2.398  0.8886 -0.6075  1.8968
16438TIP3    H270730   1.924   4.757   2.337 -0.2000 -0.8977 -0.4823
16439TIP3   OH270731   4.290   2.125  16.626 -0.1774 -0.2213  0.8028
16439TIP3    H170732   4.235   2.055  16.660 -0.2993 -1.1884 -1.2388
16439TIP3    H270733   4.228   2.190  16.592 -0.0776 -0.3283  0.4072
16440TIP3   OH270734   0.881   2.039  11.823  0.5011  0.0141 -0.9650
16440TIP3    H170735   0.963   2.085  11.810  0.0044  1.0233 -0.6426
16440TIP3    H270736   0.815   2.096  11.784  0.0001 -0.9819 -1.5951
16441TIP3   OH270737   1.223   5.851   3.906 -0.0702 -0.0084 -0.1312
16441TIP3    H170738   1.287   5.895   3.850  0.7361  1.4270  1.8057
16441TIP3    H270739   1.180   5.921   3.954 -2.4010 -1.0245 -0.5975
16442TIP3   OH270740   0.663   0.365  15.979  0.3613 -0.2551 -0.3594
16442TIP3    H170741   0.747   0.326  16.003  0.2683 -0.3965 -0.2662
16442TIP3    H270742   0.617   0.377  16.063  0.4791  0.2547 -0.3661
16443TIP3   OH270743   0.518   3.977   6.134  0.3424  0.2152  0.6844
16443TIP3    H170744   0.579   3.925   6.187  0.6032  1.0040  1.1758
16443TIP3    H270745   0.460   4.018   6.199 -1.3173 -1.2330  0.1898
16444TIP3   OH270746   4.372   0.828  16.866 -0.1222  0.4182 -0.3173
16444TIP3    H170747   4.423   0.903  16.897  1.7711 -0.8874 -0.0997
16444TIP3    H270748   4.397   0.818  16.774  0.6564 -0.6938 -0.0099
16445TIP3   OH270749   5.447   4.407  12.312  0.0127  0.0944 -0.3522
16445TIP3    H170750   5.424   4.423  12.404 -2.3084 -0.3741 -0.7809
16445TIP3    H270751   5.435   4.491  12.269 -1.2183 -0.1937 -0.6123
16446TIP3   OH270752   4.313   4.103   4.775  0.0016  0.1931 -0.2306
16446TIP3    H170753   4.237   4.125   4.720 -0.5923 -0.4496  0.3214
16446TIP3    H270754   4.282   4.116   4.864  1.2992  2.3278 -0.0251
16447TIP3   OH270755   1.304   5.141   5.773 -0.4619  0.8209 -0.0964
16447TIP3    H170756   1.334   5.068   5.827 -0.5466  1.4130  0.7739
16447TIP3    H270757   1.382   5.194   5.758 -0.6215  1.1750  0.2872
16448TIP3   OH270758   4.280   4.234   5.159  0.3362 -0.5277 -0.0384
16448TIP3    H170759   4.201   4.253   5.210 -0.4570 -2.3974 -0.4803
16448TIP3    H270760   4.313   4.152   5.196  1.8056 -0.0451 -0.2019
16449TIP3   OH270761   3.358   4.394   3.808  0.2252  0.0406  0.2515
16449TIP3    H170762   3.264   4.408   3.806  0.2482  0.3554 -2.3926
16449TIP3    H270763   3.394   4.476   3.843 -0.4204  0.4448 -0.0216
16450TIP3   OH270764   0.116   0.828   0.930 -0.4308  0.0523  0.4595
16450TIP3    H170765   0.077   0.835   1.017  0.0681  1.1721  0.6006
16450TIP3    H270766   0.179   0.899   0.926  0.2841 -0.6158 -0.4484
16451TIP3   OH270767   1.255   0.756   4.505  0.1203 -0.3888  0.1421
16451TIP3    H170768   1.265   0.851   4.504  1.8036 -0.5410  0.4889
16451TIP3    H270769   1.340   0.723   4.533 -1.1484 -1.9009  2.5775
16452TIP3   OH270770   3.860   2.970  15.638  0.0373  0.3055  0.2029
16452TIP3    H170771   3.882   3.042  15.579  0.6234 -1.2312 -1.5700
16452TIP3    H270772   3.932   2.908  15.628 -0.8957 -0.9491  0.9312
16453TIP3   OH270773   0.253   5.651  15.253  0.0832 -0.5134 -0.3411
16453TIP3    H170774   0.237   5.603  15.334 -0.0044 -2.0484 -1.2338
16453TIP3    H270775   0.171   5.698  15.237  0.5439  0.8917  1.1224
16454TIP3   OH270776   3.874   5.567  14.230  0.1179  0.3947  0.0396
16454TIP3    H170777   3.905   5.589  14.142  0.6696  1.6957  0.5410
16454TIP3    H270778   3.942   5.510  14.266 -1.0028 -1.7196 -1.0247
16455TIP3   OH270779   3.764   3.127   3.985  0.2884  0.4277 -0.0200
16455TIP3    H170780   3.681   3.151   4.025 -0.1971  1.1722 -1.4139
16455TIP3    H270781   3.748   3.135   3.891  2.5095  2.6361 -0.3062
16456TIP3   OH270782   1.320   3.394  13.231  0.1389  0.8653 -0.6714
16456TIP3    H170783   1.394   3.343  13.199 -1.2683  0.6442 -3.9426
16456TIP3    H270784   1.346   3.485  13.219  0.9760  0.9162  1.1172
16457TIP3   OH270785   0.264   2.013   0.252 -0.2054 -0.1548 -0.2159
16457TIP3    H170786   0.320   1.936   0.239  0.0937  0.2366 -1.3066
16457TIP3    H270787   0.187   1.979   0.298 -0.2959 -1.2047 -1.1130
16458TIP3   OH270788   1.927   5.511   2.466 -0.1486 -0.3941 -0.9221
16458TIP3    H170789   1.981   5.588   2.446 -0.1352 -0.4396 -1.0640
16458TIP3    H270790   1.978   5.437   2.434 -0.1166 -0.4711 -0.6929
16459TIP3   OH270791   4.722   6.583  16.618 -0.1201  0.0430 -0.1375
16459TIP3    H170792   4.657   6.551  16.680 -0.3245 -0.7014 -0.7171
16459TIP3    H270793   4.672   6.641  16.559  0.2368  1.4231  0.8732
16460TIP3   OH270794   0.687   2.196   5.555  0.0288 -0.5497  0.0803
16460TIP3    H170795   0.603   2.154   5.572 -0.9621  1.9174  1.7775
16460TIP3    H270796   0.747   2.158   5.619 -0.6808  0.0974  1.1507
16461TIP3   OH270797   2.769   3.352   0.800 -0.4872 -0.2055 -0.6374
16461TIP3    H170798   2.699   3.286   0.792 -2.1152  1.3608 -0.0685
16461TIP3    H270799   2.794   3.349   0.893  0.7592 -1.2585 -0.9823
16462TIP3   OH270800   2.773   3.013  12.144 -0.2387  0.7425  0.1903
16462TIP3    H170801   2.700   2.959  12.174  0.0673 -0.2538 -0.7861
16462TIP3    H270802   2.837   3.008  12.215 -0.5169  0.4184  0.4239
16463TIP3   OH270803   2.727   2.854  16.249  0.0404  0.1614  0.5282
16463TIP3    H170804   2.659   2.916  16.276 -1.3670 -1.2950  0.4938
16463TIP3    H270805   2.777   2.837  16.328  0.6042  1.4924  0.4852
16464TIP3   OH270806   2.089   5.408   5.064  0.3120  0.0832 -0.4536
16464TIP3    H170807   2.101   5.332   5.006  1.6689  0.3273 -0.5319
16464TIP3    H270808   2.000   5.438   5.046  0.3575 -0.4519 -1.6880
16465TIP3   OH270809   3.629   1.027   5.183 -0.6383  0.1653  1.0224
16465TIP3    H170810   3.700   0.975   5.145  0.1107  2.6146 -1.2398
16465TIP3    H270811   3.553   0.969   5.183 -0.0611 -0.7745 -2.1525
16466TIP3   OH270812   0.178   4.282   4.309 -0.5413 -0.0527 -0.6102
16466TIP3    H170813   0.159   4.246   4.395  1.2594 -0.4542 -0.3547
16466TIP3    H270814   0.272   4.271   4.298 -0.4900  1.3929 -1.9937
16467TIP3   OH270815   0.408   3.660   3.459 -0.0175 -0.2338  0.1143
16467TIP3    H170816   0.485   3.610   3.485  0.5637 -0.6249 -2.1501
16467TIP3    H270817   0.433   3.701   3.376 -1.1458  2.2698  0.9106
16468TIP3   OH270818   5.625   5.954   1.170  0.5811 -0.1953  0.4026
16468TIP3    H170819   5.683   5.941   1.245 -0.0589 -0.4895  0.8610
16468TIP3    H270820   5.663   6.027   1.122  0.9550  0.0517  1.0623
16469TIP3   OH270821   4.815   5.525  16.571 -0.2621  0.0370  0.1637
16469TIP3    H170822   4.733   5.570  16.590 -0.8383 -1.5084  1.5625
16469TIP3    H270823   4.794   5.432  16.578  1.2792 -0.4319 -0.9227
16470TIP3   OH270824   6.659   5.443  13.775 -0.3656 -0.1878  0.3833
16470TIP3    H170825   6.635   5.478  13.689  0.8495  0.4454  0.2799
16470TIP3    H270826   6.647   5.348  13.766  0.1905 -0.1766 -0.6403
16471TIP3   OH270827   1.894   2.962  12.479  0.4538  0.2779 -0.1390
16471TIP3    H170828   1.865   2.950  12.388  0.4422  1.0966 -0.2514
16471TIP3    H270829   1.948   3.041  12.477  3.4959 -1.6415 -0.1172
16472TIP3   OH270830   4.158   0.367  12.451 -0.4869  0.4885  0.2696
16472TIP3    H170831   4.125   0.456  12.436  0.6723  0.8527 -0.2339
16472TIP3    H270832   4.085   0.310  12.427 -1.9183  1.3154  2.3569
16473TIP3   OH270833   4.689   2.294   5.230 -0.0522  0.4227 -0.1392
16473TIP3    H170834   4.732   2.257   5.307 -1.9586  0.3440  0.9610
16473TIP3    H270835   4.758   2.340   5.182  1.6312 -1.4117  0.4184
16474TIP3   OH270836   4.543   5.982  15.602  0.7277  0.3633 -0.0762
16474TIP3    H170837   4.452   5.977  15.572  0.3365  1.9950  0.7320
16474TIP3    H270838   4.541   5.951  15.692  1.0601 -0.0128 -0.1938
16475TIP3   OH270839   1.643   4.807   1.493  0.6608  0.1421  0.0169
16475TIP3    H170840   1.681   4.719   1.485 -2.5585 -1.3615 -0.8290
16475TIP3    H270841   1.645   4.841   1.404 -1.1642 -0.6321 -0.3849
16476TIP3   OH270842   5.149   3.327  15.488  0.4237  0.0875 -0.2889
16476TIP3    H170843   5.135   3.366  15.575 -0.2217  0.0641 -0.3712
16476TIP3    H270844   5.070   3.275  15.473  0.6986 -0.2039 -0.7360
16477TIP3   OH270845   4.861   0.186   4.288 -0.6810 -0.5953  0.2531
16477TIP3    H170846   4.782   0.211   4.242 -0.1776  0.8312  0.1125
16477TIP3    H270847   4.910   0.267   4.299  0.7433 -1.4247  0.3885
16478TIP3   OH270848   4.560   3.313  12.860  0.0598 -0.0796  0.1066
16478TIP3    H170849   4.469   3.336  12.842  0.4679  1.1469 -0.4937
16478TIP3    H270850   4.595   3.288  12.775  0.0387 -1.5131  0.5003
16479TIP3   OH270851   4.895   0.972  11.707 -0.1123  0.3322 -0.0015
16479TIP3    H170852   4.938   0.888  11.721 -1.4587 -0.2067  1.1221
16479TIP3    H270853   4.913   1.023  11.786 -0.1282  0.7284 -0.2484
16480TIP3   OH270854   6.679   1.535  12.728 -0.5186 -0.0770  0.3665
16480TIP3    H170855   6.697   1.475  12.801 -0.1182  0.0326  0.3578
16480TIP3    H270856   6.744   1.512  12.662  0.9060  1.6383  1.0917
16481TIP3   OH270857   1.525   1.020  13.729  0.1537  0.4068  0.2550
16481TIP3    H170858   1.488   0.933  13.746  0.2252  0.6180  1.6496
16481TIP3    H270859   1.619   1.006  13.727  0.2388  0.5896  1.6332
16482TIP3   OH270860   5.196   3.846  13.088 -0.0568 -0.1792 -0.0658
16482TIP3    H170861   5.112   3.812  13.058 -0.6545  1.4222 -0.3247
16482TIP3    H270862   5.215   3.797  13.168 -1.2826 -0.4957  0.0516
16483TIP3   OH270863   3.106   3.347   2.871 -0.5588 -0.0170  0.7276
16483TIP3    H170864   3.167   3.420   2.880 -0.3112  0.2379 -2.1515
16483TIP3    H270865   3.111   3.300   2.955  2.1006  1.1008  1.2763
16484TIP3   OH270866   2.878   3.464   1.319  0.2803 -0.1871  0.0538
16484TIP3    H170867   2.785   3.445   1.330  0.4298 -0.8067  0.3227
16484TIP3    H270868   2.922   3.383   1.345  0.9444  0.4296  0.9394
16485TIP3   OH270869   6.408   6.190  13.832  0.1444  0.4529  0.5642
16485TIP3    H170870   6.339   6.225  13.887 -1.6430  1.7840 -2.2874
16485TIP3    H270871   6.380   6.101  13.812 -1.6614  1.4189 -1.6989
16486TIP3   OH270872   1.970   4.522   1.710 -0.3985  0.2121 -0.0952
16486TIP3    H170873   1.953   4.493   1.621  0.1652 -0.9751  0.1529
16486TIP3    H270874   2.018   4.604   1.701 -1.9765  1.0783 -0.8430
16487TIP3   OH270875   2.368   1.053   5.449 -0.2378  0.0714 -0.6984
16487TIP3    H170876   2.322   1.107   5.513 -0.0533  0.5650 -0.9793
16487TIP3    H270877   2.415   0.989   5.501 -1.6959 -0.8246 -0.4208
16488TIP3   OH270878   6.540   2.902  13.897  0.3917  0.6928 -0.3608
16488TIP3    H170879   6.547   2.885  13.803 -0.1239  1.2901 -0.5158
16488TIP3    H270880   6.446   2.892  13.916  0.4352  0.9731  0.0125
16489TIP3   OH270881   4.163   4.102  11.970 -0.4471 -0.3050 -0.1962
16489TIP3    H170882   4.143   4.009  11.967 -0.9178 -0.2819  1.3991
16489TIP3    H270883   4.094   4.140  12.025 -0.7503  1.1321 -1.4795
16490TIP3   OH270884   1.631   5.994  12.358  0.2375 -0.5731 -0.9683
16490TIP3    H170885   1.714   6.040  12.344  0.5877 -0.4975  1.1189
16490TIP3    H270886   1.576   6.056  12.405 -0.7439 -0.9101 -1.6344
16491TIP3   OH270887   0.838   0.417  13.895  0.0706  0.7230 -0.2754
16491TIP3    H170888   0.853   0.322  13.887 -2.6840  0.2037 -0.2864
16491TIP3    H270889   0.814   0.445  13.807 -1.0365  1.0069  0.0977
16492TIP3   OH270890   0.918   3.988  13.188  0.5162 -0.1999 -0.0196
16492TIP3    H170891   0.949   3.922  13.126  0.6249 -1.5212  1.3703
16492TIP3    H270892   0.849   3.944  13.238  0.1830  0.9290  0.5593
16493TIP3   OH270893   0.982   5.648   3.534  0.1626 -0.5216 -0.2339
16493TIP3    H170894   0.919   5.711   3.570  0.0922  0.5999 -2.1842
16493TIP3    H270895   1.066   5.694   3.534  0.4335 -1.0030 -0.2489
16494TIP3   OH270896   3.801   0.411  11.561 -0.7524 -0.2614  0.1868
16494TIP3    H170897   3.797   0.454  11.646 -1.1899 -0.0687  0.0689
16494TIP3    H270898   3.710   0.401  11.534 -0.5935  1.3192 -1.0789
16495TIP3   OH270899   6.016   6.124  13.005  0.0834  0.6912  0.0708
16495TIP3    H170900   6.100   6.122  12.958 -0.6785 -1.3050 -1.3232
16495TIP3    H270901   6.038   6.097  13.095  0.9692  0.3817 -0.2272
16496TIP3   OH270902   0.816   2.505  11.887 -0.0122  0.0911 -0.2491
16496TIP3    H170903   0.896   2.505  11.835  0.3057 -1.1850  0.2052
16496TIP3    H270904   0.807   2.415  11.917 -1.4106  0.3082  0.0370
16497TIP3   OH270905   1.504   4.909   1.958 -0.5108  0.3794 -0.3740
16497TIP3    H170906   1.571   4.908   2.026 -1.0415  1.1378  0.1709
16497TIP3    H270907   1.475   5.000   1.954 -1.3418  0.1086 -0.7687
16498TIP3   OH270908   4.083   5.432  14.331 -0.5459  0.0839 -0.0056
16498TIP3    H170909   4.153   5.478  14.286 -0.2089  0.2839  0.7103
16498TIP3    H270910   4.096   5.340  14.308  0.7218 -0.0432  1.1272
16499TIP3   OH270911   6.779   4.974   4.635 -0.2609  0.6585 -0.2126
16499TIP3    H170912   6.814   5.008   4.717 -1.1830  0.3027  0.3349
16499TIP3    H270913   6.684   4.972   4.647 -0.2779 -1.9261 -0.2804
16500TIP3   OH270914   4.346   2.329  14.834  0.1674  0.3260 -0.1937
16500TIP3    H170915   4.348   2.256  14.773  2.0174 -0.8960  1.2141
16500TIP3    H270916   4.259   2.368  14.822 -1.4044 -2.8319 -0.2041
16501TIP3   OH270917   4.974   3.954   5.054  0.5473  0.8000 -0.0995
16501TIP3    H170918   4.917   4.028   5.073 -0.0967  1.0576 -2.5885
16501TIP3    H270919   4.940   3.919   4.971  0.3701 -2.7663  1.3291
16502TIP3   OH270920   3.747   3.160   2.022 -0.0587  0.2329  0.0275
16502TIP3    H170921   3.767   3.182   1.931  0.5771  0.6271  0.2523
16502TIP3    H270922   3.801   3.220   2.074  0.9401 -1.1407  0.6726
16503TIP3   OH270923   5.897   3.562   3.164  0.1717 -0.3835 -0.2912
16503TIP3    H170924   5.848   3.629   3.115  0.1567  1.2904  1.8521
16503TIP3    H270925   5.980   3.553   3.117 -0.1994  0.4619 -1.1363
16504TIP3   OH270926   2.996   4.813  13.129  0.4675 -0.3192 -0.0045
16504TIP3    H170927   3.004   4.751  13.202 -0.1080 -0.2720  0.1023
16504TIP3    H270928   3.067   4.875  13.142  1.0373 -0.9326 -0.0921
16505TIP3   OH270929   6.354   6.515  11.591 -0.2553  0.0116  0.1362
16505TIP3    H170930   6.443   6.552  11.585 -0.2572 -0.2008 -1.6099
16505TIP3    H270931   6.324   6.510  11.500 -0.8494 -2.8292  0.4015
16506TIP3   OH270932   5.090   4.300  12.062  0.2268  0.4025 -0.0817
16506TIP3    H170933   5.041   4.263  11.988  1.1422  0.1087 -0.5611
16506TIP3    H270934   5.126   4.382  12.027  2.5520 -0.8131 -0.7503
16507TIP3   OH270935   5.516   5.539  12.592  0.0681  0.1066 -0.0236
16507TIP3    H170936   5.577   5.475  12.629  0.7549 -0.1804 -1.5475
16507TIP3    H270937   5.480   5.585  12.667  0.5057 -1.2239  1.0417
16508TIP3   OH270938   3.299   4.547   4.097  0.1333 -0.0113  0.3003
16508TIP3    H170939   3.339   4.606   4.033  0.2182 -0.8892 -0.4799
16508TIP3    H270940   3.361   4.475   4.105  1.9059  1.6131  4.0351
16509TIP3   OH270941   0.533   5.747   4.235 -0.6472  0.2495  0.6016
16509TIP3    H170942   0.569   5.814   4.293  2.7419  0.0560 -1.0711
16509TIP3    H270943   0.605   5.685   4.223 -1.7910 -0.6491 -2.4006
16510TIP3   OH270944   0.992   4.596  11.021 -0.2073 -0.2736 -0.0624
16510TIP3    H170945   1.059   4.638  10.966  0.9075  0.0799  1.4756
16510TIP3    H270946   0.915   4.653  11.012 -0.3671 -0.7258 -1.9223
16511TIP3   OH270947   3.442   5.099  13.987 -0.0857 -0.1389 -0.1893
16511TIP3    H170948   3.538   5.104  13.984 -0.1206  0.3091 -2.0744
16511TIP3    H270949   3.416   5.168  14.048  0.7887 -0.1437  0.1977
16512TIP3   OH270950   3.302   4.762   3.659 -0.4520  0.4787  0.3306
16512TIP3    H170951   3.270   4.805   3.580  1.0061  0.2071 -0.4579
16512TIP3    H270952   3.244   4.791   3.728  0.2226  3.4406 -0.2104
16513TIP3   OH270953   3.143   2.142  16.376  0.0282  0.0980  0.7772
16513TIP3    H170954   3.206   2.092  16.427 -0.2039  0.5062  1.4687
16513TIP3    H270955   3.064   2.146  16.430 -0.0968  0.8547  0.5585
16514TIP3   OH270956   1.281   5.713   2.470 -0.2926  0.0729  0.4691
16514TIP3    H170957   1.293   5.773   2.396  2.0964 -0.2587  0.5187
16514TIP3    H270958   1.301   5.627   2.434 -0.0005 -0.2065  1.2759
16515TIP3   OH270959   4.000   1.503   1.215  0.7980  0.3750 -0.4198
16515TIP3    H170960   3.935   1.491   1.146  0.2302 -1.9704  0.4478
16515TIP3    H270961   3.953   1.551   1.283 -0.3854 -2.0521  0.5706
16516TIP3   OH270962   5.420   5.136   4.746 -0.2906 -0.2910  0.0435
16516TIP3    H170963   5.395   5.185   4.824 -1.5269 -1.7658  0.6201
16516TIP3    H270964   5.509   5.105   4.765  0.4591  1.5542 -0.2831
16517TIP3   OH270965   6.354   3.058  12.528  0.0672 -0.3421 -0.0032
16517TIP3    H170966   6.295   2.982  12.523  0.9683 -1.0283 -0.6395
16517TIP3    H270967   6.365   3.073  12.622 -1.3893  0.0317  0.1369
16518TIP3   OH270968   1.965   2.192  16.613 -0.5075  0.0968  0.5555
16518TIP3    H170969   1.911   2.114  16.615 -2.2374  1.1208 -1.6067
16518TIP3    H270970   1.908   2.262  16.644  0.4136  0.8111  0.6963
16519TIP3   OH270971   2.245   0.937  15.716  0.0598  0.5871  0.2420
16519TIP3    H170972   2.322   0.968  15.763 -0.6488  0.7003  1.3359
16519TIP3    H270973   2.227   1.005  15.651  0.8225  0.6015  0.0374
16520TIP3   OH270974   0.151   2.876   4.160 -0.5871  0.1354 -0.2747
16520TIP3    H170975   0.072   2.834   4.126 -0.5582 -0.4776  0.3909
16520TIP3    H270976   0.119   2.954   4.205 -0.6312  0.9294 -1.6191
16521TIP3   OH270977   5.048   2.388  14.708 -0.3957  0.3019  0.3921
16521TIP3    H170978   5.136   2.376  14.673 -0.1637  0.9361  0.7502
16521TIP3    H270979   5.060   2.386  14.803 -1.0131 -1.3655  0.4612
16522TIP3   OH270980   5.576   4.223  11.438 -0.6030  0.7092 -0.0605
16522TIP3    H170981   5.519   4.152  11.411 -1.2801  1.1049  0.2966
16522TIP3    H270982   5.648   4.180  11.485 -1.1619  0.2821  0.4112
16523TIP3   OH270983   6.256   5.420  10.890  0.5566  0.5823  0.1302
16523TIP3    H170984   6.328   5.371  10.851 -0.0622 -0.7493  0.6290
16523TIP3    H270985   6.178   5.390  10.844 -0.0717 -0.3425  1.7175
16524TIP3   OH270986   1.512   1.348  17.084 -0.0740  0.1493  0.1825
16524TIP3    H170987   1.452   1.413  17.120  2.0288  1.1544  2.2023
16524TIP3    H270988   1.599   1.382  17.105  1.2295 -1.4606 -2.1450
16525TIP3   OH270989   5.007   3.666   0.380 -0.0482 -0.3664 -0.5349
16525TIP3    H170990   5.037   3.678   0.290 -0.7010 -0.7400 -0.8060
16525TIP3    H270991   4.963   3.581   0.379  0.2550 -0.5361  0.2229
16526TIP3   OH270992   3.851   4.817   1.526  0.0939 -0.7721 -0.5232
16526TIP3    H170993   3.910   4.892   1.536 -2.1720  0.8140  2.5569
16526TIP3    H270994   3.782   4.849   1.467 -2.1129  0.6288  2.5645
16527TIP3   OH270995   1.897   2.749   4.867  0.2426  0.2554 -0.4162
16527TIP3    H170996   1.937   2.831   4.840 -1.2419  0.7543 -1.2205
16527TIP3    H270997   1.881   2.702   4.785 -0.3940 -0.1072 -0.0899
16528TIP3   OH270998   1.724   5.348   1.063  0.7906  0.2524 -0.2409
16528TIP3    H170999   1.751   5.258   1.042  1.2540  0.2141  0.4964
16528TIP3    H271000   1.680   5.378   0.984  0.5976 -0.6386 -0.4877
16529TIP3   OH271001   1.646   2.614   4.941  0.1690 -0.0086 -0.5750
16529TIP3    H171002   1.734   2.578   4.941  0.6934  1.1089  1.3874
16529TIP3    H271003   1.659   2.708   4.951 -1.2376  0.2839 -1.2989
16530TIP3   OH271004   2.288   0.577  15.952 -0.4975  0.5181 -0.1732
16530TIP3    H171005   2.268   0.483  15.945  1.0999  0.2018 -0.7846
16530TIP3    H271006   2.309   0.604  15.863  1.4662  0.8723  0.3612
16531TIP3   OH271007   4.719   0.316   0.770 -0.2447  0.5416 -0.0104
16531TIP3    H171008   4.735   0.368   0.849  0.3227  1.4278 -0.6766
16531TIP3    H271009   4.680   0.235   0.802 -0.3447  1.0192  1.1456
16532TIP3   OH271010   4.441   5.743  10.861 -0.1516 -0.2881 -0.2657
16532TIP3    H171011   4.346   5.750  10.863 -0.2838 -1.2847 -1.5796
16532TIP3    H271012   4.472   5.834  10.863 -1.1466  0.0702 -0.5456
16533TIP3   OH271013   4.972   2.236  17.088 -0.3074  0.1798  0.5891
16533TIP3    H171014   4.999   2.157  17.135  0.3316  0.6690  1.0670
16533TIP3    H271015   4.990   2.217  16.996  0.9597  0.1894  0.8150
16534TIP3   OH271016   0.019   2.713  15.902 -0.2474  0.1823  0.1094
16534TIP3    H171017   0.069   2.712  15.984 -0.1421  0.7979  0.0545
16534TIP3    H271018   0.045   2.633  15.858 -1.5517 -1.0306  1.4125
16535TIP3   OH271019   3.763   4.179   0.415  0.1408 -0.1720 -0.3286
16535TIP3    H171020   3.742   4.213   0.329 -1.5035  0.8665  0.4482
16535TIP3    H271021   3.681   4.144   0.449 -0.1568  2.5863  2.1834
16536TIP3   OH271022   1.826   3.616  11.717  0.5678  0.2600 -0.3423
16536TIP3    H171023   1.888   3.648  11.651  0.5892  0.0838 -0.4075
16536TIP3    H271024   1.881   3.591  11.791  0.5496  0.3909 -0.2849
16537TIP3   OH271025   2.336   4.282  13.051  0.4299  0.1630 -0.0817
16537TIP3    H171026   2.303   4.192  13.055 -0.9744  0.6867  1.8149
16537TIP3    H271027   2.277   4.332  13.108  1.8312  2.0838 -0.1921
16538TIP3   OH271028   2.595   3.685   1.637  0.0281 -0.0938 -0.1502
16538TIP3    H171029   2.528   3.648   1.579  0.1561 -0.4070 -0.1006
16538TIP3    H271030   2.619   3.768   1.596 -0.3245 -0.0268 -0.2192
16539TIP3   OH271031   5.541   6.563  11.462 -0.0588  0.3663 -0.4410
16539TIP3    H171032   5.550   6.537  11.370 -0.9243 -0.9054 -0.1951
16539TIP3    H271033   5.492   6.491  11.502 -1.5361  1.8524  0.5507
16540TIP3   OH271034   6.655   4.211   5.209 -0.3338  0.1575 -0.3077
16540TIP3    H171035   6.631   4.215   5.302 -0.4313 -0.7597 -0.2789
16540TIP3    H271036   6.715   4.137   5.203  0.1019  0.5503 -0.8956
16541TIP3   OH271037   3.729   6.205   2.346  0.8939  0.0796  0.3907
16541TIP3    H171038   3.808   6.245   2.383  2.2057 -0.6524 -1.4360
16541TIP3    H271039   3.712   6.255   2.266  1.1828 -1.4652 -0.6885
16542TIP3   OH271040   4.960   4.115  13.569  0.3019 -0.4456 -0.4228
16542TIP3    H171041   5.051   4.110  13.539  1.1196 -0.7628  1.9089
16542TIP3    H271042   4.929   4.024  13.564  0.3330 -0.4501 -0.5597
16543TIP3   OH271043   5.931   4.728   5.668  0.0429  0.2427 -0.2096
16543TIP3    H171044   5.955   4.750   5.578 -0.4214  2.3964  0.1333
16543TIP3    H271045   6.006   4.757   5.721  0.0001 -0.3202  0.1678
16544TIP3   OH271046   3.645   1.957  12.672  0.5334  0.0728 -0.3077
16544TIP3    H171047   3.615   2.036  12.717 -0.0311 -1.0514  1.4103
16544TIP3    H271048   3.739   1.970  12.662  0.8577  0.0546  2.0500
16545TIP3   OH271049   6.365   1.051   2.460  0.0801  0.5264 -0.0362
16545TIP3    H171050   6.427   1.059   2.533 -0.7870 -0.2495  0.8006
16545TIP3    H271051   6.314   1.132   2.463  0.2906  0.6586 -0.0110
16546TIP3   OH271052   2.652   0.473   4.382  0.0054  0.1534  0.6296
16546TIP3    H171053   2.722   0.524   4.340  0.2130 -0.2017  0.5279
16546TIP3    H271054   2.699   0.403   4.429 -0.3176 -1.0441 -0.7306
16547TIP3   OH271055   1.721   6.744   3.135  0.4876 -0.0062 -1.0115
16547TIP3    H171056   1.652   6.679   3.151  1.6001 -0.9440  0.2090
16547TIP3    H271057   1.697   6.819   3.190  0.2454 -0.1689 -0.8932
16548TIP3   OH271058   2.670   2.694  13.813  0.3092 -0.3027  0.0905
16548TIP3    H171059   2.741   2.673  13.874  1.7424 -0.2275 -1.5020
16548TIP3    H271060   2.629   2.772  13.851  2.5479  1.0437 -0.0991
16549TIP3   OH271061   3.987   3.221   3.040  0.0216  0.1764 -0.2037
16549TIP3    H171062   3.924   3.163   3.081 -1.1470  0.0562 -2.0410
16549TIP3    H271063   4.060   3.225   3.102 -1.8765  0.5816  2.1502
16550TIP3   OH271064   1.031   5.581  17.024 -0.3871 -0.0539  0.0551
16550TIP3    H171065   0.990   5.547  16.944  0.6999  1.3747 -1.1695
16550TIP3    H271066   0.960   5.584  17.088 -1.5624 -0.1738 -1.1900
16551TIP3   OH271067   2.203   3.512   1.564 -0.7329  0.4573 -0.2387
16551TIP3    H171068   2.248   3.444   1.615 -0.1818  0.4703 -0.6883
16551TIP3    H271069   2.116   3.518   1.603 -0.7199 -0.3672 -0.0595
16552TIP3   OH271070   1.291   1.459  16.044  0.3711  0.7924  0.0407
16552TIP3    H171071   1.206   1.414  16.048 -0.1025  1.5674 -0.9406
16552TIP3    H271072   1.338   1.426  16.121 -0.0913 -1.0871 -0.4161
16553TIP3   OH271073   2.124   4.358   5.303  0.0714 -0.1218 -0.0829
16553TIP3    H171074   2.048   4.361   5.244  0.6056 -0.8480 -0.8231
16553TIP3    H271075   2.146   4.450   5.318  0.4332  0.0739 -1.6939
16554TIP3   OH271076   1.785   4.944   0.036 -0.2773 -0.0019  0.1226
16554TIP3    H171077   1.798   5.018  -0.024 -0.4762 -0.2998 -0.2864
16554TIP3    H271078   1.825   4.974   0.118  2.9194 -0.7825 -1.0087
16555TIP3   OH271079   3.999   3.059   3.383 -0.7269 -0.3152  0.1226
16555TIP3    H171080   4.017   2.968   3.407  0.0669  0.1143  1.2150
16555TIP3    H271081   3.910   3.056   3.347 -0.1421 -1.7668 -1.3348
16556TIP3   OH271082   0.756   0.967  11.511 -0.0685  0.4859  0.0468
16556TIP3    H171083   0.725   1.022  11.439 -0.2041 -0.0378 -0.3008
16556TIP3    H271084   0.790   1.029  11.576 -0.5857  0.9989 -0.1628
16557TIP3   OH271085   3.470   1.715   3.267 -0.1537  0.1316  0.6353
16557TIP3    H171086   3.477   1.783   3.201 -2.0361 -1.5637 -1.4991
16557TIP3    H271087   3.382   1.726   3.304  0.2787  0.0709  1.7021
16558TIP3   OH271088   6.020   0.239  15.459 -0.9066  1.2175 -0.5256
16558TIP3    H171089   6.108   0.263  15.488 -1.1361  2.0840 -0.5102
16558TIP3    H271090   5.965   0.251  15.537 -0.8319 -0.6897 -0.1313
16559TIP3   OH271091   3.200   0.687  11.390  0.0708  0.0140  0.2684
16559TIP3    H171092   3.119   0.635  11.397  0.3920 -0.4183  0.8470
16559TIP3    H271093   3.210   0.727  11.476 -1.2467  2.7058 -0.7180
16560TIP3   OH271094   2.081   6.096   4.842 -0.7058  0.0624 -0.0329
16560TIP3    H171095   2.069   6.167   4.906  1.2110  0.5124 -0.1009
16560TIP3    H271096   2.013   6.033   4.864 -1.0595  0.9027  1.4802
16561TIP3   OH271097   5.621   3.657  14.956  0.2699 -0.0694  0.1397
16561TIP3    H171098   5.579   3.720  14.897  0.0198 -0.0760  0.3050
16561TIP3    H271099   5.556   3.587  14.966 -0.3677  0.6685  1.6451
16562TIP3   OH271100   4.109   4.029  14.213  0.1787 -0.1537  0.2622
16562TIP3    H171101   4.079   3.977  14.287 -0.4949 -0.8808 -0.5005
16562TIP3    H271102   4.188   4.072  14.245  0.2826 -0.9843  1.1849
16563TIP3   OH271103   3.814   4.564  13.606  0.4302 -0.0516  0.5233
16563TIP3    H171104   3.775   4.479  13.624 -0.1172 -0.0972 -0.7576
16563TIP3    H271105   3.860   4.552  13.523  0.0911  0.9812  0.1728
16564TIP3   OH271106   2.523   0.860   4.026 -0.1203  0.0047  0.2240
16564TIP3    H171107   2.545   0.816   3.944 -0.6591  0.0759  0.0399
16564TIP3    H271108   2.479   0.941   4.000 -1.2242 -0.4542  0.5772
16565TIP3   OH271109   2.786   3.201   3.189  0.3160 -0.0795 -0.1022
16565TIP3    H171110   2.725   3.260   3.234  0.6292  0.6276 -0.5779
16565TIP3    H271111   2.811   3.249   3.110 -0.9866 -1.7032 -1.5734
16566TIP3   OH271112   6.194   5.943  12.082 -0.5069 -0.2384 -0.3521
16566TIP3    H171113   6.238   5.933  12.166  1.1247  0.5455 -1.0786
16566TIP3    H271114   6.110   5.897  12.094  0.5296 -1.8982  1.0192
16567TIP3   OH271115   0.918   4.059  16.100 -0.3554 -0.3948 -0.7238
16567TIP3    H171116   0.870   4.098  16.027 -1.1896 -0.2697 -0.1167
16567TIP3    H271117   0.863   3.986  16.129  0.1443 -0.6662 -0.4461
16568TIP3   OH271118   4.070   3.442   4.280  0.0839 -0.2811 -0.5126
16568TIP3    H171119   3.997   3.494   4.314 -0.0132 -0.2022 -0.8306
16568TIP3    H271120   4.043   3.420   4.191  0.5525 -0.0403 -0.7185
16569TIP3   OH271121   4.470   0.041   5.824  0.2580 -0.4651 -0.2466
16569TIP3    H171122   4.538   0.009   5.883  0.9542 -2.4137 -1.9723
16569TIP3    H271123   4.501   0.126   5.794  1.4634 -0.8848 -0.2273
16570TIP3   OH271124   2.142   2.416  11.956 -0.0621 -0.1181  0.5867
16570TIP3    H171125   2.101   2.442  11.873 -2.3563  1.9661  2.2311
16570TIP3    H271126   2.236   2.411  11.935 -0.7522 -2.3561 -2.6955
16571TIP3   OH271127   1.188   0.076  13.754 -0.1592  0.8704  0.4287
16571TIP3    H171128   1.244   0.153  13.766  0.6758  0.3079  0.2418
16571TIP3    H271129   1.236   0.020  13.693 -0.8801  0.3226  0.3450
16572TIP3   OH271130   1.257   3.742   4.011 -0.0697 -0.4985  0.0380
16572TIP3    H171131   1.208   3.769   3.933 -0.3699 -0.6912  0.1588
16572TIP3    H271132   1.295   3.823   4.045 -0.8017 -0.2533  0.2874
16573TIP3   OH271133   4.854   4.518  11.950 -0.0486  0.5168  0.2069
16573TIP3    H171134   4.829   4.428  11.969  1.6445 -0.0087  0.1431
16573TIP3    H271135   4.943   4.526  11.984 -0.4007  2.3916  0.8322
16574TIP3   OH271136   2.986   4.090   5.100  0.0307 -0.3347  0.3668
16574TIP3    H171137   3.062   4.139   5.131 -0.0108  0.3010 -0.5090
16574TIP3    H271138   2.922   4.098   5.172  0.2212  0.4519  0.4606
16575TIP3   OH271139   1.382   0.336  12.872  0.2075 -0.1594 -0.1057
16575TIP3    H171140   1.472   0.366  12.868 -0.0356  0.8627  1.3011
16575TIP3    H271141   1.389   0.245  12.902  0.8199 -0.7519 -1.9037
16576TIP3   OH271142   3.631   1.598  13.334 -0.2011  0.4006 -0.2877
16576TIP3    H171143   3.659   1.660  13.266 -0.6135  0.6029 -0.2788
16576TIP3    H271144   3.559   1.549  13.293 -0.9624  1.0378  0.2450
16577TIP3   OH271145   2.471   1.312   0.588  0.1526  0.6478 -0.1287
16577TIP3    H171146   2.511   1.348   0.509 -0.9920 -1.6154 -1.8842
16577TIP3    H271147   2.397   1.260   0.556 -1.0351  0.5022  2.5442
16578TIP3   OH271148   4.541   4.977   1.731 -0.4365 -0.1421  0.2319
16578TIP3    H171149   4.619   4.967   1.786 -0.2376 -0.7622 -0.1480
16578TIP3    H271150   4.470   4.940   1.782 -0.2971 -0.4897  0.1765
16579TIP3   OH271151   6.407   4.963  13.068  0.4550  0.5965 -0.4464
16579TIP3    H171152   6.351   4.916  13.006  0.1514 -2.3847  1.8548
16579TIP3    H271153   6.481   4.992  13.015 -1.2670  1.0638 -2.7817
16580TIP3   OH271154   5.544   6.168  15.226 -0.2442 -0.0647 -0.3916
16580TIP3    H171155   5.456   6.200  15.208 -0.1478  1.7576  1.9381
16580TIP3    H271156   5.532   6.076  15.249 -1.1807 -0.4846 -2.3222
16581TIP3   OH271157   1.999   6.264  12.073  0.9308  0.1371 -0.1015
16581TIP3    H171158   1.970   6.175  12.095 -3.2825  0.7477 -2.1664
16581TIP3    H271159   1.965   6.319  12.142 -0.3858  0.5573 -1.0486
16582TIP3   OH271160   2.133   5.614  16.334 -0.2310 -0.2209 -0.1819
16582TIP3    H171161   2.089   5.630  16.250  1.0287 -0.6908 -0.9634
16582TIP3    H271162   2.174   5.697  16.356 -0.1009 -0.2451 -0.3265
16583TIP3   OH271163   3.732   4.704  12.146  0.2571  0.2892  0.8735
16583TIP3    H171164   3.688   4.639  12.199  0.2307 -0.0279  0.4726
16583TIP3    H271165   3.688   4.787  12.166 -1.0528 -0.1411 -0.0974
16584TIP3   OH271166   1.832   6.140  15.328  0.1929 -0.9795 -0.1119
16584TIP3    H171167   1.784   6.066  15.290  0.4300 -1.0905 -0.1966
16584TIP3    H271168   1.917   6.103  15.352  0.2844 -0.7511 -0.0887
16585TIP3   OH271169   1.847   2.845  13.081 -0.1492 -0.2585 -0.0579
16585TIP3    H171170   1.862   2.884  13.167  0.4103  2.3227 -1.2364
16585TIP3    H271171   1.928   2.797  13.062  0.0882 -0.0710  0.4548
16586TIP3   OH271172   2.853   3.706  14.496 -0.8247  0.7358  0.1283
16586TIP3    H171173   2.760   3.724  14.483 -0.9182  0.3753  0.2919
16586TIP3    H271174   2.865   3.616  14.466 -0.2023  1.2926 -1.4073
16587TIP3   OH271175   3.382   0.879  14.701 -0.3866  0.0453  0.1825
16587TIP3    H171176   3.289   0.861  14.692 -0.4894  0.5944  0.1263
16587TIP3    H271177   3.412   0.895  14.611 -0.5108  1.1802  0.3389
16588TIP3   OH271178   3.519   2.961  12.397 -0.3863 -0.0939 -0.7203
16588TIP3    H171179   3.519   3.056  12.411 -0.5433 -0.1951  0.0036
16588TIP3    H271180   3.469   2.949  12.317  0.0511  0.4738 -1.0829
16589TIP3   OH271181   6.237   0.863   0.192  0.2926  0.8766 -0.0251
16589TIP3    H171182   6.299   0.863   0.119 -0.6495 -0.9238 -0.8804
16589TIP3    H271183   6.291   0.855   0.270  1.2815  2.2283 -0.5451
16590TIP3   OH271184   6.626   3.908   2.206 -0.0342 -0.7667 -1.0548
16590TIP3    H171185   6.639   3.813   2.212  0.2506 -0.7204 -0.9141
16590TIP3    H271186   6.712   3.942   2.181 -0.1168 -0.5384 -1.0281
16591TIP3   OH271187   2.202   4.929  16.314 -0.6641 -0.1238 -0.2629
16591TIP3    H171188   2.139   4.880  16.366 -1.7041  2.1859  0.7855
16591TIP3    H271189   2.274   4.948  16.374 -0.6158  0.2467 -0.4317
16592TIP3   OH271190   1.582   2.175  14.579 -0.1996 -0.7651 -0.6475
16592TIP3    H171191   1.528   2.251  14.556  1.3635  0.1657 -1.4161
16592TIP3    H271192   1.519   2.108  14.604 -1.6666  0.6149 -0.4272
16593TIP3   OH271193   0.528   2.481   5.735 -0.6876  0.4359  0.1426
16593TIP3    H171194   0.517   2.393   5.770 -2.9804  0.3740 -0.5621
16593TIP3    H271195   0.564   2.531   5.808  1.2364 -1.1560  0.3773
16594TIP3   OH271196   6.338   2.023  12.108  0.4542  0.1235 -0.7791
16594TIP3    H171197   6.390   1.955  12.066  0.3799  0.3274 -1.2115
16594TIP3    H271198   6.317   2.084  12.037  1.5129  1.2208 -0.1927
16595TIP3   OH271199   4.802   3.849   0.355  0.3920 -0.0941 -0.3885
16595TIP3    H171200   4.762   3.786   0.295  1.2281 -0.5306 -0.5032
16595TIP3    H271201   4.889   3.813   0.373 -0.1270 -0.3953  1.7439
16596TIP3   OH271202   5.997   6.250  14.936  0.1878  0.2191  0.4499
16596TIP3    H171203   5.996   6.330  14.883  0.7026  1.1695  1.7798
16596TIP3    H271204   6.088   6.219  14.931  0.2677  0.3767  0.8275
16597TIP3   OH271205   1.382   2.206  15.499 -0.1599 -0.0002 -0.6333
16597TIP3    H171206   1.339   2.274  15.447  0.1356  1.6919  1.2175
16597TIP3    H271207   1.313   2.140  15.514 -0.9778  0.7593 -0.9560
16598TIP3   OH271208   0.975   2.301   4.703  0.3209 -0.1985  0.2816
16598TIP3    H171209   0.931   2.305   4.789  0.3402  1.4492  0.2424
16598TIP3    H271210   0.904   2.314   4.640  0.3150 -1.3706  0.0213
16599TIP3   OH271211   1.378   0.841  12.946 -0.4803  0.1642  0.4479
16599TIP3    H171212   1.394   0.894  12.868 -1.4305  1.0873  0.8481
16599TIP3    H271213   1.350   0.756  12.912  0.1629  0.2006 -0.2027
16600TIP3   OH271214   4.137   0.020  11.760 -0.1368  0.0599  0.1024
16600TIP3    H171215   4.170   0.001  11.672  0.7125  0.5881  0.2863
16600TIP3    H271216   4.104   0.110  11.753  0.6320  0.3820  0.4994
16601TIP3   OH271217   4.002   4.808  13.258 -0.1094  0.5937 -0.1971
16601TIP3    H171218   3.953   4.749  13.315  1.4983  0.6549  1.3082
16601TIP3    H271219   3.936   4.842  13.197 -1.3299 -1.6850 -0.2513
16602TIP3   OH271220   4.347   0.685   4.037 -0.5323  0.6815  0.2661
16602TIP3    H171221   4.365   0.734   3.958 -0.4451 -0.5389 -0.4965
16602TIP3    H271222   4.407   0.721   4.102 -1.0632  2.1382 -0.0262
16603TIP3   OH271223   3.159   4.791  16.746 -0.5511 -0.2952  0.6010
16603TIP3    H171224   3.104   4.718  16.719 -1.0826 -0.1593  1.2846
16603TIP3    H271225   3.108   4.836  16.812  0.6645 -0.5594  1.7636
16604TIP3   OH271226   5.374   0.859   2.509  0.1820 -0.0465  0.2238
16604TIP3    H171227   5.441   0.796   2.533  0.4125 -0.2020 -0.7558
16604TIP3    H271228   5.306   0.807   2.465  0.5285  0.3941 -0.8918
16605TIP3   OH271229   1.379   3.745   4.732 -0.1381  0.7203  0.1687
16605TIP3    H171230   1.408   3.825   4.776  1.8859  0.2160 -0.1386
16605TIP3    H271231   1.343   3.690   4.802  2.6152  0.1125  1.2657
16606TIP3   OH271232   5.021   2.062  16.380  0.0967 -0.4417  0.2395
16606TIP3    H171233   4.933   2.031  16.399  0.0666  0.7189  2.2837
16606TIP3    H271234   5.027   2.061  16.285 -3.3155  2.5687 -0.2107
16607TIP3   OH271235   0.999   4.659  14.536 -0.3670  0.0032 -0.3726
16607TIP3    H171236   1.021   4.718  14.609  1.1521 -0.5404 -0.3453
16607TIP3    H271237   0.928   4.703  14.489 -1.3450  0.3938  1.3877
16608TIP3   OH271238   6.126   1.016   4.702  0.2213  0.1690 -0.2183
16608TIP3    H171239   6.149   0.924   4.699 -0.9138 -0.1523  0.2862
16608TIP3    H271240   6.064   1.028   4.630  1.3222  0.8316 -1.0721
16609TIP3   OH271241   0.920   5.051  16.704 -0.0272 -0.3865 -0.3521
16609TIP3    H171242   1.011   5.038  16.731  0.4280 -0.5746 -1.8867
16609TIP3    H271243   0.869   5.027  16.781  1.1991 -0.9078  0.3363
16610TIP3   OH271244   3.732   2.125  11.167  0.7048  0.4314  0.2902
16610TIP3    H171245   3.812   2.075  11.186  0.3722  0.4588  1.8991
16610TIP3    H271246   3.723   2.120  11.071  1.5357 -1.2505  0.2605
16611TIP3   OH271247   0.252   6.157  17.026  0.4031 -0.2396  0.0405
16611TIP3    H171248   0.302   6.112  17.095  0.6678 -0.6605 -0.4231
16611TIP3    H271249   0.214   6.086  16.974  0.4755  0.0774 -0.4497
16612TIP3   OH271250   5.448   3.903   6.586  0.5019  0.2083  0.4517
16612TIP3    H171251   5.536   3.891   6.621  1.1856  1.0437 -0.9097
16612TIP3    H271252   5.431   3.823   6.537  0.3206 -0.1262  1.0437
16613TIP3   OH271253   4.654   6.579   5.190 -0.6695 -0.3315 -0.2118
16613TIP3    H171254   4.587   6.586   5.123  1.0586  2.9975 -1.8411
16613TIP3    H271255   4.671   6.670   5.217  2.6947 -1.0526  0.5500
16614TIP3   OH271256   2.648   3.636   5.565  0.1482  0.1937  0.6059
16614TIP3    H171257   2.735   3.670   5.585  0.3709  1.9789 -2.7892
16614TIP3    H271258   2.665   3.557   5.513 -0.3113 -0.3879  1.3212
16615TIP3   OH271259   5.717   1.931  15.766 -0.4998 -0.4618 -0.7577
16615TIP3    H171260   5.744   1.959  15.679 -0.7075 -1.2097 -1.0655
16615TIP3    H271261   5.792   1.949  15.822  0.3483 -1.7261 -1.4488
16616TIP3   OH271262   6.321   5.791  12.317 -0.4804  0.0613 -0.0665
16616TIP3    H171263   6.352   5.866  12.368  0.4001 -0.1843 -0.2315
16616TIP3    H271264   6.396   5.764  12.265 -1.0979 -0.2799 -0.8062
16617TIP3   OH271265   5.396   3.868  17.190 -0.0154  0.2895 -0.0808
16617TIP3    H171266   5.385   3.952  17.145 -3.0613  0.5236  0.8997
16617TIP3    H271267   5.490   3.864  17.210  0.4528  2.7814 -1.4058
16618TIP3   OH271268   3.533   2.559  14.832  0.0012  0.4920  0.1632
16618TIP3    H171269   3.624   2.546  14.857  0.2204 -1.1494 -1.2838
16618TIP3    H271270   3.537   2.583  14.739 -1.0829 -1.9693 -0.5965
16619TIP3   OH271271   1.595   0.930   0.491  0.0056  0.2196  0.0891
16619TIP3    H171272   1.597   1.020   0.525  0.5210  0.6965 -1.1245
16619TIP3    H271273   1.595   0.941   0.396 -1.7700 -1.0579 -0.0943
16620TIP3   OH271274   6.229   2.908  13.990 -0.3530 -0.3910  0.3715
16620TIP3    H171275   6.157   2.899  13.927 -0.8952  1.4414  0.6571
16620TIP3    H271276   6.255   2.818  14.010 -1.1511 -1.0444 -1.3417
16621TIP3   OH271277   3.343   6.458   4.851 -0.1195 -0.7007  0.6198
16621TIP3    H171278   3.368   6.549   4.835 -0.3547 -0.4853  1.4311
16621TIP3    H271279   3.424   6.408   4.836 -0.2976 -0.5184 -1.0818
16622TIP3   OH271280   6.063   1.520  13.427  0.5894 -0.4814 -0.4560
16622TIP3    H171281   5.984   1.567  13.402 -0.3203  0.2066  3.1584
16622TIP3    H271282   6.031   1.442  13.472  2.0137 -1.1045 -0.4765
16623TIP3   OH271283   6.770   0.332   6.137  0.1003  0.0454  0.0355
16623TIP3    H171284   6.864   0.314   6.142  0.5463  1.4366 -2.2397
16623TIP3    H271285   6.763   0.426   6.126 -1.7140  0.2275  1.9468
16624TIP3   OH271286   1.830   6.780  13.094  0.2692  0.2449  0.4902
16624TIP3    H171287   1.912   6.813  13.131 -0.2246  1.9040  0.1693
16624TIP3    H271288   1.762   6.821  13.147 -0.5195  3.4844 -2.6523
16625TIP3   OH271289   3.514   1.255  12.880  0.0228 -0.5696 -0.1992
16625TIP3    H171290   3.603   1.276  12.854  0.2302 -2.0837 -0.8521
16625TIP3    H271291   3.461   1.328  12.848  0.8233 -0.4433 -1.2768
16626TIP3   OH271292   5.258   0.514  12.942 -0.4877  0.1018  0.2040
16626TIP3    H171293   5.328   0.497  12.878  0.7071  2.4117  0.7633
16626TIP3    H271294   5.294   0.483  13.025  0.4715  2.2820  0.6964
16627TIP3   OH271295   6.511   3.838  13.095  0.3825  0.7360  0.4118
16627TIP3    H171296   6.598   3.810  13.127 -0.7530 -1.5719  1.7697
16627TIP3    H271297   6.523   3.851  13.001  1.7245 -1.8628  0.1408
16628TIP3   OH271298   2.229   3.006  16.962  0.3564  0.3691 -0.1036
16628TIP3    H171299   2.281   2.974  17.036  0.6816 -0.4084 -0.6512
16628TIP3    H271300   2.275   2.974  16.884 -0.2197  0.7942 -0.6328
16629TIP3   OH271301   3.971   5.650   1.831 -0.1815  0.5609 -0.0346
16629TIP3    H171302   3.882   5.618   1.817 -0.1118  1.0184 -1.7806
16629TIP3    H271303   3.982   5.650   1.926 -0.5798 -3.4451  0.1715
16630TIP3   OH271304   3.051   5.835  17.064 -0.3527 -0.3505 -0.2223
16630TIP3    H171305   3.144   5.852  17.079  0.2898 -3.0587 -0.6743
16630TIP3    H271306   3.008   5.872  17.141  1.6752 -3.6261  2.7793
16631TIP3   OH271307   2.831   0.682  13.471  0.3037 -0.6522 -1.0296
16631TIP3    H171308   2.834   0.641  13.385  2.0467 -0.3378 -1.1463
16631TIP3    H271309   2.906   0.645  13.518  0.2422  0.2831 -0.1708
16632TIP3   OH271310   6.515   2.548  13.201  0.2283 -0.4180 -0.6946
16632TIP3    H171311   6.504   2.529  13.107  1.5798  0.6601 -1.1044
16632TIP3    H271312   6.550   2.467  13.238 -0.5578 -0.9367 -1.0591
16633TIP3   OH271313   2.508   0.460   1.205 -0.4145 -0.0915  0.1248
16633TIP3    H171314   2.578   0.496   1.260 -1.0057 -0.4397  1.1346
16633TIP3    H271315   2.495   0.525   1.136  0.2212  0.4472  0.5033
16634TIP3   OH271316   5.551   5.753   3.829  0.3237  0.3173 -0.1917
16634TIP3    H171317   5.527   5.703   3.907 -1.2237  0.7761 -0.3414
16634TIP3    H271318   5.479   5.738   3.768  0.6726  1.3443 -0.8861
16635TIP3   OH271319   3.546   5.805  12.447  0.1902  0.3114  0.2575
16635TIP3    H171320   3.565   5.718  12.481 -1.5863 -0.4486 -0.5523
16635TIP3    H271321   3.469   5.793  12.391 -0.4951  2.5090  0.6139
16636TIP3   OH271322   2.909   1.510  15.616  0.3764 -0.0909 -0.0316
16636TIP3    H171323   2.861   1.524  15.698  0.8671  0.0694  0.2335
16636TIP3    H271324   2.995   1.477  15.643  0.9846  1.1169 -0.4046
16637TIP3   OH271325   6.070   1.022  15.182  0.1497 -0.2483 -0.3901
16637TIP3    H171326   6.153   0.983  15.154  0.3856  0.9454 -1.4559
16637TIP3    H271327   6.058   0.992  15.272  2.1303  0.1725  0.0591
16638TIP3   OH271328   1.667   0.231  14.227  0.8132 -0.4191 -0.0518
16638TIP3    H171329   1.722   0.290  14.174  2.5882 -1.0185  1.0193
16638TIP3    H271330   1.705   0.145  14.212 -0.1341 -0.9245  0.4127
16639TIP3   OH271331   6.066   3.487  11.317  0.0382  0.0821  0.2492
16639TIP3    H171332   6.031   3.559  11.265 -1.1136 -0.8538 -0.3189
16639TIP3    H271333   6.138   3.452  11.265 -1.8824 -1.6514 -1.4254
16640TIP3   OH271334   2.386   0.259   4.682 -0.5736  0.0083  0.2978
16640TIP3    H171335   2.317   0.295   4.738 -1.1723  0.3537 -0.6306
16640TIP3    H271336   2.364   0.167   4.672 -1.2970  0.2481 -0.5147
16641TIP3   OH271337   3.115   6.067  10.209 -0.5367 -0.4923  1.0581
16641TIP3    H171338   3.128   6.130  10.137 -1.5110 -0.7713  0.6121
16641TIP3    H271339   3.202   6.031  10.226 -0.3765 -0.8904 -0.4350
16642TIP3   OH271340   5.379   0.004  16.121 -0.1736 -0.1218 -0.5113
16642TIP3    H171341   5.404   0.074  16.061 -1.0476 -0.7184 -1.6097
16642TIP3    H271342   5.324   0.047  16.187  0.1436  0.4018 -0.5851
16643TIP3   OH271343   5.854   0.001   0.530 -0.1262  0.7117 -0.7942
16643TIP3    H171344   5.764  -0.030   0.541  0.1669  0.5332  1.6254
16643TIP3    H271345   5.899  -0.070   0.485 -1.1422  0.7683 -1.9581
16644TIP3   OH271346   5.357   0.140  15.278 -0.1388  0.4444 -0.3563
16644TIP3    H171347   5.446   0.105  15.290 -0.5741 -0.8904 -0.8257
16644TIP3    H271348   5.360   0.227  15.317  1.5783  0.7137 -1.0012
16645TIP3   OH271349   5.492   0.420  12.780 -0.0232 -0.2405 -0.3602
16645TIP3    H171350   5.476   0.371  12.699  1.0624 -0.5928 -0.3848
16645TIP3    H271351   5.565   0.373  12.822 -0.2637  0.2127  0.5921
16646TIP3   OH271352   0.414   0.178   0.372  0.6002  0.0006  0.2947
16646TIP3    H171353   0.489   0.234   0.391  0.7448  0.2200 -0.8868
16646TIP3    H271354   0.428   0.100   0.427  0.0022  1.3821  2.5567
16647TIP3   OH271355   3.431   5.947   1.873  0.2732  0.6319 -0.5098
16647TIP3    H171356   3.402   6.028   1.915  2.3805 -0.2802  3.1248
16647TIP3    H271357   3.391   5.877   1.925 -0.4325 -0.7318 -2.7495
16648TIP3   OH271358   6.599   4.362   0.103 -0.0144  0.3090  0.1387
16648TIP3    H171359   6.623   4.296   0.168  1.2626  1.7337  1.1826
16648TIP3    H271360   6.556   4.431   0.153 -2.8591 -0.3658 -1.1618
16649TIP3   OH271361   5.621   0.059   1.472  0.8215  0.3949  0.0222
16649TIP3    H171362   5.530   0.065   1.444  0.0627 -1.2541  1.9403
16649TIP3    H271363   5.657  -0.014   1.421  0.0765 -1.1219  1.5623
16650TIP3   OH271364   5.469   4.617   1.048 -0.9117 -0.1888  0.1690
16650TIP3    H171365   5.470   4.535   1.099  1.4053 -1.3227 -1.4874
16650TIP3    H271366   5.452   4.589   0.958 -1.3388  1.3349 -0.2532
16651TIP3   OH271367   1.845   0.782  16.352 -0.0735 -0.2812  0.1632
16651TIP3    H171368   1.928   0.817  16.384  0.2651 -1.4688  0.6313
16651TIP3    H271369   1.802   0.749  16.430 -0.4318 -0.8047 -0.2543
16652TIP3   OH271370   0.364   5.562  13.861 -0.2024 -0.3596 -0.2796
16652TIP3    H171371   0.353   5.656  13.872  0.1506  0.0142 -2.6242
16652TIP3    H271372   0.275   5.527  13.854 -0.3190 -0.0981 -0.0801
16653TIP3   OH271373   4.348   1.572   6.312 -0.3873  0.6146  0.1183
16653TIP3    H171374   4.437   1.609   6.306 -0.5786  0.9301 -0.9108
16653TIP3    H271375   4.353   1.511   6.386  1.0532 -0.3901 -0.7451
16654TIP3   OH271376   6.319   4.986  14.852 -0.2646 -0.0579 -0.5089
16654TIP3    H171377   6.347   5.016  14.765  2.8524  0.1388  0.4136
16654TIP3    H271378   6.276   5.062  14.891 -0.1544  0.4178 -1.2873
16655TIP3   OH271379   1.886   5.168   5.400 -0.0237  0.0706 -0.6937
16655TIP3    H171380   1.847   5.097   5.348 -0.5281  0.8869 -1.4474
16655TIP3    H271381   1.968   5.187   5.356  0.0593  0.0294 -0.5564
16656TIP3   OH271382   2.450   6.411  10.365  0.8746 -0.0135 -0.0533
16656TIP3    H171383   2.454   6.504  10.390  2.5860 -0.2307  0.6564
16656TIP3    H271384   2.357   6.391  10.361  0.4505  1.0482  2.4961
16657TIP3   OH271385   6.446   5.287  12.965  0.2841  0.4966  0.0910
16657TIP3    H171386   6.469   5.350  12.896 -1.4326 -1.5094 -2.5303
16657TIP3    H271387   6.522   5.229  12.970  1.0213  1.5112  1.0187
16658TIP3   OH271388   5.306   4.111   5.430 -0.5382  0.1412 -0.4948
16658TIP3    H171389   5.309   4.046   5.500  2.0883  1.5949  0.9091
16658TIP3    H271390   5.398   4.127   5.408 -1.1313  2.4390 -1.6531
16659TIP3   OH271391   2.208   5.306  12.373 -0.1222  0.2949  0.4348
16659TIP3    H171392   2.255   5.349  12.302 -2.0529 -0.3627 -1.3531
16659TIP3    H271393   2.195   5.375  12.438  1.4865  0.9844  0.0850
16660TIP3   OH271394   1.875   3.887   0.896  0.3437  0.4262 -0.5935
16660TIP3    H171395   1.782   3.880   0.876 -0.3065  1.3833  1.7901
16660TIP3    H271396   1.889   3.826   0.968  1.1437  1.5396  0.2327
16661TIP3   OH271397   3.537   1.123   3.412 -0.2761  0.2114  0.5371
16661TIP3    H171398   3.607   1.123   3.346 -1.7306  2.2547 -1.1321
16661TIP3    H271399   3.580   1.155   3.492  1.1334 -0.5890  0.1289
16662TIP3   OH271400   1.114   1.598  11.762  0.1615  0.2163  0.2115
16662TIP3    H171401   1.043   1.621  11.821  0.2947  0.3451  0.3221
16662TIP3    H271402   1.145   1.681  11.727  1.2082  0.2923  1.2693
16663TIP3   OH271403   4.869   4.695  14.687 -0.1811  0.1155 -0.1682
16663TIP3    H171404   4.827   4.712  14.602 -1.3701 -2.1878 -0.1420
16663TIP3    H271405   4.795   4.679  14.746  0.6476  1.2926  1.2232
16664TIP3   OH271406   1.313   5.557  14.390  0.6053 -0.5274  0.1978
16664TIP3    H171407   1.285   5.606  14.467 -0.5881 -1.9263  0.7051
16664TIP3    H271408   1.328   5.468  14.422 -0.1939 -1.2135 -1.2183
16665TIP3   OH271409   0.402   4.377  14.694  0.7009  0.3152  0.2787
16665TIP3    H171410   0.482   4.353  14.741 -0.2848  0.4367  2.1045
16665TIP3    H271411   0.357   4.293  14.679  1.8659  0.0336 -2.2497
16666TIP3   OH271412   5.195   5.892   0.050  0.5001 -0.4219  0.0459
16666TIP3    H171413   5.225   5.865   0.137  0.0635 -0.3591  0.2163
16666TIP3    H271414   5.179   5.809   0.004  0.8010 -0.4553  0.0001
16667TIP3   OH271415   6.717   4.707   5.719  0.1346  0.0223  0.3217
16667TIP3    H171416   6.811   4.722   5.729  0.0355 -0.0119  1.3852
16667TIP3    H271417   6.677   4.753   5.793 -0.8447  1.4911 -1.0592
16668TIP3   OH271418   0.933   2.097  12.711  0.1642 -0.5311  0.2245
16668TIP3    H171419   0.953   2.004  12.699  2.5070 -0.2575  1.4397
16668TIP3    H271420   0.918   2.107  12.805 -0.4010  0.2777  0.0644
16669TIP3   OH271421   3.400   0.196  15.542  0.3483  0.5645 -0.5967
16669TIP3    H171422   3.315   0.185  15.499 -0.1150  0.4367  0.3237
16669TIP3    H271423   3.382   0.253  15.617  1.1330  0.7563 -0.5438
16670TIP3   OH271424   2.270   4.022   3.942  0.3630 -0.3338 -0.1465
16670TIP3    H171425   2.224   3.970   4.008 -0.6832 -1.2182 -1.5180
16670TIP3    H271426   2.328   3.960   3.899 -0.1194 -0.1421 -1.0973
16671TIP3   OH271427   6.315   2.790  14.980 -0.5794 -0.2851 -0.1434
16671TIP3    H171428   6.291   2.849  15.051  0.7089 -0.9023  0.8426
16671TIP3    H271429   6.341   2.848  14.908 -2.7326  0.3508 -0.4620
16672TIP3   OH271430   4.408   4.237   3.408 -0.0818 -0.0135  0.9168
16672TIP3    H171431   4.502   4.232   3.393  0.1310 -0.9859  2.2618
16672TIP3    H271432   4.397   4.198   3.495 -1.6406  0.8151  1.1152
16673TIP3   OH271433   1.119   3.057  13.790 -0.2108  0.0178 -0.1917
16673TIP3    H171434   1.112   3.039  13.884  2.3607 -0.2097  0.0431
16673TIP3    H271435   1.059   2.995  13.749 -0.0910 -1.0902  1.2155
16674TIP3   OH271436   1.557   2.046  13.721  0.0258  0.5837 -0.2641
16674TIP3    H171437   1.597   2.077  13.640  0.6070 -1.7970 -0.9604
16674TIP3    H271438   1.624   1.988  13.759 -1.5906 -1.1616  0.0503
16675TIP3   OH271439   3.314   1.365  16.861  0.6305 -0.3086 -0.2380
16675TIP3    H171440   3.362   1.287  16.891  1.1261  0.1453  0.1668
16675TIP3    H271441   3.365   1.439  16.894  1.4284  0.2423 -2.5054
16676TIP3   OH271442   4.157   3.991   3.589 -0.0512  0.5328  0.7154
16676TIP3    H171443   4.211   3.916   3.563 -0.0933  0.9170 -0.5195
16676TIP3    H271444   4.137   3.975   3.681  1.4983 -0.0301  0.9858
16677TIP3   OH271445   1.235   1.929  11.301 -0.1147 -0.2892  0.2206
16677TIP3    H171446   1.326   1.956  11.303  0.5022 -2.0473 -1.0777
16677TIP3    H271447   1.211   1.929  11.208 -1.4146  0.0487  0.5261
16678TIP3   OH271448   4.138   1.035   2.609  0.4482  0.3112  0.4215
16678TIP3    H171449   4.045   1.028   2.628  0.3667  0.0082 -0.0611
16678TIP3    H271450   4.179   1.056   2.693 -0.2422  2.2107  0.3157
16679TIP3   OH271451   1.583   0.791   0.159 -0.5132  0.0288  0.1068
16679TIP3    H171452   1.498   0.752   0.179 -1.2430  1.5550  0.1489
16679TIP3    H271453   1.564   0.883   0.141  0.8629 -0.0239 -1.9620
16680TIP3   OH271454   6.783   5.408  12.403 -0.1614  0.4981  0.0481
16680TIP3    H171455   6.793   5.313  12.405 -0.8335  0.2724 -2.5861
16680TIP3    H271456   6.760   5.432  12.492  0.8281 -1.7010  0.9645
16681TIP3   OH271457   3.227   1.925  11.551 -0.1384 -0.1276  0.0200
16681TIP3    H171458   3.307   1.977  11.546  0.2085 -0.5766  0.7255
16681TIP3    H271459   3.209   1.898  11.461  0.0569  0.6355 -0.2515
16682TIP3   OH271460   5.633   0.201  16.699  0.3137  0.3033  0.4987
16682TIP3    H171461   5.643   0.201  16.604  1.9681  0.8108  0.6441
16682TIP3    H271462   5.540   0.222  16.713 -0.3398 -1.3751 -0.9927
16683TIP3   OH271463   3.416   5.827   3.937  0.7306  0.2325  0.6525
16683TIP3    H171464   3.351   5.891   3.909  0.6111  0.0295  0.4667
16683TIP3    H271465   3.414   5.831   4.033 -1.6426 -1.8151  0.7983
16684TIP3   OH271466   6.515   0.990  13.238  0.2973  0.4939 -0.2634
16684TIP3    H171467   6.448   0.975  13.171  1.1477  1.1450 -1.2760
16684TIP3    H271468   6.598   0.989  13.191  0.8953  1.2391  0.7419
16685TIP3   OH271469   2.119   0.487   2.846 -0.2168 -0.8757  0.0576
16685TIP3    H171470   2.114   0.581   2.827  0.9727 -1.3185 -2.9413
16685TIP3    H271471   2.050   0.448   2.793  0.5098 -1.8589 -0.1986
16686TIP3   OH271472   0.811   3.736   2.372  0.3120 -0.0275  0.4136
16686TIP3    H171473   0.791   3.697   2.458 -0.8361 -0.9897 -0.2578
16686TIP3    H271474   0.757   3.815   2.368 -0.3918 -0.5059  0.2041
16687TIP3   OH271475   5.272   0.524   4.112 -0.3580 -0.4125  0.7420
16687TIP3    H171476   5.201   0.462   4.098  1.0258 -2.3190  1.7241
16687TIP3    H271477   5.270   0.543   4.206  0.6213 -0.7963  0.8610
16688TIP3   OH271478   6.491   1.502   3.723 -0.5054 -0.3559 -0.3271
16688TIP3    H171479   6.539   1.424   3.695  2.0746  1.6300 -1.7804
16688TIP3    H271480   6.540   1.575   3.688 -3.2158  1.9818  0.3795
16689TIP3   OH271481   2.095   3.114  16.738  0.2484  0.2225 -0.2407
16689TIP3    H171482   2.180   3.122  16.695  0.6973 -1.2431  0.3254
16689TIP3    H271483   2.113   3.062  16.816 -1.4258 -1.3976 -0.8796
16690TIP3   OH271484   6.310   5.158  10.562  0.3489 -0.4049  0.2455
16690TIP3    H171485   6.364   5.088  10.525 -0.5281 -0.0211 -1.9163
16690TIP3    H271486   6.228   5.115  10.586  0.4463 -0.4179  0.5620
16691TIP3   OH271487   0.661   6.577  10.481  0.1706  0.0236  0.3671
16691TIP3    H171488   0.752   6.556  10.459  0.3958 -1.2100  2.1985
16691TIP3    H271489   0.666   6.614  10.569 -1.1531 -0.7189  0.7846
16692TIP3   OH271490   0.614   2.183   2.577  0.3851  0.1754  0.4906
16692TIP3    H171491   0.535   2.162   2.627 -1.1753  0.7053 -1.5611
16692TIP3    H271492   0.625   2.108   2.518  0.5377  0.7241 -0.2018
16693TIP3   OH271493   5.584   2.239   2.161 -0.4031 -0.7156 -0.5709
16693TIP3    H171494   5.617   2.233   2.250 -0.5515 -0.0010 -0.4588
16693TIP3    H271495   5.496   2.203   2.164 -0.9524  0.6023 -0.1126
16694TIP3   OH271496   6.305   3.017   3.951  0.1277 -0.4520 -0.4869
16694TIP3    H171497   6.257   2.967   3.886 -1.1126  1.2248 -0.9206
16694TIP3    H271498   6.347   3.087   3.901  0.7711 -0.2831  0.2654
16695TIP3   OH271499   2.397   3.269   3.686 -0.1459  0.3333  0.2040
16695TIP3    H171500   2.407   3.330   3.612  0.1494 -0.4900 -0.4441
16695TIP3    H271501   2.359   3.323   3.755  1.5292  1.6427  0.1681
16696TIP3   OH271502   1.973   1.511  10.991  0.2372  0.2690 -0.1816
16696TIP3    H171503   1.956   1.601  11.017 -0.9370  0.4390 -1.4413
16696TIP3    H271504   1.899   1.487  10.935  0.9827 -1.1731 -0.6116
16697TIP3   OH271505   4.023   2.108  10.677  0.0744 -0.0759  0.9161
16697TIP3    H171506   4.024   2.099  10.582  1.2613 -0.5389  0.9552
16697TIP3    H271507   3.949   2.166  10.695 -0.7192 -0.6978 -0.2217
16698TIP3   OH271508   1.495   4.518  16.254  0.1594  0.2718  0.4654
16698TIP3    H171509   1.565   4.532  16.318 -0.4868  0.8040  1.0568
16698TIP3    H271510   1.432   4.461  16.299 -0.1663  0.4301  0.2117
16699TIP3   OH271511   1.055   2.687  13.782 -0.1556 -0.0229  0.0853
16699TIP3    H171512   1.144   2.698  13.750  0.6932 -2.3482  1.3827
16699TIP3    H271513   1.014   2.628  13.718 -1.2885  2.1281 -1.2710
16700TIP3   OH271514   2.419   1.239   4.573 -0.1247 -0.9187 -0.4519
16700TIP3    H171515   2.339   1.278   4.609 -0.1599 -0.3023 -1.1661
16700TIP3    H271516   2.490   1.281   4.622 -0.2279 -1.2071 -0.0575
16701TIP3   OH271517   4.160   0.304   0.978 -0.0689  0.3678 -0.3846
16701TIP3    H171518   4.151   0.397   0.957  0.5664  1.3036  2.8224
16701TIP3    H271519   4.089   0.287   1.040  0.4527 -1.0095 -0.1329
16702TIP3   OH271520   5.089   2.939   5.453  0.2521 -0.3561 -0.0865
16702TIP3    H171521   5.122   2.983   5.531 -0.0343 -1.3816  0.6456
16702TIP3    H271522   5.096   2.845   5.474 -0.0945 -0.6479 -1.1840
16703TIP3   OH271523   4.708   1.682  16.783  0.0662 -0.2792  0.8525
16703TIP3    H171524   4.714   1.700  16.689 -0.5160 -3.9145 -0.0572
16703TIP3    H271525   4.785   1.629  16.802 -0.2284 -0.2464  2.2522
16704TIP3   OH271526   5.333   4.399   5.387 -0.1455 -0.0981 -0.3749
16704TIP3    H171527   5.260   4.348   5.353 -2.6009  3.1949 -0.5534
16704TIP3    H271528   5.338   4.375   5.480 -0.8932 -0.9949 -0.5488
16705TIP3   OH271529   3.023   3.872  11.715 -0.3196  0.2559 -0.2563
16705TIP3    H171530   3.079   3.918  11.653  0.1067 -0.4876 -0.4349
16705TIP3    H271531   3.066   3.885  11.800  0.3758 -0.6721 -0.4517
16706TIP3   OH271532   5.787   2.997   0.794 -0.1453 -0.1658  0.1245
16706TIP3    H171533   5.853   2.972   0.859  0.5952  0.5606 -0.3294
16706TIP3    H271534   5.767   2.915   0.749 -0.2864 -0.5773  0.9192
16707TIP3   OH271535   4.556   6.303  15.584 -0.3092  0.4189 -0.4368
16707TIP3    H171536   4.560   6.208  15.575  0.9037  0.4666 -0.5865
16707TIP3    H271537   4.463   6.322  15.593 -0.5799 -0.7710 -0.5009
16708TIP3   OH271538   4.735   5.244  16.364 -0.2107  0.3020  0.0702
16708TIP3    H171539   4.824   5.272  16.384 -0.7575  3.0871 -0.9769
16708TIP3    H271540   4.692   5.234  16.449  0.4726  1.2371  0.5341
16709TIP3   OH271541   2.284   2.174  12.851 -0.2865  0.0724 -0.0905
16709TIP3    H171542   2.201   2.155  12.894 -0.0684 -1.0596 -0.1323
16709TIP3    H271543   2.299   2.098  12.794  1.7755 -0.7614  1.4440
16710TIP3   OH271544   1.216   5.098   6.915 -0.2444 -0.5160 -0.2950
16710TIP3    H171545   1.211   5.019   6.969 -0.6706  0.3238  0.9261
16710TIP3    H271546   1.129   5.137   6.921  0.1940  0.4728 -0.2239
16711TIP3   OH271547   3.257   0.745   3.719 -0.0957 -0.2452  0.2451
16711TIP3    H171548   3.305   0.809   3.667  0.1296  0.2211  1.0034
16711TIP3    H271549   3.246   0.670   3.661 -0.1942  0.4027 -0.5952
16712TIP3   OH271550   3.399   0.887   5.201 -0.3611 -0.1829 -0.6454
16712TIP3    H171551   3.426   0.799   5.227 -0.6895  0.1576  0.9412
16712TIP3    H271552   3.329   0.873   5.137 -1.0486 -1.1098  0.2688
16713TIP3   OH271553   3.599   2.179   3.151  0.1361  0.4111 -0.2165
16713TIP3    H171554   3.550   2.195   3.231 -0.2110  3.8517 -0.9593
16713TIP3    H271555   3.539   2.128   3.096  0.1176 -1.3608  1.3741
16714TIP3   OH271556   6.664   6.387  14.328 -0.4311 -0.1718  0.1422
16714TIP3    H171557   6.758   6.394  14.315 -0.3538 -0.2529  0.6476
16714TIP3    H271558   6.654   6.340  14.411 -0.9149 -0.7151 -0.2128
16715TIP3   OH271559   5.397   2.961   4.719  0.1337  0.2874  0.1581
16715TIP3    H171560   5.411   3.055   4.728  1.4517  0.1074  0.3012
16715TIP3    H271561   5.443   2.923   4.795  1.1697 -0.5560 -0.8553
16716TIP3   OH271562   1.144   1.996   1.550  0.1270 -0.0339 -0.2426
16716TIP3    H171563   1.105   2.050   1.481 -0.8546 -2.4232 -1.6636
16716TIP3    H271564   1.092   2.015   1.628 -0.9229  0.2362 -0.9932
16717TIP3   OH271565   0.547   4.530  16.756  0.2912 -0.5935 -0.3752
16717TIP3    H171566   0.637   4.552  16.779 -0.2567 -1.2142  2.9482
16717TIP3    H271567   0.546   4.434  16.753 -0.1119 -0.5768 -1.3129
16718TIP3   OH271568   4.679   4.336   1.443 -0.4785 -0.3074  0.1155
16718TIP3    H171569   4.589   4.326   1.413  0.1533  0.2125 -2.1973
16718TIP3    H271570   4.722   4.385   1.373  1.9450 -1.7691  0.4566
16719TIP3   OH271571   0.002   2.999  11.691 -0.2231 -0.7121 -0.3071
16719TIP3    H171572  -0.078   3.015  11.740 -1.2752 -0.1474 -2.0986
16719TIP3    H271573   0.071   2.991  11.757 -1.1885  2.0551  1.1507
16720TIP3   OH271574   6.653   4.586   4.981  0.2556  0.0714  0.0609
16720TIP3    H171575   6.577   4.608   4.927  1.1417  5.2974  0.4386
16720TIP3    H271576   6.618   4.575   5.069 -0.2816  0.9504 -0.0294
16721TIP3   OH271577   4.772   1.050  11.160 -0.4749 -0.1037  0.0248
16721TIP3    H171578   4.866   1.028  11.159  0.4648  2.7612  3.7805
16721TIP3    H271579   4.738   1.005  11.237 -1.6654  0.7429  0.0121
16722TIP3   OH271580   0.812   1.715   0.349  0.0056 -0.6065 -0.2052
16722TIP3    H171581   0.901   1.679   0.343  0.7462  0.9670  0.7398
16722TIP3    H271582   0.760   1.643   0.385  0.8506 -1.5887 -0.8730
16723TIP3   OH271583   4.868   5.629   5.150 -0.1602  0.3816  0.2430
16723TIP3    H171584   4.949   5.661   5.110  1.5490 -2.2428  1.3221
16723TIP3    H271585   4.803   5.633   5.080  1.4823  0.4643 -1.3317
16724TIP3   OH271586   3.193   1.808  17.185 -0.7437 -0.1076 -0.2546
16724TIP3    H171587   3.252   1.872  17.146 -1.1053  1.4354  1.5849
16724TIP3    H271588   3.143   1.773  17.111  0.6492  0.4508 -1.5089
16725TIP3   OH271589   5.419   1.593  12.089  0.3345 -0.2063 -0.1745
16725TIP3    H171590   5.389   1.514  12.044  1.1949 -0.1699 -0.8515
16725TIP3    H271591   5.515   1.592  12.078  0.2939  1.4646 -1.1335
16726TIP3   OH271592   2.003   5.628  15.247  0.2155  0.1710 -0.1803
16726TIP3    H171593   1.920   5.674  15.254 -0.6178 -1.3282  0.3470
16726TIP3    H271594   2.009   5.577  15.328  0.8407 -1.0243 -0.9411
16727TIP3   OH271595   1.283   0.707   6.255  0.1036  0.2687 -0.6226
16727TIP3    H171596   1.317   0.638   6.312  1.2508  0.7029 -0.7439
16727TIP3    H271597   1.191   0.684   6.241  0.7504 -1.8893 -1.6536
16728TIP3   OH271598   0.664   3.666  17.026 -0.0331  0.4307  0.0527
16728TIP3    H171599   0.686   3.574  17.041 -0.9112  0.3210  0.7249
16728TIP3    H271600   0.721   3.692  16.954 -1.5033 -1.3424 -1.8678
16729TIP3   OH271601   3.492   6.265  15.711 -0.5292 -0.5904  0.0741
16729TIP3    H171602   3.507   6.338  15.650 -0.5525 -1.3315 -0.8505
16729TIP3    H271603   3.397   6.254  15.711 -0.5687 -0.2581  0.6534
16730TIP3   OH271604   4.264   4.371  14.393 -0.1812 -0.5219 -0.0715
16730TIP3    H171605   4.347   4.412  14.414 -0.0884 -0.4147 -0.6152
16730TIP3    H271606   4.287   4.299  14.333 -0.5719  0.2046 -1.1215
16731TIP3   OH271607   3.349   1.593  15.181  0.4518  0.4086 -0.2167
16731TIP3    H171608   3.277   1.643  15.142 -0.0182 -0.1092 -0.0357
16731TIP3    H271609   3.347   1.615  15.274 -1.4114 -1.8286  0.3669
16732TIP3   OH271610   5.490   2.399   2.764 -0.1991  0.2413 -0.1621
16732TIP3    H171611   5.461   2.364   2.680  0.4056  2.3716 -1.3450
16732TIP3    H271612   5.486   2.494   2.753  0.0660  0.5852  2.1806
16733TIP3   OH271613   0.735   6.724  12.149 -0.3134 -0.1666 -0.4775
16733TIP3    H171614   0.749   6.755  12.060  0.2034 -2.6656 -1.3356
16733TIP3    H271615   0.793   6.778  12.203  0.0736  0.7364 -1.7552
16734TIP3   OH271616   4.395   2.320   5.478  0.3615 -0.2154 -0.1591
16734TIP3    H171617   4.335   2.253   5.511 -1.0655  0.7186 -0.7444
16734TIP3    H271618   4.393   2.309   5.383  0.4938  0.3329 -0.2279
16735TIP3   OH271619   4.752   3.743   3.449  0.6894 -0.3172  0.2646
16735TIP3    H171620   4.665   3.704   3.436  1.1204 -1.0466 -0.5982
16735TIP3    H271621   4.804   3.708   3.377  1.4509  0.8718  0.2097
16736TIP3   OH271622   4.296   3.783  15.845  0.6507 -0.3502  0.0469
16736TIP3    H171623   4.233   3.851  15.868  0.8412 -0.2952  0.4137
16736TIP3    H271624   4.272   3.757  15.757 -0.0478 -0.5131  0.2839
16737TIP3   OH271625   5.866   5.666  14.094  0.2305 -0.3752  0.2914
16737TIP3    H171626   5.895   5.643  14.006 -1.3000 -0.4184 -0.2405
16737TIP3    H271627   5.780   5.624  14.102 -0.1006  0.4756  1.4324
16738TIP3   OH271628   0.507   0.060   4.206 -0.3441  0.2691  0.5119
16738TIP3    H171629   0.458   0.135   4.172  1.8729  0.7635 -1.8789
16738TIP3    H271630   0.465  -0.016   4.164  0.0918  0.5758 -0.5089
16739TIP3   OH271631   2.705   4.051  15.490  0.2496 -0.0106 -0.0548
16739TIP3    H171632   2.734   4.140  15.474  2.4115 -0.7986 -0.7849
16739TIP3    H271633   2.727   4.034  15.582  0.6924 -0.1090 -0.1813
16740TIP3   OH271634   4.526   5.742   3.284 -1.0207 -0.9282  0.0068
16740TIP3    H171635   4.435   5.759   3.260 -0.5815  0.3001 -0.8760
16740TIP3    H271636   4.554   5.821   3.330 -0.4761 -1.4273  0.5641
16741TIP3   OH271637   5.736   3.547   1.032 -0.3153  0.6600  0.5066
16741TIP3    H171638   5.751   3.509   1.118  0.2943 -1.2968 -0.4126
16741TIP3    H271639   5.719   3.472   0.975  0.1245  1.8330 -1.2485
16742TIP3   OH271640   5.232   4.462   3.145 -0.3723 -0.0697 -0.0236
16742TIP3    H171641   5.211   4.467   3.052  0.5583  1.8556 -0.1661
16742TIP3    H271642   5.169   4.521   3.187  0.6314  0.7839  0.2976
16743TIP3   OH271643   5.106   6.319   2.934 -0.1943 -0.8006 -0.2197
16743TIP3    H171644   5.105   6.229   2.902 -2.8350 -0.8426 -0.2375
16743TIP3    H271645   5.053   6.367   2.870 -1.8501  0.0108  1.6662
16744TIP3   OH271646   0.574   0.009  15.079 -0.3383 -0.3986  0.3423
16744TIP3    H171647   0.587   0.018  14.984  1.0332 -1.0673  0.4313
16744TIP3    H271648   0.607  -0.079  15.099  1.3918  0.5047  1.7418
16745TIP3   OH271649   4.179   3.908   2.082  0.1434 -0.6784  0.0381
16745TIP3    H171650   4.196   3.991   2.127 -0.4137  0.5857 -1.9851
16745TIP3    H271651   4.227   3.914   2.000 -1.0173 -1.7656 -0.7614
16746TIP3   OH271652   2.940   1.377  16.005 -0.0465 -0.8255 -0.2775
16746TIP3    H171653   3.006   1.309  16.017 -0.1467 -1.3174 -2.1946
16746TIP3    H271654   2.985   1.447  15.957 -0.4055 -0.2670  0.1747
16747TIP3   OH271655   6.029   6.303  15.762 -0.0205 -0.1866 -0.6943
16747TIP3    H171656   5.993   6.390  15.778 -0.0598 -0.6061  1.8874
16747TIP3    H271657   5.956   6.252  15.728  0.0151  0.7491 -2.2824
16748TIP3   OH271658   2.501   5.771   3.785  0.3818  0.0309  0.1096
16748TIP3    H171659   2.596   5.761   3.773  0.4401  1.5223 -0.8566
16748TIP3    H271660   2.483   5.861   3.760 -1.7492 -1.0482 -2.7299
16749TIP3   OH271661   1.538   5.148   0.147  0.2453  0.0013 -0.0599
16749TIP3    H171662   1.446   5.155   0.171 -0.1468 -0.6102 -1.2841
16749TIP3    H271663   1.537   5.134   0.052  1.5922 -0.1457 -0.0734
16750TIP3   OH271664   4.499   4.312  12.185 -0.6799  0.4771 -0.2656
16750TIP3    H171665   4.589   4.330  12.211 -0.4790  0.4065 -0.8944
16750TIP3    H271666   4.460   4.269  12.261  0.3601 -1.1849 -0.6112
16751TIP3   OH271667   4.694   2.188  13.219 -0.0759  0.0758  0.8372
16751TIP3    H171668   4.675   2.145  13.302 -1.8781  0.6205  0.7484
16751TIP3    H271669   4.617   2.170  13.165  0.6697  0.5021 -0.3982
16752TIP3   OH271670   5.607   6.012   2.575 -0.0146 -0.2615 -1.0219
16752TIP3    H171671   5.526   6.048   2.538 -0.5180 -2.2914 -2.0474
16752TIP3    H271672   5.595   6.017   2.669 -1.6822 -1.2081 -1.1539
16753TIP3   OH271673   0.646   2.631  16.150 -0.5522 -0.3987  0.2108
16753TIP3    H171674   0.724   2.577  16.166 -0.0592  0.0656 -0.5672
16753TIP3    H271675   0.607   2.641  16.237  0.8633  0.2690  0.8041
16754TIP3   OH271676   5.334   4.969  11.779 -0.4745  0.4815  0.1158
16754TIP3    H171677   5.292   4.913  11.714 -0.3268  2.0525 -1.4460
16754TIP3    H271678   5.333   5.056  11.739  1.7995  1.0895  1.1815
16755TIP3   OH271679   3.014   5.795   3.705  0.1405 -0.7127 -0.6348
16755TIP3    H171680   3.089   5.737   3.695  1.8772  1.3067 -0.0014
16755TIP3    H271681   3.017   5.852   3.628  0.9698  1.1613  0.7116
16756TIP3   OH271682   6.174   2.942   4.216  0.7957  0.1430  0.1367
16756TIP3    H171683   6.173   2.848   4.200 -0.8764  0.5081 -2.6263
16756TIP3    H271684   6.261   2.970   4.189  1.6630 -0.6706  1.9200
16757TIP3   OH271685   6.336   4.104  12.730  0.3000  0.0006 -0.3519
16757TIP3    H171686   6.242   4.116  12.720  0.2482 -0.6413 -0.7018
16757TIP3    H271687   6.369   4.190  12.755 -0.1668  0.6293 -1.7856
16758TIP3   OH271688   3.163   1.763  16.766 -0.3221  0.5712 -0.0385
16758TIP3    H171689   3.244   1.803  16.734 -0.4565 -0.0705 -1.2769
16758TIP3    H271690   3.099   1.780  16.696 -0.9198  0.0059  0.3595
16759TIP3   OH271691   3.322   6.464  12.804  0.0004  0.5088  0.1943
16759TIP3    H171692   3.360   6.403  12.867 -1.2721  0.7035  1.1938
16759TIP3    H271693   3.392   6.479  12.740  0.5924 -1.4191  0.3149
16760TIP3   OH271694   6.518   1.932   3.879 -0.0265  0.1065  0.4141
16760TIP3    H171695   6.573   1.859   3.908 -2.2047 -1.3683  1.0894
16760TIP3    H271696   6.579   2.002   3.860  2.1058 -1.6032  0.6158
16761TIP3   OH271697   2.745   1.987  15.885 -0.1374  0.5477 -0.5234
16761TIP3    H171698   2.782   2.063  15.841 -2.8027  1.0974 -1.9970
16761TIP3    H271699   2.802   1.914  15.859  0.7967  1.5686 -1.4083
16762TIP3   OH271700   3.630   4.187  10.759 -0.0462  0.0127  0.0710
16762TIP3    H171701   3.722   4.181  10.784  0.5787 -2.2676 -2.3255
16762TIP3    H271702   3.597   4.097  10.768 -1.7197  0.5474 -0.2895
16763TIP3   OH271703   6.401   4.422  11.737 -0.3602  0.6015  0.4099
16763TIP3    H171704   6.325   4.402  11.682 -0.3370 -2.8288  1.3855
16763TIP3    H271705   6.395   4.360  11.809  2.9471  0.7591  0.9603
16764TIP3   OH271706   1.041   6.485   2.913  0.5612 -0.1487 -0.6956
16764TIP3    H171707   0.987   6.534   2.850  0.0103 -0.3229 -0.3716
16764TIP3    H271708   1.081   6.415   2.861 -0.0389 -0.4060 -0.8195
16765TIP3   OH271709   3.237   1.539  15.980  0.5627  0.5954 -0.1352
16765TIP3    H171710   3.241   1.445  16.000  1.8906  0.4432 -0.9946
16765TIP3    H271711   3.267   1.581  16.061  2.4955  0.1397 -0.5688
16766TIP3   OH271712   3.808   4.929   2.531 -0.7549  0.0766  0.5673
16766TIP3    H171713   3.754   4.897   2.604 -0.4044 -0.6266  0.5266
16766TIP3    H271714   3.896   4.935   2.567 -0.8696  1.4256  0.6911
16767TIP3   OH271715   3.858   0.304   2.912 -0.0070  0.1128 -0.0241
16767TIP3    H171716   3.829   0.392   2.888 -0.9480  0.4038  1.9451
16767TIP3    H271717   3.952   0.314   2.930  0.3627  0.2181 -1.7769
16768TIP3   OH271718   5.139   2.157   4.799 -0.1245 -0.5217 -0.0039
16768TIP3    H171719   5.211   2.220   4.805  0.3231 -0.9863 -0.4260
16768TIP3    H271720   5.074   2.190   4.861 -0.0925  0.6021 -0.5497
16769TIP3   OH271721   0.483   3.819  13.671  0.9834  0.3674  0.1763
16769TIP3    H171722   0.439   3.861  13.597  0.5866  0.6537  0.5654
16769TIP3    H271723   0.535   3.749  13.632 -0.0688 -0.1864 -0.2604
16770TIP3   OH271724   0.693   3.411   0.328 -0.1077 -0.4379 -0.9700
16770TIP3    H171725   0.636   3.360   0.385 -0.7634 -0.7311 -1.8555
16770TIP3    H271726   0.633   3.447   0.261  0.4659  0.7906 -0.8459
16771TIP3   OH271727   5.158   5.629   4.362 -0.3059 -0.1282 -0.3305
16771TIP3    H171728   5.093   5.571   4.323 -1.1343  0.8899 -0.5205
16771TIP3    H271729   5.145   5.619   4.457 -1.9024  1.2583 -0.3494
16772TIP3   OH271730   3.350   3.996  16.695  1.1729  0.2803 -0.3778
16772TIP3    H171731   3.302   4.019  16.615  1.4507 -0.6876 -0.8335
16772TIP3    H271732   3.336   3.902  16.705  2.5762  0.0631 -0.2586
16773TIP3   OH271733   1.727   1.971  15.944 -0.1121 -0.2175 -0.4914
16773TIP3    H171734   1.769   1.942  16.025  0.7996  1.4620 -0.3252
16773TIP3    H271735   1.634   1.972  15.965 -0.1242 -2.0503 -0.2370
16774TIP3   OH271736   5.578   4.492  14.726 -0.3385  0.0643  0.4260
16774TIP3    H171737   5.519   4.545  14.781 -0.0619  0.3672  0.4336
16774TIP3    H271738   5.659   4.487  14.776  0.2932  1.2869 -0.4458
16775TIP3   OH271739   4.470   0.549  16.635  0.9966 -0.0562  0.0015
16775TIP3    H171740   4.375   0.560  16.629  0.7805 -2.0597 -1.4150
16775TIP3    H271741   4.506   0.629  16.596 -0.0247  1.2597  1.6080
16776TIP3   OH271742   5.355   2.870   0.936 -0.0430  0.4990 -0.2533
16776TIP3    H171743   5.277   2.848   0.987  0.0446 -1.0613 -0.7513
16776TIP3    H271744   5.428   2.850   0.995  0.0057  0.9689 -0.1539
16777TIP3   OH271745   4.242   0.805   2.060 -0.4494 -0.1843  0.5812
16777TIP3    H171746   4.236   0.820   2.154 -0.5892  2.1251  0.2634
16777TIP3    H271747   4.184   0.871   2.022  0.9965  0.1366 -1.1912
16778TIP3   OH271748   1.660   4.905  16.302  0.5994 -0.3912  0.2693
16778TIP3    H171749   1.653   4.824  16.353 -3.0581  0.7962  1.9618
16778TIP3    H271750   1.623   4.883  16.217 -0.3034 -0.5697  0.6947
16779TIP3   OH271751   2.338   2.746  13.573  0.6837  0.6333 -0.0901
16779TIP3    H171752   2.368   2.655  13.580  0.0813  0.3764 -0.8091
16779TIP3    H271753   2.323   2.772  13.664 -1.5785 -0.8266  0.0464
16780TIP3   OH271754   0.276   2.793   4.407  0.2074  0.4396 -0.5440
16780TIP3    H171755   0.295   2.708   4.368 -4.1225 -0.3418 -1.4536
16780TIP3    H271756   0.227   2.840   4.340 -3.1547  1.0023  2.0302
16781TIP3   OH271757   2.531   0.867  13.903 -0.0120  0.2965  0.1804
16781TIP3    H171758   2.462   0.834  13.960  1.9607 -2.1249  1.3633
16781TIP3    H271759   2.593   0.909  13.963 -0.0319  1.7576 -0.7680
16782TIP3   OH271760   4.709   5.135  14.390  0.6374  0.3442 -0.2091
16782TIP3    H171761   4.771   5.200  14.358 -0.4123  0.9993 -1.0019
16782TIP3    H271762   4.691   5.080  14.313 -0.5959  0.8645 -0.3184
16783TIP3   OH271763   3.871   1.169   1.228  0.4751  0.3901 -0.1702
16783TIP3    H171764   3.863   1.233   1.157 -1.1209  0.1760 -0.2174
16783TIP3    H271765   3.916   1.094   1.189  0.2911  0.5783 -0.7447
16784TIP3   OH271766   1.327   0.875   3.454 -0.4608 -0.7581  0.1914
16784TIP3    H171767   1.361   0.916   3.534 -1.0913 -0.9631  0.5681
16784TIP3    H271768   1.256   0.932   3.426 -1.3882 -1.6123  0.7587
16785TIP3   OH271769   4.296   6.534  15.087  0.1049  0.4504 -0.4052
16785TIP3    H171770   4.297   6.585  15.168 -1.1800 -0.7407  0.4095
16785TIP3    H271771   4.294   6.443  15.116 -1.7431  0.0101 -1.7170
16786TIP3   OH271772   5.044   0.151  11.155 -0.4224 -0.1614 -0.1854
16786TIP3    H171773   4.978   0.087  11.181 -0.7578  0.5602  0.8074
16786TIP3    H271774   5.024   0.171  11.064 -0.7231 -0.9629 -0.2992
16787TIP3   OH271775   3.499   5.332   4.902 -0.2669  0.5382  0.3834
16787TIP3    H171776   3.513   5.259   4.963 -2.5168 -1.1215 -0.8941
16787TIP3    H271777   3.577   5.333   4.847  0.1623 -0.3849  0.9562
16788TIP3   OH271778   4.674   0.048   5.210  0.1300 -0.6005 -0.8839
16788TIP3    H171779   4.600   0.101   5.179  0.2373 -0.1852 -0.4476
16788TIP3    H271780   4.722   0.106   5.269 -0.3165 -1.5062  0.4095
16789TIP3   OH271781   5.239   2.483  12.981 -0.1431  0.2341  0.8200
16789TIP3    H171782   5.251   2.447  12.893 -1.3919  0.1312  0.6697
16789TIP3    H271783   5.216   2.575  12.966 -0.8718  0.0895  1.0004
16790TIP3   OH271784   5.712   0.225  14.178  0.1321 -0.2863 -0.2213
16790TIP3    H171785   5.708   0.165  14.253  0.4359 -0.5733 -0.4301
16790TIP3    H271786   5.803   0.255  14.176  0.4958 -1.3778 -1.3166
16791TIP3   OH271787   2.686   3.365   1.066 -0.4163  0.3434 -0.7467
16791TIP3    H171788   2.741   3.318   1.128 -1.1176 -0.1215 -0.4705
16791TIP3    H271789   2.698   3.457   1.089  0.5832  0.2795 -0.9761
16792TIP3   OH271790   0.834   2.109   4.315 -0.7928  0.0791  0.3190
16792TIP3    H171791   0.883   2.075   4.390  0.5480 -1.9265 -1.3790
16792TIP3    H271792   0.820   2.034   4.258  0.3577  1.9128 -2.6204
16793TIP3   OH271793   2.989   4.224  12.960  0.4459  0.1107  0.4757
16793TIP3    H171794   2.996   4.313  12.925  0.7035  0.1529  0.6282
16793TIP3    H271795   3.039   4.227  13.042  1.3238 -0.4324 -0.0172
16794TIP3   OH271796   5.558   2.498  13.787  0.6062  0.1595 -0.4833
16794TIP3    H171797   5.550   2.586  13.823  1.6556  0.7269 -1.5658
16794TIP3    H271798   5.510   2.442  13.848 -0.5500  1.5498 -0.0765
16795TIP3   OH271799   1.925   6.430  12.465 -0.1271 -0.2743  0.4550
16795TIP3    H171800   2.001   6.372  12.463  0.1950  0.1340 -1.0804
16795TIP3    H271801   1.959   6.514  12.434 -0.6711  0.6434  2.2500
16796TIP3   OH271802   4.571   4.149  16.359 -0.3797 -0.2184 -0.1351
16796TIP3    H171803   4.522   4.075  16.393 -1.4947 -0.1220 -1.4204
16796TIP3    H271804   4.529   4.226  16.399 -0.4833 -0.1941 -0.2889
16797TIP3   OH271805   0.973   0.811  14.594  0.0174 -0.6401 -0.3887
16797TIP3    H171806   0.936   0.883  14.644  0.2396 -0.4840 -0.4501
16797TIP3    H271807   0.997   0.850  14.510  0.8936 -0.6013 -0.1311
16798TIP3   OH271808   5.905   5.402   3.932  0.0285  0.6436 -0.6096
16798TIP3    H171809   5.917   5.369   3.843  1.1646  2.2411 -1.0906
16798TIP3    H271810   5.834   5.465   3.924 -0.3686  0.2548 -0.2159
16799TIP3   OH271811   4.463   5.708  17.192  0.4766  0.4086  0.1903
16799TIP3    H171812   4.402   5.710  17.118 -0.3646  2.8096  0.8663
16799TIP3    H271813   4.420   5.651  17.256 -0.2320  0.6920 -0.0234
16800TIP3   OH271814   0.498   2.454  14.764  0.5676  0.2534 -0.3970
16800TIP3    H171815   0.545   2.416  14.838 -0.4722  0.1925  0.2597
16800TIP3    H271816   0.408   2.422  14.775  0.0274  1.5946 -0.7503
16801TIP3   OH271817   1.023   6.560  16.960 -0.3426 -0.3663 -0.3204
16801TIP3    H171818   1.008   6.482  17.014 -0.8382  1.2120  1.9847
16801TIP3    H271819   1.109   6.546  16.922  0.6977 -1.0252  2.0508
16802TIP3   OH271820   2.214   0.100   1.685 -0.1194  0.4351  0.1849
16802TIP3    H171821   2.259   0.170   1.733 -0.8562  0.3305  1.0374
16802TIP3    H271822   2.121   0.119   1.696 -0.3263 -0.6222  0.3239
16803TIP3   OH271823   1.680   2.653  14.099  0.3053  0.3037  0.2687
16803TIP3    H171824   1.587   2.654  14.075  0.5015  0.5112 -0.5049
16803TIP3    H271825   1.727   2.662  14.016  1.1512 -3.7619  0.1246
16804TIP3   OH271826   0.604   1.042   1.848  0.2085  0.3090 -0.2742
16804TIP3    H171827   0.547   1.021   1.774  0.6648  1.6039 -1.0169
16804TIP3    H271828   0.690   1.007   1.824  0.1912  0.0790 -0.0147
16805TIP3   OH271829   0.279   6.787  13.611  0.2928 -1.0234 -0.7363
16805TIP3    H171830   0.230   6.719  13.659  0.9575 -0.6413  0.5089
16805TIP3    H271831   0.240   6.786  13.523 -0.5670 -2.1381 -0.3702
16806TIP3   OH271832   5.128   2.630   3.842 -0.5894  0.2678 -0.3912
16806TIP3    H171833   5.085   2.685   3.908 -0.4883  2.7016 -2.2201
16806TIP3    H271834   5.215   2.670   3.830 -0.8227  0.2858 -2.3847
16807TIP3   OH271835   4.449   1.978   4.685 -0.3182 -0.5742  0.6127
16807TIP3    H171836   4.452   2.074   4.677 -1.1585 -0.6992 -3.4431
16807TIP3    H271837   4.405   1.962   4.768 -1.5403  2.5786  0.7156
16808TIP3   OH271838   0.791   0.620   3.767 -0.1719  0.4761 -0.1585
16808TIP3    H171839   0.868   0.634   3.823  0.6157  0.8261 -1.2824
16808TIP3    H271840   0.819   0.651   3.681 -2.0339  1.9573 -0.3056
16809TIP3   OH271841   3.526   5.009  16.319  0.3843  0.0059  0.5060
16809TIP3    H171842   3.471   5.045  16.250 -0.6522  0.0297  1.3146
16809TIP3    H271843   3.614   5.009  16.283 -0.1805 -0.2560 -0.9219
16810TIP3   OH271844   0.378   6.129   1.275  0.1311  0.6467  0.4954
16810TIP3    H171845   0.302   6.159   1.225  0.8953  0.2067 -1.0091
16810TIP3    H271846   0.429   6.209   1.290 -0.2580  0.8300  0.8600
16811TIP3   OH271847   2.157   1.696   0.384 -0.3057 -0.4132  0.3472
16811TIP3    H171848   2.245   1.732   0.388 -0.8990  1.0947  0.3835
16811TIP3    H271849   2.112   1.733   0.460 -1.6324  0.7305 -0.9548
16812TIP3   OH271850   3.221   5.645  11.853  0.4540  0.5499  0.2165
16812TIP3    H171851   3.194   5.626  11.943 -1.6939 -1.2838 -0.7250
16812TIP3    H271852   3.229   5.558  11.812  1.0620  1.3618 -1.4771
16813TIP3   OH271853   2.049   5.640   0.577  0.5142 -0.1554 -0.2206
16813TIP3    H171854   2.132   5.686   0.571  0.1688  0.3802 -1.0994
16813TIP3    H271855   2.064   5.572   0.642  1.0682  1.1414  1.0829
16814TIP3   OH271856   0.840   0.531  12.325  0.0017  0.0882 -0.2155
16814TIP3    H171857   0.790   0.502  12.249  0.2239  0.3178 -0.4555
16814TIP3    H271858   0.779   0.523  12.399  0.0512 -0.9455 -0.2735
16815TIP3   OH271859   5.801   0.979   1.748  0.0650  0.0391  0.5565
16815TIP3    H171860   5.735   1.035   1.707 -1.8792 -2.0594  0.5869
16815TIP3    H271861   5.787   0.893   1.709  2.3309 -0.6731  1.1544
16816TIP3   OH271862   2.529   3.939   5.647  0.3987  0.0741  0.6000
16816TIP3    H171863   2.602   3.933   5.586  0.5512  1.1330  0.6595
16816TIP3    H271864   2.451   3.923   5.593  0.6295 -0.5545  0.4425
16817TIP3   OH271865   1.672   6.632  12.241  0.0773  0.2231 -0.4593
16817TIP3    H171866   1.671   6.715  12.194 -0.7976 -0.3169 -1.4295
16817TIP3    H271867   1.764   6.606  12.243  0.5213  1.7395  0.8426
16818TIP3   OH271868   3.914   0.767  14.996  0.0259  0.1647 -0.2867
16818TIP3    H171869   3.977   0.726  14.937  2.1292  1.7994  0.7039
16818TIP3    H271870   3.888   0.848  14.950  0.1165  0.4387  0.1438
16819TIP3   OH271871   2.704   5.643   5.206  0.0427 -0.6028  0.0410
16819TIP3    H171872   2.717   5.548   5.212 -0.7977 -0.6999  0.5553
16819TIP3    H271873   2.733   5.676   5.292  0.9029 -0.3136 -0.3510
16820TIP3   OH271874   1.978   1.185   1.886  0.4154 -0.7254  0.1979
16820TIP3    H171875   1.891   1.171   1.848 -0.3663 -0.1213  1.6634
16820TIP3    H271876   2.038   1.138   1.828 -0.7021  0.0691 -1.6887
16821TIP3   OH271877   6.800   6.436   4.636  0.8127  0.3411 -0.1579
16821TIP3    H171878   6.825   6.362   4.581  1.2895 -0.6617  1.3510
16821TIP3    H271879   6.706   6.445   4.621  0.3121 -1.9219  1.1165
16822TIP3   OH271880   4.426   1.622   2.392  0.5042  0.6690 -0.1082
16822TIP3    H171881   4.451   1.626   2.484 -0.4862  0.0042  0.1906
16822TIP3    H271882   4.504   1.653   2.345  1.1720  0.5693  0.9166
16823TIP3   OH271883   4.723   2.677  12.106  0.0788  0.4294 -0.2762
16823TIP3    H171884   4.695   2.661  12.015  1.2714  0.5819 -0.6806
16823TIP3    H271885   4.654   2.636  12.159  0.0992 -0.9571 -1.2603
16824TIP3   OH271886   2.445   0.211   3.369  0.6668  0.5567  0.7843
16824TIP3    H171887   2.386   0.286   3.378  1.8507  1.7375 -0.8057
16824TIP3    H271888   2.466   0.188   3.460 -1.8420  0.3395  1.4072
16825TIP3   OH271889   6.292   6.488  11.320  0.2793  0.0680 -0.0903
16825TIP3    H171890   6.339   6.490  11.237  0.3584  0.9164 -0.0325
16825TIP3    H271891   6.204   6.522  11.299 -0.4448 -1.7978 -0.2620
16826TIP3   OH271892   3.357   6.745  16.582 -0.5637  0.0070  0.1715
16826TIP3    H171893   3.437   6.778  16.541 -0.0852  0.1458  1.1713
16826TIP3    H271894   3.383   6.660  16.619 -1.0160 -0.1744  0.0773
16827TIP3   OH271895   3.732   3.119  17.014  0.2661 -0.1729  0.3086
16827TIP3    H171896   3.818   3.156  16.991 -0.1648 -0.0184 -1.1373
16827TIP3    H271897   3.725   3.133  17.108  0.5834  2.5214  0.0089
16828TIP3   OH271898   2.799   4.888  15.784 -0.6838  0.1092 -0.2491
16828TIP3    H171899   2.733   4.868  15.717 -1.0078  0.3819 -0.0112
16828TIP3    H271900   2.882   4.875  15.739 -0.8727  2.2717 -1.3142
16829TIP3   OH271901   1.751   3.929  15.024  0.1481  0.0522 -0.0133
16829TIP3    H171902   1.822   3.865  15.013 -0.1835 -0.2486 -0.4175
16829TIP3    H271903   1.718   3.945  14.935 -1.2137 -0.8675  0.2974
16830TIP3   OH271904   0.501   4.032  15.902  0.0197 -0.1454 -0.5146
16830TIP3    H171905   0.507   4.102  15.838  1.3886 -0.7314 -1.0597
16830TIP3    H271906   0.583   3.983  15.893 -1.6143 -2.9317 -1.4504
16831TIP3   OH271907   3.687   2.958  11.459 -0.1692  0.1574  0.5093
16831TIP3    H171908   3.685   3.011  11.379  0.8089 -0.4653  0.0612
16831TIP3    H271909   3.652   3.016  11.526  0.3782  1.1939 -0.0747
16832TIP3   OH271910   4.598   0.730   1.429 -0.2667 -0.6003 -0.2639
16832TIP3    H171911   4.551   0.760   1.351 -2.2635 -1.9155  0.3521
16832TIP3    H271912   4.574   0.793   1.497  0.8567  0.1035 -0.4899
16833TIP3   OH271913   1.590   1.218  13.544 -0.2532 -0.9640 -0.3346
16833TIP3    H171914   1.549   1.141  13.584  0.6277 -2.0891 -1.4960
16833TIP3    H271915   1.677   1.222  13.585 -1.0849  0.8092  1.3859
16834TIP3   OH271916   2.755   0.959  14.067 -0.5689 -0.5464 -0.5668
16834TIP3    H171917   2.826   1.020  14.083 -1.9304  0.5578  1.6346
16834TIP3    H271918   2.798   0.879  14.037  1.4260  0.6276 -0.9631
16835TIP3   OH271919   1.074   1.092  12.095 -0.0141 -0.5976  0.0202
16835TIP3    H171920   1.005   1.030  12.119 -0.4221 -0.6164 -1.0991
16835TIP3    H271921   1.060   1.168  12.152 -1.1923 -0.4671 -0.4022
16836TIP3   OH271922   6.036   4.381   4.622 -0.1375 -0.2030 -0.2731
16836TIP3    H171923   6.093   4.308   4.646  0.6271  0.0745 -1.2028
16836TIP3    H271924   5.949   4.343   4.620  0.1756 -0.9545 -0.1569
16837TIP3   OH271925   2.236   0.150   5.598  0.1841 -0.1037 -0.0807
16837TIP3    H171926   2.286   0.206   5.539  1.6730 -1.5102 -0.2133
16837TIP3    H271927   2.287   0.070   5.605 -2.0899 -1.6864 -0.3014
16838TIP3   OH271928   2.090   5.959  12.283  0.3441 -0.2859  0.0579
16838TIP3    H171929   2.085   6.015  12.360  0.4934 -0.5973  0.2987
16838TIP3    H271930   2.004   5.918  12.278  0.1603  0.1377 -0.2514
16839TIP3   OH271931   4.185   3.443  16.518 -0.1386  0.4873 -0.0219
16839TIP3    H171932   4.194   3.436  16.613  2.2497 -0.6768 -0.2596
16839TIP3    H271933   4.130   3.369  16.493  0.0888  0.1911  0.3563
16840TIP3   OH271934   4.167   5.487   6.431 -0.1409  0.1671  0.2482
16840TIP3    H171935   4.236   5.428   6.462  0.0966 -0.1461 -0.8600
16840TIP3    H271936   4.086   5.451   6.468  0.0140 -0.7884 -0.3124
16841TIP3   OH271937   3.454   1.818  14.844 -0.5804 -0.2959 -0.1460
16841TIP3    H171938   3.506   1.744  14.812 -1.9417 -2.0089  1.3564
16841TIP3    H271939   3.402   1.845  14.768 -0.5148 -1.3085 -0.5749
16842TIP3   OH271940   3.189   4.229  10.997  0.0128  0.0083  0.2321
16842TIP3    H171941   3.126   4.205  10.929 -0.0586  2.3992 -0.6147
16842TIP3    H271942   3.267   4.177  10.976 -0.5327 -0.4558 -0.7177
16843TIP3   OH271943   2.842   1.989  12.444 -0.1888 -0.0274 -0.7043
16843TIP3    H171944   2.876   1.907  12.481 -1.5705 -0.4122 -0.2532
16843TIP3    H271945   2.906   2.055  12.471 -0.1984 -0.6085  0.8161
16844TIP3   OH271946   4.411   2.862   2.811 -0.3920 -0.0892  0.0009
16844TIP3    H171947   4.398   2.824   2.724  2.7805 -1.0973 -0.1545
16844TIP3    H271948   4.460   2.943   2.795  0.2615 -0.3058  0.8415
16845TIP3   OH271949   1.573   1.012   2.928 -0.0940  0.5199 -0.7242
16845TIP3    H171950   1.500   1.036   2.871  0.2675  0.0127 -1.4295
16845TIP3    H271951   1.608   0.933   2.888 -0.2339 -0.2405  0.5823
16846TIP3   OH271952   3.399   4.226  14.313 -0.4200 -0.3253 -0.0709
16846TIP3    H171953   3.367   4.288  14.247 -0.3710 -0.0188  0.1954
16846TIP3    H271954   3.479   4.189  14.274 -1.8101 -2.1805 -1.4075
16847TIP3   OH271955   4.603   1.298  13.632  0.0256  0.6106  0.1845
16847TIP3    H171956   4.565   1.212  13.616 -1.4733  1.0349  1.2439
16847TIP3    H271957   4.533   1.347  13.676  0.5442  2.6248 -1.0765
16848TIP3   OH271958   4.421   2.573   5.437  0.2035  0.3390 -0.5663
16848TIP3    H171959   4.399   2.481   5.453  2.1721  0.1326  1.4410
16848TIP3    H271960   4.342   2.621   5.460 -0.2577 -0.7509  0.1929
16849TIP3   OH271961   6.306   3.031  12.814 -0.0686 -0.1632  0.1105
16849TIP3    H171962   6.279   3.110  12.860  0.3242 -0.9907  1.8673
16849TIP3    H271963   6.238   2.966  12.834 -0.4597 -0.2774 -1.4140
16850TIP3   OH271964   6.160   2.285   5.020  0.0689 -0.2486 -0.3021
16850TIP3    H171965   6.208   2.367   5.029 -0.3840 -0.1423  1.3006
16850TIP3    H271966   6.225   2.217   5.040  0.3730 -0.2951 -1.3669
16851TIP3   OH271967   2.023   2.466  11.265  0.1144 -0.1607  0.0952
16851TIP3    H171968   1.999   2.558  11.257  2.2022  0.5223  0.8383
16851TIP3    H271969   1.944   2.418  11.241 -1.3096  1.8126  0.5443
16852TIP3   OH271970   3.855   2.806   6.574 -0.6599  0.6770  0.0292
16852TIP3    H171971   3.768   2.827   6.538 -1.7829  0.9619  2.7213
16852TIP3    H271972   3.838   2.739   6.640  1.3297  0.0946  0.0028
16853TIP3   OH271973   4.286   4.955   0.477  0.3585  0.1895 -0.8250
16853TIP3    H171974   4.241   4.877   0.444 -0.4818  0.5280 -0.5037
16853TIP3    H271975   4.273   4.952   0.572  2.3395 -0.5151 -0.5101
16854TIP3   OH271976   5.629   5.552  14.037 -0.1954 -0.6711  0.8896
16854TIP3    H171977   5.565   5.574  13.970  1.7371  0.7892 -0.5726
16854TIP3    H271978   5.584   5.568  14.120 -1.5607  0.7851 -0.0915
16855TIP3   OH271979   3.150   2.710  14.930  0.4602  0.2565 -0.6658
16855TIP3    H171980   3.169   2.634  14.875  3.3702  0.0723  0.3989
16855TIP3    H271981   3.089   2.677  14.996 -0.9002 -0.2274 -2.1126
16856TIP3   OH271982   2.661   5.970   2.013  0.6561 -0.4603 -0.2832
16856TIP3    H171983   2.654   5.895   2.072 -0.2071 -0.2647 -0.1176
16856TIP3    H271984   2.574   5.976   1.973  1.1803 -0.5074 -1.4840
16857TIP3   OH271985   4.880   6.410   5.938 -0.2806 -0.1355  0.5196
16857TIP3    H171986   4.874   6.351   5.864  0.2287  1.0387 -0.4939
16857TIP3    H271987   4.798   6.460   5.936 -1.7153 -2.1901  2.6684
16858TIP3   OH271988   2.044   3.387   0.871 -0.0220  0.0263 -0.0205
16858TIP3    H171989   2.038   3.364   0.964 -0.0030 -1.0761 -0.2771
16858TIP3    H271990   1.986   3.325   0.828 -0.3347  0.7868 -0.7170
16859TIP3   OH271991   2.357   3.599   0.078 -0.5169 -0.4459 -0.3323
16859TIP3    H171992   2.306   3.639   0.008  0.6298 -0.9709 -1.5040
16859TIP3    H271993   2.357   3.506   0.058  0.4301 -0.5191 -0.0321
16860TIP3   OH271994   1.405   2.443  11.926  0.3786 -0.1445 -0.1961
16860TIP3    H171995   1.364   2.499  11.860 -2.5067 -2.7336 -0.8630
16860TIP3    H271996   1.441   2.370  11.876 -1.1367 -1.7413  0.9299
16861TIP3   OH271997   4.483   2.993  16.765  0.2159 -0.1316  0.1850
16861TIP3    H171998   4.457   3.078  16.731  0.3391  0.3799  1.3535
16861TIP3    H271999   4.471   2.933  16.691 -1.5136  0.5806 -0.1433
16862TIP3   OH272000   3.734   4.885  16.957 -0.1900 -0.1233 -0.0689
16862TIP3    H172001   3.812   4.932  16.987  0.6382 -0.3780 -1.6623
16862TIP3    H272002   3.755   4.793  16.972  0.1034 -0.2325 -1.0087
16863TIP3   OH272003   1.085   3.887   0.033 -0.2224 -0.3694  0.1661
16863TIP3    H172004   0.998   3.921   0.054 -0.5503 -0.8428 -0.3878
16863TIP3    H272005   1.141   3.916   0.105 -0.2814  2.0766 -0.6778
16864TIP3   OH272006   2.442   1.605  10.683 -0.2383  0.0693  0.2060
16864TIP3    H172007   2.381   1.675  10.705  0.7932  1.0058  0.2151
16864TIP3    H272008   2.435   1.595  10.589 -1.6644 -1.0638  0.4084
16865TIP3   OH272009   0.893   1.518  17.021 -0.1871  0.3107 -0.1957
16865TIP3    H172010   0.815   1.501  16.968 -0.2685  0.3044 -0.0740
16865TIP3    H272011   0.864   1.503  17.112 -0.1050  0.5280 -0.1329
16866TIP3   OH272012   3.877   1.883   3.647  0.5259 -0.7129 -0.1681
16866TIP3    H172013   3.910   1.806   3.693  0.9263 -1.4505 -1.6366
16866TIP3    H272014   3.846   1.850   3.563 -1.7282  0.3395  0.1630
16867TIP3   OH272015   6.452   4.072  16.390 -0.6202 -0.3763 -0.0042
16867TIP3    H172016   6.458   3.993  16.335 -0.0089  0.9790 -1.9997
16867TIP3    H272017   6.534   4.119  16.372 -0.2302 -0.0236  2.3932
16868TIP3   OH272018   1.705   1.437  13.867  0.0750  0.5136  0.0546
16868TIP3    H172019   1.632   1.466  13.922  0.4251  1.7540 -0.1025
16868TIP3    H272020   1.720   1.510  13.807  0.9870 -0.0167 -0.3871
16869TIP3   OH272021   0.289   1.443   1.645  0.5597  0.5289  0.1093
16869TIP3    H172022   0.204   1.422   1.683  0.6926 -1.1993 -0.4608
16869TIP3    H272023   0.352   1.422   1.713  0.5462  2.3433  0.7385
16870TIP3   OH272024   5.806   2.947  16.939 -0.0494  0.2516 -0.4580
16870TIP3    H172025   5.791   2.862  16.898 -2.3801  0.3818 -0.0527
16870TIP3    H272026   5.859   2.996  16.877  1.8489 -1.6555 -0.4411
16871TIP3   OH272027   6.200   1.626   3.183  0.0687 -0.9213 -0.0911
16871TIP3    H172028   6.185   1.683   3.259 -0.2039 -0.3433 -0.5655
16871TIP3    H272029   6.295   1.617   3.177  0.1409 -0.1492 -0.2619
16872TIP3   OH272030   0.615   4.451  16.092 -0.1616  0.3672 -0.6211
16872TIP3    H172031   0.683   4.420  16.152 -0.3293 -0.0459 -0.6424
16872TIP3    H272032   0.575   4.525  16.137 -0.3267  0.0220 -0.1906
16873TIP3   OH272033   1.453   6.157   0.374  0.0264  0.5195  0.0840
16873TIP3    H172034   1.510   6.081   0.366  0.5884  0.9061  0.3244
16873TIP3    H272035   1.368   6.128   0.341  0.0862 -0.3765  0.6993
16874TIP3   OH272036   4.122   2.780   0.417  0.3423 -0.5748 -0.2444
16874TIP3    H172037   4.110   2.718   0.489 -0.0127 -0.1609  0.0582
16874TIP3    H272038   4.181   2.846   0.452  0.4447 -0.5543 -0.4520
16875TIP3   OH272039   0.029   0.148   3.164 -0.1845  0.1410  0.7028
16875TIP3    H172040  -0.040   0.082   3.174 -1.0303  0.8540 -0.1987
16875TIP3    H272041   0.042   0.155   3.070 -0.1395  1.2802  0.7812
16876TIP3   OH272042   0.908   3.085  11.659  0.0775 -0.0809 -1.1283
16876TIP3    H172043   0.961   3.005  11.655  1.0895  0.5291 -0.5453
16876TIP3    H272044   0.847   3.070  11.732  2.3689  0.8266  1.1380
16877TIP3   OH272045   0.371   4.954   4.295 -0.1347  0.3518 -0.2737
16877TIP3    H172046   0.445   4.894   4.285  0.8024  1.7631 -2.7893
16877TIP3    H272047   0.410   5.034   4.331 -1.1914 -0.1052  2.0694
16878TIP3   OH272048   6.117   4.479  15.633 -0.2496 -0.1194 -0.1273
16878TIP3    H172049   6.207   4.451  15.650 -0.5240 -0.3254  1.1016
16878TIP3    H272050   6.085   4.509  15.719 -0.6589  1.9898 -0.9445
16879TIP3   OH272051   6.678   1.486  15.161  0.1129 -0.3104 -0.1362
16879TIP3    H172052   6.732   1.562  15.183  0.2328 -0.0889 -1.1566
16879TIP3    H272053   6.595   1.524  15.132 -0.3177 -0.6227  0.6715
16880TIP3   OH272054   2.590   5.747   2.154 -0.2986 -0.1045  0.3002
16880TIP3    H172055   2.546   5.727   2.071 -1.1412  2.0583  0.1365
16880TIP3    H272056   2.660   5.683   2.161 -0.8268 -0.9509 -1.6002
16881TIP3   OH272057   3.208   6.274  11.173  0.0577 -0.1039 -0.0401
16881TIP3    H172058   3.248   6.199  11.128  0.5700  0.1669 -0.0493
16881TIP3    H272059   3.278   6.339  11.177 -1.0202  1.3449 -2.1976
16882TIP3   OH272060   6.164   1.408  16.400 -0.1005 -0.2906  0.4855
16882TIP3    H172061   6.092   1.419  16.463  0.6955  0.1270  1.3302
16882TIP3    H272062   6.147   1.473  16.332 -0.6389 -0.3414  0.5677
16883TIP3   OH272063   4.232   1.274  11.704 -0.7582 -0.2434  0.0576
16883TIP3    H172064   4.208   1.206  11.641 -0.2712 -2.7658  2.4250
16883TIP3    H272065   4.297   1.233  11.761  0.7441  2.7379  0.7378
16884TIP3   OH272066   5.512   4.227  16.272 -0.0178  0.1412  0.2888
16884TIP3    H172067   5.427   4.265  16.293  0.1616 -0.1697  1.6856
16884TIP3    H272068   5.551   4.206  16.357  1.8172  1.0356 -0.2796
16885TIP3   OH272069   2.079   6.782  15.845  0.9417  0.2028 -0.0980
16885TIP3    H172070   2.061   6.871  15.875 -0.1865  0.0870 -0.3869
16885TIP3    H272071   2.090   6.731  15.926 -0.3258  0.2386  0.1102
16886TIP3   OH272072   0.932   3.817   0.761 -0.2893  0.1427  0.1558
16886TIP3    H172073   0.974   3.798   0.845 -0.3943 -1.6570 -0.1621
16886TIP3    H272074   0.968   3.752   0.701  0.7969  2.1954 -1.5706
16887TIP3   OH272075   2.478   5.123  11.125 -0.7498  0.2774 -0.5148
16887TIP3    H172076   2.484   5.077  11.208  0.9800  2.0506  0.4325
16887TIP3    H272077   2.386   5.120  11.102 -0.8259 -2.8903 -0.1325
16888TIP3   OH272078   5.447   2.171   4.697  0.0273 -0.1658  0.3269
16888TIP3    H172079   5.535   2.153   4.730 -0.1664  1.0684  1.6252
16888TIP3    H272080   5.415   2.087   4.664  1.1935 -0.9076  1.0455
16889TIP3   OH272081   4.081   1.594   5.083  0.1924 -0.0914  0.1305
16889TIP3    H172082   4.050   1.537   5.153  0.0553  0.0399  0.1797
16889TIP3    H272083   4.152   1.644   5.123  0.3803 -0.3010  0.0570
16890TIP3   OH272084   0.941   5.177  14.892 -0.2676  0.1142 -0.6693
16890TIP3    H172085   0.937   5.156  14.985  0.0778 -1.2076 -0.9451
16890TIP3    H272086   0.928   5.272  14.889  1.4169  0.4544  0.8578
16891TIP3   OH272087   6.385   6.402   3.244  0.2688  0.2212  0.4479
16891TIP3    H172088   6.357   6.492   3.264 -0.3543 -0.0072  0.6044
16891TIP3    H272089   6.370   6.393   3.150  0.1532  0.2136  0.4674
16892TIP3   OH272090   1.262   0.718   6.633  0.1144 -0.0943  0.1186
16892TIP3    H172091   1.315   0.646   6.599  0.3851 -0.8567  1.9876
16892TIP3    H272092   1.262   0.784   6.564 -0.6228 -2.1071 -1.9315
16893TIP3   OH272093   3.716   4.501   5.853 -0.1995  0.3011 -0.6032
16893TIP3    H172094   3.625   4.523   5.833  0.2634  1.5588 -1.4900
16893TIP3    H272095   3.727   4.412   5.820 -0.9801  0.3057 -0.9017
16894TIP3   OH272096   5.467   6.288   3.642 -0.2083 -0.1622  0.5337
16894TIP3    H172097   5.514   6.212   3.675 -0.7742 -0.2981  1.0363
16894TIP3    H272098   5.510   6.363   3.684  0.7775 -0.1288 -0.4602
16895TIP3   OH272099   2.285   4.884  11.901  0.1676 -0.4471  0.0120
16895TIP3    H172100   2.314   4.933  11.978 -0.5147  0.3820 -0.2402
16895TIP3    H272101   2.190   4.879  11.911  0.2023 -1.5009 -0.1091
16896TIP3   OH272102   5.111   3.767   3.985 -0.2788 -0.5576  0.3573
16896TIP3    H172103   5.030   3.796   3.944  0.0556 -0.9250 -0.5981
16896TIP3    H272104   5.090   3.682   4.024 -0.2751 -0.7929 -0.1531
16897TIP3   OH272105   2.327   0.421   0.421  0.1871 -0.0103  0.0367
16897TIP3    H172106   2.347   0.442   0.329  0.7647 -0.0643  0.1485
16897TIP3    H272107   2.287   0.335   0.417 -0.1329  0.1441 -0.2009
16898TIP3   OH272108   3.578   1.970   4.532  0.1479 -0.1128  0.6939
16898TIP3    H172109   3.540   1.904   4.589 -0.6040 -0.4429 -0.1572
16898TIP3    H272110   3.520   2.046   4.541  0.1958 -0.0650  0.6048
16899TIP3   OH272111   1.071   0.174  16.799  0.2425 -0.5633  0.2372
16899TIP3    H172112   1.139   0.151  16.862  0.9913 -0.1688 -0.4202
16899TIP3    H272113   1.115   0.228  16.734  0.0167 -2.7618 -1.8794
16900TIP3   OH272114   2.304   5.804  15.558 -0.3368  0.4213 -0.1730
16900TIP3    H172115   2.304   5.888  15.603 -2.6828 -1.1500  3.2195
16900TIP3    H272116   2.376   5.755  15.597 -1.0999 -0.2554  0.4289
16901TIP3   OH272117   3.559   6.252  15.091 -0.0305 -0.0032 -0.3362
16901TIP3    H172118   3.641   6.257  15.141 -0.5297  1.4516  0.3715
16901TIP3    H272119   3.533   6.160  15.098  0.4474 -0.0399  1.2115
16902TIP3   OH272120   4.674   4.769   0.051  0.0219  0.4967  0.4193
16902TIP3    H172121   4.666   4.826  -0.026 -0.7790 -0.8057 -0.5077
16902TIP3    H272122   4.588   4.728   0.059  0.6348 -0.7250  0.9500
16903TIP3   OH272123   2.983   4.947   0.202  0.1021 -0.0325 -0.0146
16903TIP3    H172124   3.014   5.036   0.217  1.4039 -0.3909 -0.4836
16903TIP3    H272125   3.055   4.890   0.229  0.2790 -0.8590 -2.0386
16904TIP3   OH272126   2.076   2.319   2.316  0.0719 -0.5537  0.0222
16904TIP3    H172127   1.984   2.306   2.340  0.6788 -1.2759  2.1936
16904TIP3    H272128   2.110   2.379   2.383  0.8612  0.9550 -1.6308
16905TIP3   OH272129   0.611   0.927  16.877  0.0380  0.0592 -0.0428
16905TIP3    H172130   0.681   0.896  16.820  1.5750 -0.5761  2.0794
16905TIP3    H272131   0.547   0.857  16.876  1.1111 -0.9600  0.7495
16906TIP3   OH272132   6.267   4.458   5.083 -0.5073  0.0608 -0.0160
16906TIP3    H172133   6.208   4.515   5.133  0.4282  0.0843  1.0864
16906TIP3    H272134   6.310   4.516   5.021  0.6945  0.6643  1.3302
16907TIP3   OH272135   6.390   3.763  15.601  0.0246  0.0660  0.1660
16907TIP3    H172136   6.465   3.738  15.654  0.1851 -0.9286 -0.4981
16907TIP3    H272137   6.394   3.705  15.524 -1.8833 -0.6396  0.5202
16908TIP3   OH272138   5.171   0.334   0.761  0.0804  0.5150 -0.2229
16908TIP3    H172139   5.122   0.268   0.811  0.5662 -0.2847 -0.7760
16908TIP3    H272140   5.119   0.414   0.769 -0.4617  0.0983  0.5608
16909TIP3   OH272141   1.067   2.481  15.894 -0.2209  0.0662  0.0387
16909TIP3    H172142   0.983   2.483  15.939  0.0479 -0.2371  0.5751
16909TIP3    H272143   1.116   2.411  15.939  0.0858 -0.1831 -0.6773
16910TIP3   OH272144   0.491   3.461   3.704  0.5695 -0.0502  0.1504
16910TIP3    H172145   0.548   3.415   3.765  1.4437  1.0911  0.2190
16910TIP3    H272146   0.442   3.391   3.660 -0.2964 -0.8976  2.3128
16911TIP3   OH272147   1.531   1.231   3.381 -0.2173 -0.5272 -0.4289
16911TIP3    H172148   1.613   1.186   3.397  0.0609  0.3292  0.7014
16911TIP3    H272149   1.495   1.189   3.303  0.2250 -2.3806  0.3185
16912TIP3   OH272150   3.269   1.897   1.049 -0.0463 -0.1323 -0.1707
16912TIP3    H172151   3.298   1.960   1.115  0.5603 -0.3609 -0.2082
16912TIP3    H272152   3.351   1.861   1.014 -0.2834  0.8668 -1.9041
16913TIP3   OH272153   3.512   5.365  16.378  0.4403 -0.2866  0.1293
16913TIP3    H172154   3.454   5.410  16.440 -2.9936 -1.0997 -2.1957
16913TIP3    H272155   3.549   5.293  16.429 -1.1670 -0.1428  1.6064
16914TIP3   OH272156   4.346   5.231  16.952 -0.1640 -0.7113  0.0897
16914TIP3    H172157   4.441   5.243  16.958 -0.1517  0.4947 -1.5406
16914TIP3    H272158   4.335   5.149  16.903  0.1961  0.7139 -2.6060
16915TIP3   OH272159   5.753   2.955   1.966  0.4059 -0.6181  0.2625
16915TIP3    H172160   5.791   2.983   1.883  0.2753 -0.0359  0.3959
16915TIP3    H272161   5.658   2.953   1.949  0.3826 -0.5488  0.3820
16916TIP3   OH272162   5.062   5.547   3.023  0.1796  0.8747  0.1130
16916TIP3    H172163   4.979   5.563   3.068  0.2645  1.5245  0.0475
16916TIP3    H272164   5.124   5.605   3.067  0.5457  0.5791 -0.0073
16917TIP3   OH272165   4.867   5.772  10.483 -0.8595 -0.6843  0.0285
16917TIP3    H172166   4.898   5.829  10.412 -1.7961 -0.2345 -0.0329
16917TIP3    H272167   4.940   5.712  10.499  0.5763  1.1787  0.7914
16918TIP3   OH272168   0.197   5.835   3.569 -0.4852  0.0495 -0.1960
16918TIP3    H172169   0.114   5.793   3.591 -0.7012 -0.9793 -2.6676
16918TIP3    H272170   0.256   5.763   3.549  0.7179  0.8083  0.4967
16919TIP3   OH272171   2.735   4.874   0.145  0.0533 -0.0370  0.6386
16919TIP3    H172172   2.702   4.832   0.224  0.4197 -0.4132  0.5934
16919TIP3    H272173   2.819   4.911   0.170  0.3124 -0.4198  0.3493
16920TIP3   OH272174   3.848   2.577   3.633  0.2328 -0.0144  0.5660
16920TIP3    H172175   3.815   2.544   3.549  1.2212 -1.0691  0.5743
16920TIP3    H272176   3.943   2.576   3.624  0.3903 -0.8898  1.9462
16921TIP3   OH272177   1.439   2.284   1.273 -0.3007 -0.1719 -0.8826
16921TIP3    H172178   1.392   2.259   1.193 -1.0880  0.6423 -0.6779
16921TIP3    H272179   1.435   2.205   1.328 -1.4163 -0.1260 -0.8753
16922TIP3   OH272180   6.112   4.478  11.189  0.1724 -0.0666 -0.8851
16922TIP3    H172181   6.064   4.543  11.138 -1.5408 -0.3115  0.3280
16922TIP3    H272182   6.068   4.478  11.274  2.0320 -0.6857  0.1303
16923TIP3   OH272183   1.947   4.100   0.487  0.5083 -0.4019  0.7364
16923TIP3    H172184   1.969   4.043   0.561 -1.4798 -1.7895  0.3421
16923TIP3    H272185   1.893   4.169   0.526  0.5970 -0.3663  0.7963
16924TIP3   OH272186   2.537   0.430  16.005  0.0061  0.0097 -0.2248
16924TIP3    H172187   2.581   0.404  15.924 -2.1533 -0.3820 -1.3528
16924TIP3    H272188   2.543   0.525  16.007  1.0809 -0.0396 -0.1973
16925TIP3   OH272189   1.307   4.897  16.233 -0.0814  0.0344 -0.2162
16925TIP3    H172190   1.386   4.931  16.191 -1.4987  0.5928 -2.5937
16925TIP3    H272191   1.294   4.810  16.195  1.1116 -1.5132  2.6136
16926TIP3   OH272192   0.680   1.894   3.657 -0.5439  0.2426  0.0107
16926TIP3    H172193   0.756   1.843   3.630 -1.4237 -1.0019 -0.2062
16926TIP3    H272194   0.669   1.873   3.750  0.4650  1.8894  0.5462
16927TIP3   OH272195   1.428   5.675  14.753 -0.5531 -0.1630 -0.1130
16927TIP3    H172196   1.354   5.701  14.698 -1.1153 -0.0163  0.7028
16927TIP3    H272197   1.433   5.742  14.821  1.2387  0.6313 -0.9465
16928TIP3   OH272198   2.338   5.502  14.929 -0.4004 -0.4930  0.4830
16928TIP3    H172199   2.299   5.425  14.888  0.2558 -0.4861 -0.1777
16928TIP3    H272200   2.263   5.555  14.957 -0.9441  0.1826 -1.9799
16929TIP3   OH272201   5.016   3.750   0.635  0.7478 -0.2437 -0.3631
16929TIP3    H172202   5.011   3.726   0.542  0.0730  0.7550 -0.6063
16929TIP3    H272203   5.003   3.668   0.682 -1.4165 -0.4386 -1.1500
16930TIP3   OH272204   5.494   6.009  12.320 -0.6190  0.0571  0.1386
16930TIP3    H172205   5.558   6.080  12.312  0.2518 -0.4876  1.7914
16930TIP3    H272206   5.541   5.939  12.366 -2.8266  0.2273  2.8793
16931TIP3   OH272207   3.375   6.632   1.164  0.0694 -0.0325  0.1188
16931TIP3    H172208   3.342   6.591   1.244 -1.5742  2.6036  0.9330
16931TIP3    H272209   3.355   6.725   1.175  0.1857  0.5062 -3.1827
16932TIP3   OH272210   3.492   5.196  15.808  0.2704  0.1031 -0.4424
16932TIP3    H172211   3.526   5.281  15.782  3.0103 -0.8284 -0.1648
16932TIP3    H272212   3.422   5.216  15.871  0.8080  2.1216 -0.4347
16933TIP3   OH272213   6.336   0.090   0.175  0.4903  0.2359  0.0472
16933TIP3    H172214   6.301   0.174   0.145  0.2205 -0.2762 -1.1087
16933TIP3    H272215   6.324   0.092   0.270 -1.3039  0.7287 -0.1484
16934TIP3   OH272216   4.595   3.234   3.960  0.6327  0.0684 -0.0277
16934TIP3    H172217   4.678   3.193   3.986  0.3360 -0.7888 -0.4205
16934TIP3    H272218   4.533   3.162   3.956 -0.1291  0.7003  0.2112
16935TIP3   OH272219   3.697   2.059  14.611 -0.1471  0.1526 -0.2402
16935TIP3    H172220   3.636   2.089  14.544  0.2767 -0.1189 -0.7529
16935TIP3    H272221   3.730   2.139  14.652 -0.6715  0.3077 -0.1106
16936TIP3   OH272222   4.716   3.639  10.668 -0.0510  0.0078  0.0313
16936TIP3    H172223   4.790   3.689  10.634 -0.2989 -0.6945 -1.6092
16936TIP3    H272224   4.702   3.569  10.605 -1.5210 -0.4564  0.8027
16937TIP3   OH272225   2.741   2.222   0.278 -0.2551 -0.4640 -0.4191
16937TIP3    H172226   2.658   2.268   0.287  0.3211  0.3671  0.9936
16937TIP3    H272227   2.717   2.129   0.270 -1.3321 -0.1643 -0.7903
16938TIP3   OH272228   1.247   3.820   5.741  0.1844  0.0874 -0.5436
16938TIP3    H172229   1.201   3.888   5.791  1.0507  0.6647 -0.5267
16938TIP3    H272230   1.211   3.827   5.653  0.3320  0.6224 -0.5634
16939TIP3   OH272231   1.772   5.435   0.539 -0.0996 -0.0933 -0.7704
16939TIP3    H172232   1.837   5.458   0.605  0.0323 -0.0994 -0.8989
16939TIP3    H272233   1.818   5.376   0.480 -0.0235  0.4348 -1.2460
16940TIP3   OH272234   0.996   2.390   0.150  0.5132 -0.8901  0.7231
16940TIP3    H172235   0.901   2.377   0.145  0.5602 -0.9040 -0.4195
16940TIP3    H272236   1.011   2.473   0.106  1.2093 -1.8696 -0.9952
16941TIP3   OH272237   1.076   4.444  15.963  0.1609  0.4627 -0.0252
16941TIP3    H172238   1.011   4.457  16.032 -0.4907 -0.7861 -0.3663
16941TIP3    H272239   1.029   4.397  15.894  0.7091  1.9825 -1.4949
16942TIP3   OH272240   1.817   4.592  15.050  0.6390 -0.0318  0.4560
16942TIP3    H172241   1.819   4.546  14.966  3.1701 -0.9412  0.9170
16942TIP3    H272242   1.813   4.685  15.027  2.3229 -0.2111 -0.7580
16943TIP3   OH272243   1.698   2.911  13.893  0.1238 -0.7438  0.1655
16943TIP3    H172244   1.603   2.902  13.894  0.0259  0.0956  1.3526
16943TIP3    H272245   1.731   2.824  13.872 -0.8979 -1.0759 -0.1142
16944TIP3   OH272246   0.866   4.809  11.456  0.4950 -0.4848 -0.5573
16944TIP3    H172247   0.805   4.795  11.383  0.6111  2.0174 -1.2327
16944TIP3    H272248   0.813   4.791  11.534 -0.0027 -1.9497 -1.1838
16945TIP3   OH272249   1.632   5.425   3.534 -0.4905  0.1043  0.5291
16945TIP3    H172250   1.631   5.373   3.614  1.5521  0.5669  0.9275
16945TIP3    H272251   1.593   5.509   3.559  1.0681  0.6155  1.3700
16946TIP3   OH272252   3.098   4.461   2.384  0.2205  0.1029 -0.2051
16946TIP3    H172253   3.102   4.469   2.479  1.5946 -0.6966 -0.1701
16946TIP3    H272254   3.187   4.481   2.354  0.4904 -2.1472 -1.0947
16947TIP3   OH272255   0.853   4.227  11.403  0.4886  0.2491 -0.0540
16947TIP3    H172256   0.815   4.233  11.490  1.5439 -2.0671  0.6272
16947TIP3    H272257   0.870   4.318  11.379  1.9408  0.9341  2.9971
16948TIP3   OH272258   6.014   4.326   0.285 -0.0704 -0.5557  0.4675
16948TIP3    H172259   6.028   4.362   0.373  1.5768  0.0528 -0.0000
16948TIP3    H272260   5.957   4.251   0.299 -0.5650  0.0521  1.9455
16949TIP3   OH272261   3.588   4.676   2.222  0.1675 -0.0047  0.5370
16949TIP3    H172262   3.619   4.633   2.142 -0.1172 -0.3623  0.6215
16949TIP3    H272263   3.542   4.754   2.190 -1.2758 -0.9356  0.2555
16950TIP3   OH272264   5.509   4.382  16.974 -0.2322 -0.2115 -0.4154
16950TIP3    H172265   5.583   4.419  17.021  0.0615 -0.5064 -0.6401
16950TIP3    H272266   5.549   4.324  16.909 -0.6612 -0.3972 -0.5155
16951TIP3   OH272267   2.986   3.808   2.336  0.1080 -0.3120 -0.3758
16951TIP3    H172268   2.999   3.717   2.360 -0.9362 -0.2781  0.3997
16951TIP3    H272269   3.027   3.817   2.250  2.1756 -0.9496  0.4994
16952TIP3   OH272270   3.189   1.647  12.923  0.1027  0.2870 -0.6204
16952TIP3    H172271   3.155   1.679  13.007  1.6463 -0.8304  0.4994
16952TIP3    H272272   3.141   1.566  12.907 -0.2715  0.5582 -0.8837
16953TIP3   OH272273   3.568   1.306  15.194 -0.0411  0.0632  0.6557
16953TIP3    H172274   3.539   1.238  15.133  1.0298  1.4046 -1.4701
16953TIP3    H272275   3.499   1.310  15.261 -2.1247 -0.3372 -1.3685
16954TIP3   OH272276   3.253   1.358  11.300  0.1121 -0.4401  0.3917
16954TIP3    H172277   3.319   1.291  11.320  0.1497 -0.7805 -0.8364
16954TIP3    H272278   3.205   1.324  11.225 -2.3376 -0.7867  2.0111
16955TIP3   OH272279   5.501   4.249  12.092 -0.8946  0.1313  0.4615
16955TIP3    H172280   5.420   4.201  12.075 -1.3985  0.9910  0.3819
16955TIP3    H272281   5.484   4.298  12.172  0.2419 -1.1778  1.5671
16956TIP3   OH272282   6.062   4.606  13.989 -0.4792 -0.1938  0.1178
16956TIP3    H172283   5.998   4.539  13.965 -1.8887  0.9012  0.6745
16956TIP3    H272284   6.061   4.667  13.915  0.0334 -0.2572  0.0605
16957TIP3   OH272285   4.919   4.735  15.055 -0.3303  0.0847  0.6540
16957TIP3    H172286   4.882   4.744  15.143 -0.3042  1.0053  0.5861
16957TIP3    H272287   4.852   4.772  14.997  0.6930  1.8571  0.5356
16958TIP3   OH272288   1.520   2.529  11.586  0.0875  0.1118  0.0393
16958TIP3    H172289   1.596   2.562  11.633  1.2608 -0.0124 -1.6676
16958TIP3    H272290   1.536   2.553  11.495 -1.0284 -1.5040 -0.6370
16959TIP3   OH272291   5.686   2.082   1.941  0.8837 -0.3032 -0.3850
16959TIP3    H172292   5.636   2.008   1.976  3.3330 -1.3079  1.2521
16959TIP3    H272293   5.716   2.129   2.018  1.0318  1.2814 -1.3724
16960TIP3   OH272294   4.476   0.699  15.850 -0.0678 -0.1017  0.6076
16960TIP3    H172295   4.426   0.644  15.911  0.7691 -0.3231  1.1096
16960TIP3    H272296   4.411   0.731  15.788 -0.9264  0.0479  1.5585
16961TIP3   OH272297   0.245   3.275   0.575  0.2834  0.1292  0.4713
16961TIP3    H172298   0.210   3.195   0.615  1.3775 -1.1678 -1.0453
16961TIP3    H272299   0.183   3.296   0.505  0.3679  0.1904  0.4148
16962TIP3   OH272300   0.004   5.353   1.559  0.4335 -0.2484  0.6076
16962TIP3    H172301   0.072   5.287   1.544  0.0056 -1.0402  1.9101
16962TIP3    H272302  -0.078   5.307   1.539  0.1651  0.0587  0.9977
16963TIP3   OH272303   4.514   5.782   0.366 -0.0704 -0.1181 -0.3739
16963TIP3    H172304   4.580   5.713   0.379  0.9459  0.2630 -2.9410
16963TIP3    H272305   4.442   5.737   0.321  0.0644  0.2421 -0.9501
16964TIP3   OH272306   3.883   4.393   3.158 -0.0549 -0.4997  0.3726
16964TIP3    H172307   3.955   4.333   3.137  2.6567  1.8493  2.1893
16964TIP3    H272308   3.843   4.356   3.237 -1.2075 -1.9975 -0.8354
16965TIP3   OH272309   5.705   6.413  15.253  0.4758  0.1209 -0.4960
16965TIP3    H172310   5.652   6.338  15.227 -0.7391  0.4489  0.9287
16965TIP3    H272311   5.759   6.431  15.176  0.5214 -1.9443 -1.0162
16966TIP3   OH272312   0.392   2.857  17.108  0.6359  0.4319 -0.0954
16966TIP3    H172313   0.425   2.891  17.191 -0.0819 -1.1610  0.9004
16966TIP3    H272314   0.397   2.761  17.118 -0.1707  0.2041 -1.6060
16967TIP3   OH272315   1.171   2.629   1.428 -0.1381 -0.0491  0.2500
16967TIP3    H172316   1.246   2.571   1.419  1.0476  1.5674 -0.7364
16967TIP3    H272317   1.184   2.674   1.511 -0.7116 -0.6777  0.6942
16968TIP3   OH272318   2.983   1.809   2.461 -0.2611 -0.1829  0.4884
16968TIP3    H172319   2.974   1.756   2.541 -0.4486 -0.6690  0.1520
16968TIP3    H272320   2.933   1.760   2.395 -0.7136  0.5927  0.2499
16969TIP3   OH272321   6.775   4.834   4.135 -0.3205  0.1959 -0.0639
16969TIP3    H172322   6.761   4.802   4.046  4.3614  0.4138 -1.1019
16969TIP3    H272323   6.747   4.762   4.191 -0.5736 -1.1639 -1.8440
16970TIP3   OH272324   5.199   3.369  14.277  0.0226  0.0153  0.4833
16970TIP3    H172325   5.224   3.287  14.321 -2.3779 -1.1509 -0.1873
16970TIP3    H272326   5.202   3.435  14.346  1.9613 -0.6023  1.0480
16971TIP3   OH272327   1.980   6.603   2.409 -0.6370 -0.6861  0.4125
16971TIP3    H172328   1.897   6.561   2.430 -2.3120  1.2264 -1.7967
16971TIP3    H272329   2.006   6.648   2.490 -4.3714  2.6203  0.0907
16972TIP3   OH272330   6.080   3.053   4.717  0.2224 -0.4139  0.2428
16972TIP3    H172331   6.120   3.058   4.631  1.5715 -0.6506  0.8239
16972TIP3    H272332   6.077   2.959   4.737  0.5090 -0.3287  0.7059
16973TIP3   OH272333   1.233   4.556   5.671  0.3440  0.3309 -0.1275
16973TIP3    H172334   1.270   4.641   5.692  0.1583  0.5444 -0.6315
16973TIP3    H272335   1.142   4.575   5.647  0.8658  0.2949 -2.3422
16974TIP3   OH272336   4.057   4.260   2.709 -0.2778 -0.2834  0.8469
16974TIP3    H172337   4.004   4.186   2.736  0.2085 -0.4895  1.2583
16974TIP3    H272338   4.147   4.230   2.718 -0.0829 -0.0903 -0.2607
16975TIP3   OH272339   4.460   2.628  14.758  0.1963  0.1379  0.0674
16975TIP3    H172340   4.464   2.533  14.765  0.0490  0.2002  1.3326
16975TIP3    H272341   4.416   2.645  14.675  0.5502 -0.8908 -0.3333
16976TIP3   OH272342   6.315   2.654   4.783 -0.1669  0.2070 -0.3305
16976TIP3    H172343   6.322   2.586   4.716 -0.1408  1.2858 -1.4709
16976TIP3    H272344   6.245   2.711   4.752  1.0840  1.7652 -0.4318
16977TIP3   OH272345   6.294   1.543   4.481  0.1419  0.7170  0.3017
16977TIP3    H172346   6.365   1.479   4.495 -0.6203 -0.2442 -0.1284
16977TIP3    H272347   6.252   1.551   4.566 -1.9803 -2.1046 -0.3137
16978TIP3   OH272348   6.743   5.255  14.638  0.1442 -0.0223 -0.3177
16978TIP3    H172349   6.827   5.281  14.599  0.3692  0.0649  0.2169
16978TIP3    H272350   6.693   5.337  14.642 -0.6394 -0.3481 -2.2086
16979TIP3   OH272351   5.699   0.017   2.429 -0.2993 -0.4594 -0.1348
16979TIP3    H172352   5.673  -0.017   2.515  0.0915 -0.3669  0.0210
16979TIP3    H272353   5.666  -0.048   2.367 -2.4021  0.4719 -0.0810
16980TIP3   OH272354   6.450   5.532   0.378 -0.2009 -0.6157  0.0109
16980TIP3    H172355   6.423   5.577   0.298  0.3361 -1.0406 -0.4197
16980TIP3    H272356   6.373   5.534   0.434  0.0867  1.7247  0.4249
16981TIP3   OH272357   2.596   1.840  14.648 -0.0472 -0.0993  0.2483
16981TIP3    H172358   2.599   1.932  14.677 -1.3056  0.4233 -1.1467
16981TIP3    H272359   2.663   1.834  14.580 -0.1367 -0.1484  0.1652
16982TIP3   OH272360   5.335   4.031   0.800 -0.0900 -0.5648  0.7086
16982TIP3    H172361   5.391   3.956   0.819  0.9910  0.3430  1.2136
16982TIP3    H272362   5.246   3.999   0.814  0.2837 -2.0033  0.0124
16983TIP3   OH272363   2.401   0.108   1.275 -0.1810  0.3860 -0.4245
16983TIP3    H172364   2.395   0.066   1.189  1.8901  0.9345 -0.8904
16983TIP3    H272365   2.337   0.061   1.329 -0.0805 -1.3361 -1.7074
16984TIP3   OH272366   6.203   0.776   4.600  0.1477 -0.0600  0.3879
16984TIP3    H172367   6.140   0.745   4.535 -0.0062  0.6222  0.2017
16984TIP3    H272368   6.225   0.698   4.651 -0.9502 -0.2830  0.5491
16985TIP3   OH272369   3.952   4.954  14.494  0.1492 -0.4045 -0.4017
16985TIP3    H172370   3.935   4.970  14.401  0.2625 -2.2419 -0.7631
16985TIP3    H272371   4.000   4.872  14.497  2.9432  1.1264  1.0954
16986TIP3   OH272372   0.851   1.227   0.150 -0.8628 -0.6786  0.1335
16986TIP3    H172373   0.846   1.132   0.160  0.7177 -0.5605  3.1933
16986TIP3    H272374   0.864   1.260   0.239 -2.8370  2.5705 -0.6222
16987TIP3   OH272375   1.819   1.383   0.628  0.2098  0.8197  0.2283
16987TIP3    H172376   1.836   1.464   0.579  3.5871  0.1678  0.1097
16987TIP3    H272377   1.889   1.379   0.693 -0.8010 -1.2632  1.2715
16988TIP3   OH272378   3.370   3.465  10.966 -0.2741  0.4716  0.9272
16988TIP3    H172379   3.288   3.504  10.937 -0.1032  0.4186  0.3499
16988TIP3    H272380   3.417   3.445  10.885 -1.0627 -2.4868  1.0648
16989TIP3   OH272381   5.350   3.861  14.576 -0.3216 -0.3896 -0.0976
16989TIP3    H172382   5.349   3.860  14.480 -1.3900 -0.6293 -0.0951
16989TIP3    H272383   5.286   3.929  14.600 -0.2379 -0.5007  0.4462
16990TIP3   OH272384   1.008   6.699  12.009  0.0668 -0.2860 -0.0112
16990TIP3    H172385   0.936   6.652  11.965  0.2527 -1.1148  0.5471
16990TIP3    H272386   1.009   6.662  12.097  0.4852  0.4975  0.3108
16991TIP3   OH272387   6.065   3.418   0.332  0.4268  0.2470 -0.3621
16991TIP3    H172388   6.093   3.414   0.424  0.5216 -0.3892 -0.4137
16991TIP3    H272389   6.063   3.326   0.304  2.4106  0.5282 -1.6027
16992TIP3   OH272390   6.671   5.760  15.799  0.5481  0.6330 -0.0667
16992TIP3    H172391   6.693   5.736  15.709  2.3446 -0.1709  0.5288
16992TIP3    H272392   6.707   5.849  15.809  0.1537  0.8087 -0.2047
16993TIP3   OH272393   5.931   3.748   5.252  0.4042  0.1815 -0.0401
16993TIP3    H172394   5.970   3.665   5.279  1.3233  0.8164  0.6393
16993TIP3    H272395   6.001   3.812   5.262 -0.0925  0.9325 -1.2225
16994TIP3   OH272396   0.918   4.626  10.488 -0.3917 -0.4126 -0.2719
16994TIP3    H172397   0.908   4.535  10.515 -0.8435 -0.1859  0.3670
16994TIP3    H272398   0.836   4.645  10.441 -0.5994 -0.1430  0.1918
16995TIP3   OH272399   5.110   1.280  13.791 -0.1368 -0.4903 -0.7057
16995TIP3    H172400   5.086   1.321  13.708 -0.2001 -2.4094 -1.6882
16995TIP3    H272401   5.028   1.241  13.822 -0.4543  1.3907  1.0374
16996TIP3   OH272402   3.695   6.544  11.441 -0.5283  0.3990  0.1753
16996TIP3    H172403   3.651   6.611  11.389 -2.4339 -0.3096  0.7956
16996TIP3    H272404   3.771   6.589  11.478 -0.0130  1.3350 -1.8919
16997TIP3   OH272405   0.948   5.342   3.550 -0.5296 -0.6191  0.5845
16997TIP3    H172406   0.887   5.308   3.484 -0.3371  0.0576  0.0363
16997TIP3    H272407   0.947   5.437   3.536  1.3649 -0.6547 -0.0761
16998TIP3   OH272408   1.474   6.760  11.705  0.3556  0.0785 -0.0285
16998TIP3    H172409   1.455   6.770  11.611  0.2439 -0.9876 -0.1327
16998TIP3    H272410   1.562   6.725  11.708  0.1358 -0.4609  0.2353
16999TIP3   OH272411   1.837   1.703   1.880 -0.2086  0.2065 -1.1066
16999TIP3    H172412   1.898   1.776   1.889 -0.1489  0.0677 -0.2324
16999TIP3    H272413   1.849   1.653   1.961 -0.3658 -0.6773 -1.6263
17000TIP3   OH272414   3.154   5.537   2.568 -0.0523  0.4889  0.6040
17000TIP3    H172415   3.218   5.576   2.629  1.0030  1.9346 -1.3197
17000TIP3    H272416   3.077   5.592   2.577 -0.6662 -0.5314  2.0473
17001TIP3   OH272417   5.090   3.124  15.842  0.0207 -0.5088  0.0315
17001TIP3    H172418   5.044   3.190  15.893 -0.4475 -0.7405 -0.0771
17001TIP3    H272419   5.159   3.172  15.797  0.3049 -0.2703  0.7122
17002TIP3   OH272420   1.414   3.405  17.147 -0.0617  0.5489 -0.6011
17002TIP3    H172421   1.372   3.447  17.222 -1.2516  0.1975 -1.0561
17002TIP3    H272422   1.475   3.472  17.114  0.9000  0.5045  0.9938
17003TIP3   OH272423   1.562   5.218   4.676  0.3875 -0.1797  0.2777
17003TIP3    H172424   1.467   5.214   4.683  0.2768 -2.2863 -1.3618
17003TIP3    H272425   1.591   5.250   4.762 -1.8092  1.7822  0.3745
17004TIP3   OH272426   1.072   2.213   0.770  0.0919 -0.1929 -0.1066
17004TIP3    H172427   1.147   2.268   0.795  0.4664 -1.1244  0.8956
17004TIP3    H272428   0.996   2.269   0.786  0.4023 -0.2910  1.9606
17005TIP3   OH272429   0.536   1.765  13.578 -0.3321  0.0123  0.6710
17005TIP3    H172430   0.506   1.716  13.655 -1.3560  1.1968  1.0690
17005TIP3    H272431   0.563   1.850  13.613 -3.1843  1.5305 -0.4585
17006TIP3   OH272432   0.636   4.605   1.735  0.2993  0.0036  0.0318
17006TIP3    H172433   0.565   4.668   1.719  0.0100 -0.2699  0.2138
17006TIP3    H272434   0.714   4.647   1.699  0.0619  0.3519 -0.0860
17007TIP3   OH272435   2.156   5.577  13.619 -0.3395 -0.0953 -0.4902
17007TIP3    H172436   2.195   5.505  13.669  0.5662  0.1445 -0.8287
17007TIP3    H272437   2.207   5.580  13.538 -0.4381  0.8483 -0.5286
17008TIP3   OH272438   4.312   1.703  14.148 -0.1830  0.5315 -0.5858
17008TIP3    H172439   4.315   1.790  14.189 -1.0845  0.3291 -0.0694
17008TIP3    H272440   4.304   1.643  14.222 -2.1419  0.1672 -1.0375
17009TIP3   OH272441   2.137   2.485  13.758 -0.1569 -0.1858 -0.1036
17009TIP3    H172442   2.102   2.574  13.747  0.1396 -0.1393 -0.7345
17009TIP3    H272443   2.109   2.459  13.845  1.5438  1.3327  0.9552
17010TIP3   OH272444   0.630   4.585  15.364  0.2563  1.1812  0.1605
17010TIP3    H172445   0.574   4.604  15.439  0.6391 -1.1548  1.0936
17010TIP3    H272446   0.642   4.670  15.321 -1.5670  2.2287  1.6068
17011TIP3   OH272447   2.266   4.875  12.433  0.2128 -0.6436 -0.0758
17011TIP3    H172448   2.202   4.897  12.500  0.9121  0.6716  0.1882
17011TIP3    H272449   2.215   4.861  12.353 -0.2602  4.0297 -0.8286
17012TIP3   OH272450   4.909   3.544   5.376 -0.4723  0.0665 -0.0027
17012TIP3    H172451   4.896   3.580   5.288 -0.5832 -0.2164 -0.1021
17012TIP3    H272452   4.972   3.473   5.363  0.3949  0.7476  0.3149
17013TIP3   OH272453   3.137   3.027   1.295 -0.0368  0.0900  0.7847
17013TIP3    H172454   3.155   2.953   1.237  0.7590 -0.5289  1.7861
17013TIP3    H272455   3.217   3.080   1.292 -0.7302  1.1178 -0.1969
17014TIP3   OH272456   2.073   6.283   1.810 -0.1259  0.7722 -0.4341
17014TIP3    H172457   2.064   6.377   1.829 -0.5055  0.5527  0.5814
17014TIP3    H272458   2.166   6.270   1.796 -0.2556  1.5704 -2.1994
17015TIP3   OH272459   3.243   3.816  15.310 -0.4595 -0.2196 -0.4221
17015TIP3    H172460   3.214   3.832  15.220 -1.6164  0.3216  0.0305
17015TIP3    H272461   3.267   3.902  15.344 -2.0810 -0.0784  0.4617
17016TIP3   OH272462   1.389   6.600  13.510  0.0139  0.2118  0.8201
17016TIP3    H172463   1.427   6.516  13.538  0.4335 -0.0310 -0.3998
17016TIP3    H272464   1.301   6.600  13.546 -0.3909 -1.2769 -0.1143
17017TIP3   OH272465   2.316   3.507  12.068 -0.2317  0.3186 -0.0168
17017TIP3    H172466   2.284   3.427  12.109  1.7920 -0.9849 -0.8361
17017TIP3    H272467   2.401   3.522  12.108  0.1838  1.0649 -1.1251
17018TIP3   OH272468   4.958   3.202   0.582 -0.5166 -0.2949  0.0381
17018TIP3    H172469   5.043   3.245   0.575 -1.4434  1.6556 -0.0465
17018TIP3    H272470   4.950   3.152   0.502  0.7643 -0.9468  0.2921
17019TIP3   OH272471   1.156   0.740  15.303  0.3090 -0.6885  0.5286
17019TIP3    H172472   1.122   0.791  15.376 -1.6878  0.3356 -1.0176
17019TIP3    H272473   1.132   0.649  15.323  0.2397 -0.4836  1.3786
17020TIP3   OH272474   6.796   0.100  10.941 -0.0744  0.0521  0.4591
17020TIP3    H172475   6.705   0.076  10.925 -0.6061  1.1239  1.7194
17020TIP3    H272476   6.792   0.162  11.013  1.3521  2.5970 -1.4710
17021TIP3   OH272477   6.582   1.525  15.669  0.5316  0.4613  0.2790
17021TIP3    H172478   6.661   1.561  15.630  0.1240 -0.1477 -1.1742
17021TIP3    H272479   6.609   1.440  15.704  0.4795  0.1885 -0.3493
17022TIP3   OH272480   2.032   4.996   3.467 -0.0773  0.0068  0.0507
17022TIP3    H172481   2.036   5.079   3.514 -1.4705  0.2727 -0.2579
17022TIP3    H272482   2.119   4.985   3.429  0.6690  0.4206  1.5832
17023TIP3   OH272483   3.772   5.894  13.585  0.1597  0.0298  0.4386
17023TIP3    H172484   3.750   5.803  13.564  1.4350  0.2452 -2.4242
17023TIP3    H272485   3.861   5.891  13.619  0.3263  0.1966  0.0364
17024TIP3   OH272486   0.299   6.201   2.989  0.2816 -0.6436  0.2212
17024TIP3    H172487   0.270   6.194   3.080  0.9057 -1.8367  0.3491
17024TIP3    H272488   0.390   6.231   2.995 -1.2743  5.3727 -0.2284
17025TIP3   OH272489   6.286   1.475   1.911 -0.3961  0.0896  0.1625
17025TIP3    H172490   6.256   1.534   1.980  0.9171  0.1242  0.7416
17025TIP3    H272491   6.208   1.428   1.883 -1.1721  0.9762  0.7971
17026TIP3   OH272492   2.884   0.279   1.135 -0.0438  0.1894 -0.0049
17026TIP3    H172493   2.914   0.199   1.091  1.4047  0.4606  0.4050
17026TIP3    H272494   2.874   0.253   1.227  2.2876  0.8392  0.5200
17027TIP3   OH272495   0.884   3.584   0.412  0.0913  0.2719 -0.0788
17027TIP3    H172496   0.879   3.567   0.506  1.0514 -1.7536 -0.3365
17027TIP3    H272497   0.808   3.539   0.375  1.3388 -1.6379 -0.5175
17028TIP3   OH272498   2.597   0.289   0.989 -0.2094 -0.6308  0.3151
17028TIP3    H172499   2.627   0.213   1.039 -1.4139 -1.7876 -0.6498
17028TIP3    H272500   2.567   0.351   1.056  2.1302 -0.3277  1.1972
17029TIP3   OH272501   5.426   0.728   3.350 -0.7506  0.4843  0.0293
17029TIP3    H172502   5.428   0.731   3.446  2.2765 -2.7359  0.2729
17029TIP3    H272503   5.479   0.802   3.322 -2.3184  1.9427  0.6864
17030TIP3   OH272504   3.870   5.414   1.370  0.2945 -0.3238  0.4044
17030TIP3    H172505   3.859   5.333   1.319 -1.4313  1.2292 -1.9125
17030TIP3    H272506   3.801   5.472   1.338  2.6668  2.8083  0.4604
17031TIP3   OH272507   3.462   4.458   4.333 -0.2531  0.0104  0.2919
17031TIP3    H172508   3.385   4.501   4.370 -0.1828  0.1800  0.2459
17031TIP3    H272509   3.527   4.529   4.324 -0.0167 -0.1757  0.5365
17032TIP3   OH272510   6.316   1.400  13.441  0.2255  0.2798 -0.0790
17032TIP3    H172511   6.322   1.351  13.359  1.2367  0.0636  0.1089
17032TIP3    H272512   6.255   1.471  13.422 -0.4093 -0.4061 -0.6802
17033TIP3   OH272513   2.036   1.281   3.334  0.6126 -0.4080 -0.3311
17033TIP3    H172514   2.044   1.234   3.417 -0.1244  0.4192  0.2237
17033TIP3    H272515   2.085   1.362   3.348 -0.3836  0.1992 -0.3402
17034TIP3   OH272516   4.132   2.863  12.947  0.3610 -0.8251  0.7173
17034TIP3    H172517   4.189   2.901  12.879  1.3184 -1.4183  1.1573
17034TIP3    H272518   4.177   2.884  13.029 -0.7000 -0.2574  1.1762
17035TIP3   OH272519   5.344   5.790  15.991 -0.2850  0.0722  0.9015
17035TIP3    H172520   5.438   5.771  15.994 -0.4375 -0.6819  1.1769
17035TIP3    H272521   5.334   5.853  15.920  0.6876  1.7072  2.1580
17036TIP3   OH272522   2.246   3.016   5.066 -0.2959 -0.2206  0.0971
17036TIP3    H172523   2.213   2.963   4.993 -0.9066  0.9584 -0.5031
17036TIP3    H272524   2.177   3.080   5.083  1.7012  2.5276 -1.3634
17037TIP3   OH272525   2.852   1.009   0.535  0.1199 -0.3371 -0.5740
17037TIP3    H172526   2.777   1.010   0.595  0.4820 -0.7037 -0.1017
17037TIP3    H272527   2.828   0.946   0.468 -0.0232 -0.4139 -0.4519
17038TIP3   OH272528   0.703   1.741  16.883 -0.2743 -0.1412  0.4104
17038TIP3    H172529   0.715   1.834  16.866 -1.8743  0.0984  0.4534
17038TIP3    H272530   0.763   1.698  16.823 -1.8592  0.8436 -2.0631
17039TIP3   OH272531   5.521   1.783   4.497 -0.5667 -0.1654 -0.1580
17039TIP3    H172532   5.453   1.833   4.541  0.9163  1.3108  0.5713
17039TIP3    H272533   5.603   1.811   4.539  0.5826 -1.2039 -1.5856
17040TIP3   OH272534   1.091   1.024  11.486  0.1726 -0.1210 -0.4486
17040TIP3    H172535   1.078   1.022  11.391 -0.9474 -0.6560 -0.3057
17040TIP3    H272536   1.086   1.117  11.508  0.6785  0.0264 -0.9398
17041TIP3   OH272537   4.024   0.110   3.410  0.1992 -0.1113 -0.0743
17041TIP3    H172538   4.064   0.137   3.327 -0.7541 -2.3718 -1.3533
17041TIP3    H272539   4.095   0.065   3.457  0.6831  0.9893  0.2841
17042TIP3   OH272540   2.637   2.310   0.959 -0.0249  0.7000  0.4838
17042TIP3    H172541   2.595   2.328   0.875  1.0982  0.5589 -0.1174
17042TIP3    H272542   2.605   2.222   0.983  1.0031 -0.0138 -0.6631
17043TIP3   OH272543   1.909   1.069  16.431  0.2226 -0.0341 -0.1112
17043TIP3    H172544   1.959   1.125  16.371 -0.3283  0.9730  0.3434
17043TIP3    H272545   1.972   1.003  16.460  1.0168  0.6203 -0.3129
17044TIP3   OH272546   0.894   3.542  16.545  0.5381 -0.0420 -0.1363
17044TIP3    H172547   0.807   3.581  16.536  0.8457  0.5020 -0.9310
17044TIP3    H272548   0.893   3.467  16.486  0.8687  0.4543 -0.7845
17045TIP3   OH272549   3.994   2.444   6.181  0.3540  0.1848 -0.0106
17045TIP3    H172550   3.902   2.464   6.166  0.3644 -0.6045 -1.3359
17045TIP3    H272551   3.995   2.394   6.262 -0.2226  1.2596  0.6751
17046TIP3   OH272552   2.491   3.925  15.351 -0.6768  0.3600 -0.0633
17046TIP3    H172553   2.552   3.998  15.343  0.1483 -0.2061  0.7558
17046TIP3    H272554   2.541   3.858  15.398 -1.9905 -0.0552  0.7998
17047TIP3   OH272555   1.185   1.105  17.040 -0.2320 -0.4310 -0.5433
17047TIP3    H172556   1.140   1.024  17.016  0.9698 -0.9246 -1.2145
17047TIP3    H272557   1.210   1.093  17.131  0.5549 -1.1356 -0.8358
17048TIP3   OH272558   3.284   3.783  15.736 -0.3609 -0.0146 -0.3521
17048TIP3    H172559   3.209   3.843  15.730  1.0181  1.8499  0.3502
17048TIP3    H272560   3.278   3.745  15.824  1.3374  2.7533  1.0745
17049TIP3   OH272561   3.649   2.720  12.001  0.4360  0.2199 -0.2700
17049TIP3    H172562   3.579   2.765  12.050 -1.3843 -1.7344 -0.9191
17049TIP3    H272563   3.639   2.751  11.911 -0.0353 -0.5549 -0.4883
17050TIP3   OH272564   3.904   0.574  11.382  0.2142  0.1961  0.4148
17050TIP3    H172565   3.820   0.613  11.359  1.1317  1.6485 -0.6822
17050TIP3    H272566   3.882   0.491  11.425 -1.7214 -0.2937 -1.3980
17051TIP3   OH272567   2.848   1.107  15.132  0.2656 -0.3216 -0.2769
17051TIP3    H172568   2.764   1.071  15.160  0.8948 -0.0212  2.3189
17051TIP3    H272569   2.837   1.202  15.139  0.6867 -0.2656 -0.3416
17052TIP3   OH272570   2.644   5.024  15.451 -0.1907 -0.0646 -0.1457
17052TIP3    H172571   2.723   5.072  15.427  0.5729 -0.9342  0.5969
17052TIP3    H272572   2.578   5.055  15.389  0.8842  0.1981 -1.1908
17053TIP3   OH272573   3.414   6.353  14.870  0.5140 -0.0046  0.8561
17053TIP3    H172574   3.463   6.357  14.788  0.2031  0.3827  0.6835
17053TIP3    H272575   3.478   6.324  14.936  0.1619 -3.1497  0.0042
17054TIP3   OH272576   1.415   4.682  12.877 -0.0584  0.4233  0.3318
17054TIP3    H172577   1.424   4.732  12.796 -1.8818  0.7759  0.3151
17054TIP3    H272578   1.352   4.732  12.930  2.4636  1.2392  2.8292
17055TIP3   OH272579   2.747   1.389  15.441  0.0747 -0.6066 -0.9572
17055TIP3    H172580   2.689   1.327  15.486  0.6697 -1.6644 -1.5943
17055TIP3    H272581   2.815   1.409  15.505 -0.6323  0.1539 -0.4212
17056TIP3   OH272582   5.727   1.491   0.159  0.3379 -0.0738  0.0030
17056TIP3    H172583   5.788   1.479   0.232  2.4815 -1.1542 -1.8122
17056TIP3    H272584   5.660   1.424   0.172 -0.5202  1.1067  2.0366
17057TIP3   OH272585   2.238   5.748  14.689 -0.1493 -0.7351  0.3138
17057TIP3    H172586   2.204   5.687  14.623  1.3753 -1.2646 -0.0287
17057TIP3    H272587   2.164   5.805  14.709 -1.2065 -1.7913 -0.4182
17058TIP3   OH272588   5.454   3.668   0.269  0.5308  0.2374 -0.3235
17058TIP3    H172589   5.444   3.764   0.265  0.4490  0.1936 -1.4271
17058TIP3    H272590   5.397   3.635   0.199 -0.5549 -0.7218  0.9459
17059TIP3   OH272591   4.723   1.876  13.202 -0.2277  0.3482 -0.2265
17059TIP3    H172592   4.741   1.933  13.277 -1.8117 -0.8286  1.1086
17059TIP3    H272593   4.809   1.846  13.173  0.3968  0.4522  1.4221
17060TIP3   OH272594   5.254   0.321   5.084 -0.4929 -0.0941 -0.5838
17060TIP3    H172595   5.219   0.257   5.146  2.1178 -0.1633  0.9716
17060TIP3    H272596   5.247   0.405   5.129 -1.2434  0.3123 -1.4322
17061TIP3   OH272597   4.046   1.327   2.976 -0.0017  0.5652  0.2977
17061TIP3    H172598   4.023   1.245   3.019  2.4753 -1.1533 -1.3948
17061TIP3    H272599   4.080   1.383   3.046  1.4949 -1.1863  1.0449
17062TIP3   OH272600   1.799   5.052  14.653  0.0621 -0.5375  0.6682
17062TIP3    H172601   1.792   5.007  14.569 -0.6004  0.7224  0.0146
17062TIP3    H272602   1.709   5.060  14.684  0.1926  0.0501  0.9225
17063TIP3   OH272603   1.386   2.717  14.491 -0.0493  0.5186 -0.2641
17063TIP3    H172604   1.464   2.696  14.439 -0.5462  1.7841 -1.5913
17063TIP3    H272605   1.312   2.686  14.437 -0.5536  1.2857 -0.0232
17064TIP3   OH272606   5.623   4.915  13.085 -0.0526  0.4460 -0.3153
17064TIP3    H172607   5.626   4.821  13.106  0.6546  0.5351  0.0108
17064TIP3    H272608   5.593   4.918  12.994  0.0127 -0.1047 -0.3605
17065TIP3   OH272609   5.759   4.167   2.831  0.2126  0.2338  0.3297
17065TIP3    H172610   5.758   4.103   2.902 -0.7301 -0.9363 -0.6871
17065TIP3    H272611   5.683   4.223   2.848 -1.4283 -1.4733 -0.9279
17066TIP3   OH272612   1.909   6.787  11.504  0.7436  0.3286  0.9621
17066TIP3    H172613   1.944   6.714  11.453  0.0675 -0.7209  1.9678
17066TIP3    H272614   1.846   6.829  11.445  0.4743 -0.4434  0.6876
17067TIP3   OH272615   0.039   6.187   1.780  0.2733  0.4858  0.1062
17067TIP3    H172616   0.119   6.180   1.727  0.8931  1.3883  0.8953
17067TIP3    H272617  -0.020   6.240   1.726 -0.0366 -0.6801 -0.7374
17068TIP3   OH272618   0.215   2.771  12.183 -0.5333  0.1958  0.0120
17068TIP3    H172619   0.293   2.724  12.214 -1.7320 -2.1491 -0.3098
17068TIP3    H272620   0.142   2.732  12.231 -1.7665  0.6873 -1.3634
17069TIP3   OH272621   3.085   5.006  14.840  0.2191 -0.1162  0.5393
17069TIP3    H172622   3.049   5.069  14.777  0.2804 -0.1609  0.4614
17069TIP3    H272623   3.122   4.936  14.787 -0.6749 -0.6824  0.6311
17070TIP3   OH272624   2.340   6.096  12.439 -0.0155  0.3695  0.3647
17070TIP3    H172625   2.319   6.048  12.519  2.4679 -0.0935  0.8080
17070TIP3    H272626   2.396   6.037  12.389 -0.6703  1.0615 -1.2596
17071TIP3   OH272627   1.029   2.159  13.879 -0.0005  0.2735  0.6141
17071TIP3    H172628   0.991   2.242  13.849  0.7285  0.3294 -0.1782
17071TIP3    H272629   1.035   2.169  13.974 -1.8404  0.3097  0.7558
17072TIP3   OH272630   2.435   5.683   5.534 -0.0479 -0.1381  0.0684
17072TIP3    H172631   2.378   5.659   5.461  0.4259  1.4632 -0.8701
17072TIP3    H272632   2.516   5.635   5.519 -0.5183 -1.1144  0.4978
17073TIP3   OH272633   2.457   0.002   4.905 -0.4523 -0.0346 -1.0315
17073TIP3    H172634   2.450   0.011   4.810  1.5261  2.2076 -1.0533
17073TIP3    H272635   2.551   0.005   4.923 -0.8001  3.7014  1.2169
17074TIP3   OH272636   5.803   0.940   3.669 -0.3715 -0.7101  0.1703
17074TIP3    H172637   5.879   0.973   3.623 -0.3228  0.0376  0.7793
17074TIP3    H272638   5.789   0.852   3.632  0.3763 -0.5944 -0.4059
17075TIP3   OH272639   1.400   5.963  13.045 -0.0234 -0.2836 -0.5715
17075TIP3    H172640   1.483   6.002  13.069 -0.0338  0.0426 -1.0524
17075TIP3    H272641   1.339   5.993  13.113 -0.3705  1.7884 -1.7222
17076TIP3   OH272642   1.184   0.706  15.834  0.1555  0.2901  0.0916
17076TIP3    H172643   1.129   0.691  15.911  0.8435 -1.0908  0.3551
17076TIP3    H272644   1.273   0.686  15.863  0.6231  1.1156 -0.6972
17077TIP3   OH272645   6.026   4.920   4.992 -0.5705  0.0406 -0.7317
17077TIP3    H172646   5.934   4.897   5.008 -0.1290 -2.2675 -1.1059
17077TIP3    H272647   6.036   4.914   4.897  0.2294 -1.0006 -0.6041
17078TIP3   OH272648   2.774   3.989  11.407  0.3602 -0.0516  0.4361
17078TIP3    H172649   2.810   4.008  11.494 -0.4688 -0.4241  0.8638
17078TIP3    H272650   2.792   3.896  11.394 -0.0983 -0.1468  0.4833
17079TIP3   OH272651   1.165   2.732   5.615  0.5190  0.1288 -0.7669
17079TIP3    H172652   1.210   2.654   5.647 -0.8375 -0.3246  0.1568
17079TIP3    H272653   1.119   2.766   5.692 -0.1567  0.9323 -1.5066
17080TIP3   OH272654   4.029   1.847   3.349 -0.2921  0.2312  0.1982
17080TIP3    H172655   4.009   1.753   3.341  0.9476 -0.0771  0.5573
17080TIP3    H272656   3.946   1.890   3.330 -0.8429 -0.9341 -0.1585
17081TIP3   OH272657   2.492   5.189  13.739  0.1644  0.7484  0.1726
17081TIP3    H172658   2.398   5.168  13.744 -0.9100  4.5963 -0.1952
17081TIP3    H272659   2.526   5.170  13.826 -0.6068 -1.7664  0.0070
17082TIP3   OH272660   2.118   0.795  16.777 -0.4271 -0.0872 -0.2063
17082TIP3    H172661   2.048   0.847  16.814  0.0996  0.1616  0.4431
17082TIP3    H272662   2.196   0.850  16.784 -0.0483 -0.5962 -0.3644
17083TIP3   OH272663   6.502   2.218   0.541  0.0457 -0.5101 -0.1091
17083TIP3    H172664   6.576   2.238   0.483  0.2703 -0.6680  0.1256
17083TIP3    H272665   6.523   2.132   0.578 -0.4391 -0.7305 -0.3375
17084TIP3   OH272666   6.737   0.387  13.916 -0.2735  0.1477  0.3322
17084TIP3    H172667   6.784   0.305  13.928  1.4590  0.8496 -1.1290
17084TIP3    H272668   6.769   0.444  13.987 -0.4079  0.0026  0.5084
17085TIP3   OH272669   2.702   3.466  16.263  0.1879  0.0808 -0.0929
17085TIP3    H172670   2.610   3.462  16.238 -0.2608 -0.8408  1.5666
17085TIP3    H272671   2.736   3.544  16.219 -1.4978  0.7139 -0.3258
17086TIP3   OH272672   0.004   1.464  14.888 -0.3965 -0.0101 -0.2311
17086TIP3    H172673  -0.018   1.393  14.828  0.7371 -1.2084  0.7381
17086TIP3    H272674  -0.033   1.438  14.972 -2.1793  1.7641 -0.3816
17087TIP3   OH272675   6.561   1.299   1.334 -0.0881 -0.2503  0.4046
17087TIP3    H172676   6.484   1.354   1.321 -0.0385  0.0572  1.2721
17087TIP3    H272677   6.618   1.318   1.260  0.0204  1.0636  0.7950
17088TIP3   OH272678   4.143   0.047   2.309  0.6905  0.4223  0.7775
17088TIP3    H172679   4.132   0.108   2.382  0.6155 -0.5999  1.6315
17088TIP3    H272680   4.188  -0.028   2.346  0.5010 -0.1916 -0.1921
17089TIP3   OH272681   4.738   4.503   3.477  0.3666  0.2292 -0.4017
17089TIP3    H172682   4.828   4.493   3.448 -0.1345 -2.0826 -1.3609
17089TIP3    H272683   4.686   4.452   3.415 -1.5851  1.2123  0.3140
17090TIP3   OH272684   2.452   4.298   1.708  0.0329 -0.2348 -0.0055
17090TIP3    H172685   2.462   4.386   1.743 -1.1008  0.4023 -1.1814
17090TIP3    H272686   2.515   4.245   1.757  2.4828  1.6721 -0.8662
17091TIP3   OH272687   0.074   2.183   0.599  0.0343 -0.2200 -0.0230
17091TIP3    H172688   0.088   2.169   0.693 -1.5248 -0.6945  0.1574
17091TIP3    H272689   0.048   2.098   0.566 -1.6428  0.4324 -0.4529
17092TIP3   OH272690   5.539   4.521  13.380 -0.1350  0.3683 -0.3819
17092TIP3    H172691   5.503   4.501  13.294 -0.0136 -2.0262  0.0674
17092TIP3    H272692   5.464   4.520  13.440  0.1109 -0.5207 -0.0790
17093TIP3   OH272693   0.368   5.682  10.725  0.2086  0.2952  0.2655
17093TIP3    H172694   0.411   5.671  10.640  1.8533  0.8506  0.9682
17093TIP3    H272695   0.438   5.715  10.782 -0.9564  0.3096  1.7331
17094TIP3   OH272696   5.903   5.860   6.225  0.0910 -0.5701 -0.1759
17094TIP3    H172697   5.921   5.790   6.162  0.3325 -0.8038  0.1535
17094TIP3    H272698   5.986   5.874   6.271  0.3052  0.5815 -0.8798
17095TIP3   OH272699   4.145   1.509   3.201 -0.6663  0.0775 -0.4107
17095TIP3    H172700   4.066   1.560   3.185 -0.0375  1.3576  0.3802
17095TIP3    H272701   4.150   1.502   3.297 -0.5073 -1.1236 -0.4925
17096TIP3   OH272702   6.028   2.727   5.645  0.4524 -0.2062  0.5462
17096TIP3    H172703   5.942   2.689   5.664 -0.0862  0.5734 -0.2552
17096TIP3    H272704   6.059   2.680   5.568  1.6294 -1.8077  1.9318
17097TIP3   OH272705   1.494   0.745   1.369  0.9088 -0.0869  0.0006
17097TIP3    H172706   1.483   0.839   1.361 -2.4733 -0.2778  0.8077
17097TIP3    H272707   1.445   0.709   1.295 -0.3904 -1.1912  1.3319
17098TIP3   OH272708   2.615   1.877   1.163 -0.0716  0.0573 -0.9095
17098TIP3    H172709   2.535   1.881   1.214  0.8913  1.9305  0.5591
17098TIP3    H272710   2.679   1.836   1.222  0.0167 -1.7738 -2.1891
17099TIP3   OH272711   1.622   4.435  14.595 -0.2932 -0.3718 -0.2338
17099TIP3    H172712   1.618   4.342  14.571 -3.2301 -1.1300  2.4272
17099TIP3    H272713   1.553   4.476  14.543 -0.7721 -0.2497  0.4811
17100TIP3   OH272714   3.804   5.694  12.053  0.1431 -0.4670 -0.0083
17100TIP3    H172715   3.712   5.711  12.072 -0.3537 -3.2165  0.5112
17100TIP3    H272716   3.845   5.687  12.139  1.0694  1.5941 -0.2384
17101TIP3   OH272717   2.803   3.898  13.507  0.1854  0.5715  0.6307
17101TIP3    H172718   2.814   3.834  13.437  3.1982  0.4023  1.0963
17101TIP3    H272719   2.730   3.952  13.480  0.0215 -0.6840 -1.6709
17102TIP3   OH272720   5.958   6.567   0.766  0.4433 -0.2382 -0.2263
17102TIP3    H172721   5.959   6.507   0.840 -0.3608 -0.5255 -0.4328
17102TIP3    H272722   5.906   6.522   0.699  0.2493  0.4698 -0.5634
17103TIP3   OH272723   5.387   4.757  16.283  0.0374  0.3598 -0.0834
17103TIP3    H172724   5.394   4.845  16.321  0.3430  0.6596 -0.8100
17103TIP3    H272725   5.463   4.710  16.316  0.0922  0.4933 -0.0173
17104TIP3   OH272726   6.540   5.873   2.957 -0.0710 -0.4381 -0.0603
17104TIP3    H172727   6.582   5.837   2.879  0.1407 -2.3359  0.8813
17104TIP3    H272728   6.482   5.804   2.987 -0.5454  0.4712  1.1791
17105TIP3   OH272729   2.412   6.470   1.339 -0.2995  0.3936  0.0846
17105TIP3    H172730   2.403   6.528   1.264 -0.3042 -0.3830 -0.5244
17105TIP3    H272731   2.344   6.500   1.400 -1.3835  0.0217 -0.8964
17106TIP3   OH272732   4.960   4.613   5.646  0.6397  0.2451  0.3649
17106TIP3    H172733   4.923   4.701   5.653  0.5474  0.1452  1.2083
17106TIP3    H272734   4.911   4.562   5.710  0.1446 -0.6150 -0.6683
17107TIP3   OH272735   4.899   6.223   5.374 -0.1526 -0.3458 -0.3685
17107TIP3    H172736   4.912   6.174   5.456  3.9189  1.8114  0.5692
17107TIP3    H272737   4.852   6.301   5.400  2.2181  0.9471  0.3599
17108TIP3   OH272738   4.681   6.060  12.094 -0.0799 -0.5086 -0.1453
17108TIP3    H172739   4.742   6.005  12.044  2.3790  1.6676  0.1868
17108TIP3    H272740   4.659   6.008  12.171  2.0466 -1.1117  0.1179
17109TIP3   OH272741   4.381   4.345  16.288  0.1204 -0.3976 -0.1478
17109TIP3    H172742   4.382   4.440  16.303 -1.1093 -0.4284  0.2085
17109TIP3    H272743   4.387   4.337  16.192  0.0332  0.0484 -0.1954
17110TIP3   OH272744   6.315   4.082   1.143  0.3455 -0.1656 -0.2585
17110TIP3    H172745   6.389   4.104   1.085  1.5991 -1.1434  0.8990
17110TIP3    H272746   6.297   3.990   1.124 -1.7541  0.4792 -1.7365
17111TIP3   OH272747   5.375   2.778  13.563 -0.1125 -0.1993 -0.5929
17111TIP3    H172748   5.427   2.818  13.493  0.8918 -0.1295  0.1598
17111TIP3    H272749   5.438   2.763  13.633 -1.3962  1.2345  0.9431
17112TIP3   OH272750   1.919   0.596  11.180 -0.2338 -0.1164  0.3942
17112TIP3    H172751   1.882   0.612  11.267 -0.8913  2.0168 -0.2061
17112TIP3    H272752   1.965   0.677  11.159  0.1846 -0.7237 -1.1291
17113TIP3   OH272753   6.583   6.097  14.084  0.1055 -0.4889  0.0786
17113TIP3    H172754   6.568   6.182  14.042 -1.0248 -1.5702 -1.8214
17113TIP3    H272755   6.496   6.062  14.101  0.4041 -2.6746 -2.2388
17114TIP3   OH272756   0.583   2.388  12.562 -0.5279  0.0620  0.2012
17114TIP3    H172757   0.577   2.369  12.656  1.3412  1.4207  0.6520
17114TIP3    H272758   0.655   2.332  12.531 -1.5451 -0.8575 -0.6084
17115TIP3   OH272759   3.194   3.508   6.141  0.0469 -0.2523  0.4865
17115TIP3    H172760   3.148   3.584   6.105 -2.0417 -0.7985  1.8206
17115TIP3    H272761   3.229   3.539   6.225  1.9063  0.0569 -0.3619
17116TIP3   OH272762   4.435   2.532  16.591  0.2570 -0.4591 -0.0429
17116TIP3    H172763   4.388   2.465  16.540  1.1068 -1.8135  0.8972
17116TIP3    H272764   4.426   2.611  16.539 -3.7592 -0.3860  0.4108
17117TIP3   OH272765   6.456   0.183   0.767 -0.4563 -0.2854  0.6494
17117TIP3    H172766   6.457   0.174   0.862 -1.4085  0.4411  0.7475
17117TIP3    H272767   6.422   0.099   0.735 -1.9459  0.1269  1.0774
17118TIP3   OH272768   5.570   1.661  17.170  0.2500 -0.5771 -0.1860
17118TIP3    H172769   5.635   1.610  17.218  0.6345  0.7198  0.7342
17118TIP3    H272770   5.554   1.737  17.226 -1.5031 -0.4943 -0.7615
17119TIP3   OH272771   5.349   2.359   4.909 -0.3254 -0.0221 -0.1757
17119TIP3    H172772   5.412   2.293   4.939 -0.3018  0.2217  0.3280
17119TIP3    H272773   5.400   2.420   4.856  0.0660  0.6941  0.9887
17120TIP3   OH272774   5.571   3.417   0.792 -0.0460 -0.0678  0.0590
17120TIP3    H172775   5.515   3.492   0.774  0.3390 -0.1097 -1.4599
17120TIP3    H272776   5.524   3.342   0.756 -0.5569 -0.6332  1.8061
17121TIP3   OH272777   1.894   3.300   3.607  0.6149  0.5305 -0.0919
17121TIP3    H172778   1.885   3.205   3.598  0.5738  0.6939 -2.4069
17121TIP3    H272779   1.988   3.315   3.600  0.4188  0.8576 -3.2878
17122TIP3   OH272780   5.953   2.060   0.755  0.2065  0.1532 -0.0136
17122TIP3    H172781   5.938   2.005   0.832 -0.9671  2.6444  1.6954
17122TIP3    H272782   6.033   2.108   0.775 -0.5345  1.3987  0.0794
17123TIP3   OH272783   6.521   2.168   0.861 -0.3222  0.4092 -1.0750
17123TIP3    H172784   6.448   2.230   0.864 -0.7287 -0.0917 -0.2476
17123TIP3    H272785   6.564   2.178   0.945  0.2463  0.3043 -1.3486
17124TIP3   OH272786   3.364   4.820   1.553  0.4518  0.0286  0.0804
17124TIP3    H172787   3.376   4.746   1.493 -0.0668  0.1717 -0.2088
17124TIP3    H272788   3.371   4.782   1.640 -0.6792 -0.5142 -0.0591
17125TIP3   OH272789   4.405   2.377   4.401  0.6718 -0.0476  1.3791
17125TIP3    H172790   4.313   2.386   4.377  0.9773  0.7687  0.4366
17125TIP3    H272791   4.450   2.446   4.351  1.9776 -1.2920  0.7359
17126TIP3   OH272792   5.170   1.043   4.727  0.4860  0.2685  0.0492
17126TIP3    H172793   5.236   1.110   4.744 -1.1742  1.9929 -0.0795
17126TIP3    H272794   5.191   1.010   4.640  1.5484  0.2806  0.2769
17127TIP3   OH272795   4.804   1.962   6.006 -0.0259 -0.2076  0.0113
17127TIP3    H172796   4.720   2.000   5.980  0.2104 -0.6948 -1.5495
17127TIP3    H272797   4.816   1.991   6.097 -2.1160 -0.5712  0.4489
17128TIP3   OH272798   2.204   0.687   4.179 -0.1521  0.2642  0.0840
17128TIP3    H172799   2.138   0.628   4.215 -0.9344 -0.4935 -2.3495
17128TIP3    H272800   2.282   0.633   4.170 -0.8763 -0.5359 -2.1709
17129TIP3   OH272801   2.589   3.133   0.779  0.7285 -0.2565 -0.2099
17129TIP3    H172802   2.547   3.089   0.853 -2.1705  0.6913 -1.1601
17129TIP3    H272803   2.676   3.095   0.776 -0.0644 -2.5456  1.8133
17130TIP3   OH272804   3.573   2.593   6.251  0.7744  0.6400 -0.5163
17130TIP3    H172805   3.489   2.547   6.246  1.0623  0.1137 -0.5923
17130TIP3    H272806   3.555   2.671   6.304 -0.2625  1.6450 -2.2574
17131TIP3   OH272807   5.384   6.787  14.192 -0.4322  0.4016 -0.3284
17131TIP3    H172808   5.399   6.791  14.097 -0.3133  0.4886 -0.3057
17131TIP3    H272809   5.298   6.745  14.200 -0.0431 -0.4430 -0.4463
17132TIP3   OH272810   2.356   4.810   2.849  0.9171 -0.1286 -0.0658
17132TIP3    H172811   2.396   4.723   2.845  1.4030 -0.1788  3.0260
17132TIP3    H272812   2.264   4.795   2.828  1.3435 -1.0466 -1.3830
17133TIP3   OH272813   3.197   1.979  13.066 -1.6310 -0.0585  0.3596
17133TIP3    H172814   3.154   2.059  13.094 -0.4835  0.2160  1.4134
17133TIP3    H272815   3.156   1.910  13.119 -2.2209 -0.1052 -0.1438
17134TIP3   OH272816   1.549   0.097   2.284  0.7833  0.4881  0.2809
17134TIP3    H172817   1.584   0.027   2.230 -1.0366  0.7077 -1.2950
17134TIP3    H272818   1.537   0.170   2.224 -0.5516  0.9988  1.1206
17135TIP3   OH272819   3.032   6.299   5.344 -0.6678  0.2490 -0.3870
17135TIP3    H172820   3.029   6.204   5.335 -0.0380  0.2977 -1.1151
17135TIP3    H272821   3.124   6.320   5.358 -0.5294  0.8927 -1.9941
17136TIP3   OH272822   6.729   2.415   0.692 -0.0644 -0.4071 -0.1043
17136TIP3    H172823   6.643   2.397   0.730  0.7402 -1.1702  1.4428
17136TIP3    H272824   6.765   2.328   0.673  0.2340 -0.0838 -1.0884
17137TIP3   OH272825   2.878   1.932  16.742 -0.0886 -0.2075 -0.3758
17137TIP3    H172826   2.815   1.865  16.770 -0.0297 -0.3324 -0.5423
17137TIP3    H272827   2.936   1.942  16.817  0.7066 -1.3017 -0.8229
17138TIP3   OH272828   3.551   5.970  14.716 -0.2431  0.2090  0.4520
17138TIP3    H172829   3.633   5.974  14.667 -0.8245 -0.0270 -0.5611
17138TIP3    H272830   3.577   5.945  14.804  0.6377 -1.5628 -0.2580
17139TIP3   OH272831   4.398   6.031  13.341 -0.6085 -0.2388  0.2780
17139TIP3    H172832   4.353   6.031  13.426 -0.2400  0.2027  0.4773
17139TIP3    H272833   4.470   5.968  13.352  0.7114  1.3251  0.9975
17140TIP3   OH272834   0.450   3.950  11.478  0.2055  0.0079  0.2367
17140TIP3    H172835   0.355   3.957  11.478  0.2996  2.2596  1.3388
17140TIP3    H272836   0.474   3.946  11.386 -0.8674  1.8210 -0.1659
17141TIP3   OH272837   3.510   6.652  14.415 -0.0857  0.1740  0.3867
17141TIP3    H172838   3.419   6.626  14.429 -0.3871  0.6520 -0.5482
17141TIP3    H272839   3.507   6.709  14.338  1.2982 -1.7791 -1.2538
17142TIP3   OH272840   1.711   5.231   1.382  0.4034 -0.0957  0.4819
17142TIP3    H172841   1.678   5.320   1.366  0.2042 -0.3901 -0.8305
17142TIP3    H272842   1.781   5.243   1.447 -0.1258  0.9207  0.8909
17143TIP3   OH272843   6.558   4.462   3.503 -0.0676  0.5053  0.4852
17143TIP3    H172844   6.607   4.455   3.422  0.3890  0.5365  0.7574
17143TIP3    H272845   6.488   4.397   3.495 -0.4688  1.0241 -0.2428
17144TIP3   OH272846   6.568   2.920   3.250 -0.2684  0.3259 -0.3673
17144TIP3    H172847   6.625   2.997   3.248 -0.6880  0.6680  0.2038
17144TIP3    H272848   6.595   2.867   3.175  0.1973  0.9104 -0.6194
17145TIP3   OH272849   0.690   2.683  14.769 -0.8135  0.3981 -0.3027
17145TIP3    H172850   0.658   2.596  14.742 -0.5506  0.3132 -0.3470
17145TIP3    H272851   0.724   2.670  14.857  1.8289 -0.2211 -1.3097
17146TIP3   OH272852   2.027   0.187   4.579  0.3350  0.2865  0.5356
17146TIP3    H172853   2.006   0.275   4.548  0.1394  0.7980  2.0134
17146TIP3    H272854   2.029   0.196   4.675  0.6235 -1.2495  0.6935
17147TIP3   OH272855   2.282   1.964   3.333  0.5404 -0.1804  0.4662
17147TIP3    H172856   2.340   1.931   3.265 -0.1074 -3.2747  1.2289
17147TIP3    H272857   2.201   1.985   3.287  1.8493  3.4019 -0.4790
17148TIP3   OH272858   0.633   0.718  14.609  0.1965  0.8601 -0.4169
17148TIP3    H172859   0.653   0.796  14.660  0.5368  0.2446  0.4048
17148TIP3    H272860   0.662   0.739  14.520 -0.2098  1.8622 -0.3234
17149TIP3   OH272861   1.836   5.975  14.215  0.0249  0.0516 -0.4371
17149TIP3    H172862   1.744   5.960  14.190 -0.1165  0.2787 -0.0462
17149TIP3    H272863   1.855   5.905  14.278  0.3141 -0.3801 -0.9903
17150TIP3   OH272864   2.705   4.176   4.742 -0.0150 -0.2061 -0.4060
17150TIP3    H172865   2.732   4.237   4.811 -0.9421 -0.1025 -0.1213
17150TIP3    H272866   2.692   4.093   4.788 -3.6942  0.5528  0.2292
17151TIP3   OH272867   1.215   6.209  13.942  0.1559  0.5962  0.6489
17151TIP3    H172868   1.208   6.170  13.855 -0.9990  1.6933  0.2139
17151TIP3    H272869   1.302   6.184  13.973  0.3611 -0.2902 -0.5837
17152TIP3   OH272870   0.293   0.234   1.008  0.1717 -0.2429  0.0698
17152TIP3    H172871   0.238   0.274   1.075  0.2085  0.1478 -0.1290
17152TIP3    H272872   0.375   0.283   1.011 -0.3584  0.8098 -1.2779
17153TIP3   OH272873   0.370   2.744  13.772 -0.1059 -0.3150  0.4470
17153TIP3    H172874   0.362   2.671  13.711 -1.8310  0.5365 -0.4336
17153TIP3    H272875   0.448   2.791  13.744 -0.5924 -0.2176 -0.8280
17154TIP3   OH272876   2.067   2.738  13.814 -0.3993  0.3442  0.0396
17154TIP3    H172877   2.048   2.746  13.908  1.1302  0.2503  0.3862
17154TIP3    H272878   2.147   2.789  13.802 -0.7119  0.5454 -1.2697
17155TIP3   OH272879   4.616   0.521  13.108 -0.1601 -0.0722 -0.0933
17155TIP3    H172880   4.705   0.495  13.131 -0.8979 -1.8972  0.8708
17155TIP3    H272881   4.583   0.448  13.055 -0.2967  1.6866 -2.6279
17156TIP3   OH272882   5.727   5.229  15.627  0.6406  0.0618  0.0691
17156TIP3    H172883   5.642   5.242  15.586 -0.1509 -1.0735  1.2841
17156TIP3    H272884   5.748   5.313  15.667  0.2460  0.4375 -0.4952
17157TIP3   OH272885   2.584   3.490   5.184  0.8635  0.0780  0.1392
17157TIP3    H172886   2.649   3.511   5.251 -0.8442 -1.0129  2.3035
17157TIP3    H272887   2.500   3.506   5.228 -0.3807  1.1534 -2.4346
17158TIP3   OH272888   6.403   4.369   5.946  0.0668 -0.2533  0.2727
17158TIP3    H172889   6.347   4.390   5.871  0.1280  0.1233  0.3328
17158TIP3    H272890   6.477   4.321   5.908 -0.1710 -0.5381  0.1628
17159TIP3   OH272891   1.222   0.583   3.715 -0.1279 -0.4493  0.0187
17159TIP3    H172892   1.130   0.593   3.743 -0.4332 -1.2108 -0.6893
17159TIP3    H272893   1.272   0.632   3.781 -0.8582 -1.8568  1.7118
17160TIP3   OH272894   0.155   0.603   5.114 -0.3785  0.1039 -0.2753
17160TIP3    H172895   0.109   0.687   5.119  2.2798  1.6439  0.0312
17160TIP3    H272896   0.147   0.567   5.202  0.4848  1.2242  0.2852
17161TIP3   OH272897   0.969   6.040   4.721 -0.2807  0.3331 -0.0942
17161TIP3    H172898   1.008   5.954   4.734  0.5163  0.4537 -1.4247
17161TIP3    H272899   1.020   6.099   4.777 -0.3075  0.0644  0.2145
17162TIP3   OH272900   1.406   4.047   5.447  0.1847 -0.2160 -0.2317
17162TIP3    H172901   1.427   4.139   5.464  2.8934 -0.7321 -0.4341
17162TIP3    H272902   1.322   4.050   5.401  2.0903  2.4922 -3.9937
17163TIP3   OH272903   0.467   1.202   0.182 -0.0643 -0.3714  0.3780
17163TIP3    H172904   0.487   1.252   0.102  0.6600 -1.0206  0.1371
17163TIP3    H272905   0.477   1.265   0.253 -1.6893  0.4781 -0.0947
17164TIP3   OH272906   6.311   3.059   1.475  0.1319  0.0889  0.3818
17164TIP3    H172907   6.377   3.128   1.465  1.0893 -0.5343  2.1002
17164TIP3    H272908   6.361   2.978   1.478 -0.9598 -0.7044 -1.1939
17165TIP3   OH272909   4.075   6.661  13.849 -0.1082 -0.1739  0.4512
17165TIP3    H172910   3.994   6.619  13.878 -0.5768  0.6795  0.4106
17165TIP3    H272911   4.067   6.664  13.754 -0.2015  0.2559  0.4731
17166TIP3   OH272912   0.202   1.105   1.806 -0.7311 -0.0033 -0.0326
17166TIP3    H172913   0.122   1.132   1.762  0.7354  2.4882 -1.4227
17166TIP3    H272914   0.260   1.075   1.736  0.1852 -0.0375  0.7046
17167TIP3   OH272915   0.957   5.275  16.561 -0.6020  0.4172  0.5946
17167TIP3    H172916   1.017   5.246  16.492 -0.6715  3.4410 -0.9023
17167TIP3    H272917   0.927   5.194  16.602  2.5022 -1.3335 -0.2668
17168TIP3   OH272918   0.992   5.564  12.169  0.6588  0.2853 -0.3280
17168TIP3    H172919   1.002   5.602  12.081  1.9704  0.2591 -0.2009
17168TIP3    H272920   1.071   5.591  12.216  2.5772 -3.9293 -0.7011
17169TIP3   OH272921   6.139   1.940  13.984  0.4125 -0.2639  0.5115
17169TIP3    H172922   6.234   1.944  13.975  0.2291  1.3780 -1.8293
17169TIP3    H272923   6.116   1.851  13.960  1.3408 -0.6664  1.0749
17170TIP3   OH272924   3.301   0.602   2.977  0.3567 -0.3691  0.2233
17170TIP3    H172925   3.209   0.625   2.994  0.2697 -0.9222  0.5063
17170TIP3    H272926   3.325   0.543   3.048  0.4544 -1.4663 -0.7000
17171TIP3   OH272927   2.694   0.693  13.772 -0.2947  0.4086 -0.1830
17171TIP3    H172928   2.623   0.753  13.795  0.0036  0.4055  0.7638
17171TIP3    H272929   2.770   0.725  13.820  0.3941  0.4654 -1.2615
17172TIP3   OH272930   6.016   3.252  15.444  0.2832  0.1157 -0.2090
17172TIP3    H172931   6.048   3.252  15.534  0.7281 -1.3157 -0.3440
17172TIP3    H272932   6.034   3.340  15.412  3.6933 -0.4313 -0.1181
17173TIP3   OH272933   0.788   2.773  11.572 -0.1271 -0.6091  0.5654
17173TIP3    H172934   0.715   2.726  11.613 -2.8525  3.0147  0.3093
17173TIP3    H272935   0.852   2.782  11.642 -0.1643 -3.2038  1.0294
17174TIP3   OH272936   1.019   5.129   1.776  0.0920  0.2347  0.4610
17174TIP3    H172937   0.961   5.083   1.837 -1.4925  1.2289 -0.2206
17174TIP3    H272938   0.964   5.198   1.738  1.5547  0.8116 -0.7190
17175TIP3   OH272939   2.234   1.307   2.316 -0.4973  0.5336  0.0991
17175TIP3    H172940   2.286   1.237   2.354 -0.6183 -0.3148 -1.2454
17175TIP3    H272941   2.191   1.349   2.391 -2.5128 -2.4954  0.8061
17176TIP3   OH272942   5.081   1.195   1.793  0.0646 -0.4180 -0.3705
17176TIP3    H172943   5.029   1.116   1.781  0.6484 -0.9200  0.3059
17176TIP3    H272944   5.019   1.260   1.826 -0.6019 -0.3287 -1.7645
17177TIP3   OH272945   5.356   6.475   4.493 -0.4095  0.5740 -0.6929
17177TIP3    H172946   5.290   6.511   4.553 -1.0982 -0.6827 -0.6729
17177TIP3    H272947   5.410   6.418   4.548 -1.6334 -1.3445 -1.3898
17178TIP3   OH272948   5.812   5.989  11.433 -0.2292 -0.2345  0.2591
17178TIP3    H172949   5.867   6.066  11.416 -0.6310  0.1592  0.7164
17178TIP3    H272950   5.772   5.968  11.349  0.4281 -0.3791 -0.0252
17179TIP3   OH272951   3.726   3.715  11.243 -0.1936  0.1698 -0.0026
17179TIP3    H172952   3.745   3.654  11.172 -1.9427 -0.0020 -0.3792
17179TIP3    H272953   3.632   3.733  11.233 -1.1051 -1.6683  3.6177
17180TIP3   OH272954   3.664   2.771  15.613 -0.1505 -0.6212  0.1205
17180TIP3    H172955   3.720   2.836  15.656  0.6627 -1.2150 -0.0157
17180TIP3    H272956   3.636   2.713  15.684  1.1649 -1.5817 -0.1147
17181TIP3   OH272957   1.629   5.693  16.420 -0.0773  0.4889  0.2965
17181TIP3    H172958   1.582   5.610  16.422  0.1408  0.3808  1.6498
17181TIP3    H272959   1.570   5.753  16.372 -0.6270 -0.2005  0.0965
17182TIP3   OH272960   2.701   1.746   5.356 -0.1293  0.1712 -0.1471
17182TIP3    H172961   2.691   1.722   5.264  1.4273 -0.5259 -0.1525
17182TIP3    H272962   2.612   1.738   5.392 -1.0912  2.0613 -1.9191
17183TIP3   OH272963   0.977   3.198   3.727  0.1272 -0.6584 -0.2004
17183TIP3    H172964   0.911   3.188   3.796 -1.4402 -2.1968 -1.8035
17183TIP3    H272965   1.012   3.286   3.740 -1.6719 -0.0845  1.2393
17184TIP3   OH272966   0.167   6.241  14.906 -0.2695  0.0195  0.4204
17184TIP3    H172967   0.189   6.148  14.914 -0.9700 -0.1475  0.4140
17184TIP3    H272968   0.252   6.285  14.903  0.0920 -0.7074 -0.6955
17185TIP3   OH272969   0.073   1.322  16.845 -0.4811  0.1151  0.0406
17185TIP3    H172970   0.114   1.240  16.872  0.3518  0.0211 -1.4024
17185TIP3    H272971  -0.002   1.294  16.792  0.1476  0.2701 -0.9462
17186TIP3   OH272972   3.083   0.464   4.425  0.0967 -0.3881 -0.7187
17186TIP3    H172973   3.171   0.448   4.460  0.1060 -1.6199 -1.2567
17186TIP3    H272974   3.095   0.537   4.364  1.1810 -1.8262 -2.3236
17187TIP3   OH272975   6.572   4.888  14.925 -0.0890  0.2343  0.0054
17187TIP3    H172976   6.479   4.911  14.917 -0.5451 -0.8481  1.7327
17187TIP3    H272977   6.580   4.848  15.011  2.0259  0.3853 -0.0678
17188TIP3   OH272978   5.851   4.837  10.666  0.6401 -0.0724 -0.4779
17188TIP3    H172979   5.900   4.863  10.589  0.4868 -1.1477 -0.9506
17188TIP3    H272980   5.786   4.774  10.634 -0.4763  0.6452  0.2702
17189TIP3   OH272981   1.644   1.239  14.957 -0.5883  0.5434 -0.5194
17189TIP3    H172982   1.703   1.284  14.897 -0.1979  0.6758 -0.0389
17189TIP3    H272983   1.604   1.170  14.904  1.3464 -0.7162 -0.4165
17190TIP3   OH272984   4.777   6.446   1.370 -0.0872 -0.3193 -0.6720
17190TIP3    H172985   4.693   6.462   1.414 -0.0016  0.3281 -0.7358
17190TIP3    H272986   4.801   6.530   1.332 -0.0247 -0.7935 -1.7327
17191TIP3   OH272987   4.880   5.275   5.883 -0.0542 -0.3435  0.0308
17191TIP3    H172988   4.821   5.342   5.849  1.7360  1.5856  0.5174
17191TIP3    H272989   4.856   5.266   5.975  0.5114  0.6113  0.2870
17192TIP3   OH272990   6.166   3.414   0.959  0.3436  0.0139  0.1597
17192TIP3    H172991   6.242   3.432   0.903  0.6645 -1.8227 -0.0457
17192TIP3    H272992   6.157   3.493   1.013  1.7714  0.6730 -0.5071
17193TIP3   OH272993   4.627   1.774   4.139  0.5003 -0.6172  0.0430
17193TIP3    H172994   4.579   1.823   4.205  0.7491  0.9142 -0.8722
17193TIP3    H272995   4.562   1.754   4.071  0.7597 -0.0692 -0.3752
17194TIP3   OH272996   1.879   1.012   0.587 -0.0674  0.4300 -0.0985
17194TIP3    H172997   1.863   0.975   0.674 -0.1283  0.9165  0.0986
17194TIP3    H272998   1.818   1.085   0.581 -0.4514  0.0645 -0.7656
17195TIP3   OH272999   5.271   2.683  17.109 -0.3886 -0.5576  0.2934
17195TIP3    H173000   5.180   2.701  17.086 -0.0482 -0.3243 -0.9668
17195TIP3    H273001   5.269   2.665  17.203 -1.7639 -0.8068  0.2397
17196TIP3   OH273002   1.561   0.901   5.436  0.2334 -0.6031  0.5805
17196TIP3    H173003   1.635   0.904   5.496  0.4439 -0.2515  0.3145
17196TIP3    H273004   1.591   0.846   5.363  0.0777 -0.8084  0.6701
17197TIP3   OH273005   5.565   3.824  14.757  0.6194  0.2370  0.2027
17197TIP3    H173006   5.645   3.862  14.719  2.0149 -1.6575  1.0710
17197TIP3    H273007   5.494   3.862  14.705  1.9913  2.4995 -0.1984
17198TIP3   OH273008   0.704   2.028  14.279 -0.4274 -0.2419  0.6398
17198TIP3    H173009   0.717   2.097  14.214 -0.1676 -0.5461  0.3673
17198TIP3    H273010   0.615   1.997  14.264  0.2404 -1.5703 -0.7988
17199TIP3   OH273011   2.149   5.357   5.770  0.1847  0.0213  0.0963
17199TIP3    H173012   2.127   5.306   5.692  1.1471  0.5518 -0.5479
17199TIP3    H273013   2.157   5.293   5.840 -0.5261 -0.4816 -0.2766
17200TIP3   OH273014   3.599   1.699  11.244  0.1028  0.0935  0.0441
17200TIP3    H173015   3.653   1.701  11.323 -0.2114  1.0655  0.2579
17200TIP3    H273016   3.515   1.665  11.273  0.2110 -0.2290 -0.0222
17201TIP3   OH273017   6.679   6.680   5.724  0.2749 -0.1164 -0.0992
17201TIP3    H173018   6.691   6.585   5.720  2.2336  0.0995 -0.0217
17201TIP3    H273019   6.767   6.716   5.714 -0.1438  1.6404  1.8958
17202TIP3   OH273020   2.158   1.038   4.699 -0.0658 -0.1391  0.3282
17202TIP3    H173021   2.220   1.023   4.770 -0.0707  0.2501  0.4155
17202TIP3    H273022   2.074   1.047   4.742  0.1425  1.6856  0.4382
17203TIP3   OH273023   4.485   1.947  11.574 -0.0371  0.1407 -0.1530
17203TIP3    H173024   4.518   1.992  11.497 -2.4717 -0.3636 -1.5889
17203TIP3    H273025   4.396   1.980  11.586  0.5869  1.0254  3.1772
17204TIP3   OH273026   6.495   0.018  16.886  0.4399 -0.3552 -1.0197
17204TIP3    H173027   6.450  -0.010  16.966 -0.1190 -0.4487 -1.3623
17204TIP3    H273028   6.584   0.040  16.915 -0.7622  3.4975  0.4591
17205TIP3   OH273029   2.018   6.479   6.177 -0.0818 -0.0117  0.1302
17205TIP3    H173030   2.004   6.545   6.245 -0.0239  0.8218 -0.6509
17205TIP3    H273031   1.930   6.448   6.155 -0.4030  1.8771 -1.4948
17206TIP3   OH273032   4.379   6.579  16.352 -0.0739  0.0698  0.0450
17206TIP3    H173033   4.283   6.585  16.349 -0.0270  0.4198 -1.7058
17206TIP3    H273034   4.404   6.557  16.262  1.6290  2.4130 -0.1386
17207TIP3   OH273035   4.840   6.241  12.558 -0.7824 -0.3543  0.5924
17207TIP3    H173036   4.812   6.305  12.624 -1.6176  0.7546 -0.7729
17207TIP3    H273037   4.903   6.289  12.504 -2.1715 -0.2940 -1.0660
17208TIP3   OH273038   3.920   6.732  11.118 -0.1335 -0.4542 -0.7722
17208TIP3    H173039   3.861   6.784  11.172  1.7512  0.4401  0.5726
17208TIP3    H273040   3.930   6.650  11.166  1.2015  0.1728  0.1000
17209TIP3   OH273041   4.374   6.011  17.050 -0.1210 -0.0825  0.2504
17209TIP3    H173042   4.379   6.094  17.097 -1.7568 -0.4825  1.2060
17209TIP3    H273043   4.299   5.966  17.088  1.1018 -2.3025  0.2065
17210TIP3   OH273044   4.317   1.543  16.529 -0.3063  0.3171 -0.9492
17210TIP3    H173045   4.367   1.624  16.520  0.8927 -0.5105 -2.1919
17210TIP3    H273046   4.383   1.474  16.525 -1.2037 -0.7342  0.8471
17211TIP3   OH273047   5.950   1.894  15.607  0.1830  0.2580 -0.2787
17211TIP3    H173048   5.903   1.814  15.583  0.5453 -0.7984  2.2438
17211TIP3    H273049   6.040   1.864  15.622  0.4660  1.2702  0.0851
17212TIP3   OH273050   1.330   2.148   1.047  0.0543 -0.0998 -0.1469
17212TIP3    H173051   1.278   2.081   1.004 -0.6469 -0.3218  0.9993
17212TIP3    H273052   1.413   2.104   1.067 -1.3105 -1.6299  3.0131
17213TIP3   OH273053   4.515   3.206   3.430 -0.3502  0.0662  0.3241
17213TIP3    H173054   4.583   3.142   3.449  0.3065  1.1415  1.8654
17213TIP3    H273055   4.548   3.288   3.468 -2.1372  0.7985  0.4193
17214TIP3   OH273056   2.931   4.456  14.479 -0.4654 -0.5987  0.0600
17214TIP3    H173057   2.839   4.434  14.468 -0.1660 -0.7406 -2.9737
17214TIP3    H273058   2.978   4.393  14.424  1.3354  0.3777  0.3818
17215TIP3   OH273059   0.270   2.481  11.149 -0.0968 -0.8986 -0.5418
17215TIP3    H173060   0.334   2.553  11.149 -1.6813  0.5817  0.7077
17215TIP3    H273061   0.203   2.510  11.087 -0.2257 -1.8344 -0.8473
17216TIP3   OH273062   6.376   3.499   3.993  0.1761 -0.3944  0.0157
17216TIP3    H173063   6.470   3.479   3.998  0.2270 -0.6705 -1.6585
17216TIP3    H273064   6.342   3.439   3.927 -0.8051  1.0082 -0.8024
17217TIP3   OH273065   3.841   6.705   5.937  0.4519 -0.3237 -0.2097
17217TIP3    H173066   3.893   6.668   6.008 -0.3403  1.6583  1.5248
17217TIP3    H273067   3.906   6.744   5.878  1.0818 -1.1018 -0.0422
17218TIP3   OH273068   6.698   2.389   4.379 -0.0465  0.2939 -0.6233
17218TIP3    H173069   6.615   2.340   4.377  0.6593 -1.0093  0.3758
17218TIP3    H273070   6.740   2.367   4.296  0.6681 -1.6175  0.1777
17219TIP3   OH273071   0.148   6.217   2.611  0.4276 -0.0080 -0.4977
17219TIP3    H173072   0.067   6.177   2.580 -0.1127  0.2028  0.5875
17219TIP3    H273073   0.196   6.145   2.652  0.2219  0.1095 -0.0448
17220TIP3   OH273074   4.035   3.541  10.780 -0.0879  0.4320 -0.2751
17220TIP3    H173075   3.965   3.477  10.790  1.3609 -1.4493 -1.4793
17220TIP3    H273076   4.108   3.505  10.831  0.6120  1.3977 -0.5569
17221TIP3   OH273077   0.833   3.089  16.583 -0.1558  0.2158  0.2974
17221TIP3    H173078   0.843   3.006  16.630 -0.1440 -0.8139 -1.4447
17221TIP3    H273079   0.817   3.063  16.492  2.3125  2.1415 -0.7833
17222TIP3   OH273080   3.985   5.340   6.562  0.4557  0.1429 -0.1481
17222TIP3    H173081   4.040   5.369   6.635  0.0280  2.0359 -0.5270
17222TIP3    H273082   3.899   5.327   6.601  0.2231  1.1701 -0.2977
17223TIP3   OH273083   3.425   4.290  14.951  0.2105  0.0227 -0.0930
17223TIP3    H173084   3.496   4.227  14.939  1.0555  0.8897  0.2263
17223TIP3    H273085   3.346   4.240  14.933  0.9308 -0.8141 -1.0679
17224TIP3   OH273086   3.329   3.840  14.406  0.3824  1.2795 -0.9701
17224TIP3    H173087   3.235   3.828  14.421  0.3612  0.2520 -1.7510
17224TIP3    H273088   3.371   3.806  14.485  0.1031  2.0097 -0.4961
17225TIP3   OH273089   2.897   1.413   5.229 -0.0974 -0.1420 -0.0034
17225TIP3    H173090   2.904   1.464   5.310 -1.5345  0.6431 -0.3469
17225TIP3    H273091   2.866   1.327   5.257  0.3425 -0.1867  0.3658
17226TIP3   OH273092   3.045   6.416   0.427 -0.1819  0.1982 -0.3786
17226TIP3    H173093   3.103   6.485   0.459  0.1275  1.0314 -2.6034
17226TIP3    H273094   3.047   6.350   0.496  0.3563  1.9077  1.3408
17227TIP3   OH273095   5.780   4.628  16.862 -0.2638  0.1232 -0.1361
17227TIP3    H173096   5.796   4.694  16.930 -0.3364 -0.9882  0.9968
17227TIP3    H273097   5.692   4.596  16.880 -0.0972 -0.5315 -0.4630
17228TIP3   OH273098   1.285   2.157  14.556 -0.5175 -0.3888  0.0169
17228TIP3    H173099   1.197   2.154  14.594 -0.4569 -0.1739  0.1721
17228TIP3    H273100   1.295   2.072  14.513 -0.8921 -0.3267 -0.2034
17229TIP3   OH273101   5.102   1.283   4.491  0.2459 -0.0616  0.2397
17229TIP3    H173102   5.168   1.264   4.559  0.8610  1.3281  0.0593
17229TIP3    H273103   5.146   1.343   4.431  0.8811 -3.6486 -3.2970
17230TIP3   OH273104   3.073   1.265  14.789  0.0197  0.0455 -0.4509
17230TIP3    H173105   3.166   1.243  14.797  0.1418 -0.1494 -2.0819
17230TIP3    H273106   3.067   1.355  14.821  0.7852  0.0667 -0.3548
17231TIP3   OH273107   5.770   4.982   5.473  0.2403  0.2345 -0.0060
17231TIP3    H173108   5.751   5.040   5.546 -0.3549 -0.6462  0.5615
17231TIP3    H273109   5.686   4.970   5.428  0.2462 -0.5379  0.1621
17232TIP3   OH273110   0.507   5.366  14.869 -0.1558 -0.3479  0.8102
17232TIP3    H173111   0.433   5.354  14.810 -0.3193 -0.2616  0.9951
17232TIP3    H273112   0.468   5.367  14.957  0.3357 -2.8840  1.1247
17233TIP3   OH273113   6.164   1.169  15.665  0.0414  0.0325 -0.2780
17233TIP3    H173114   6.196   1.104  15.603  0.3707  0.6887 -0.8032
17233TIP3    H273115   6.236   1.231  15.674  0.5513 -0.7861  1.8318
17234TIP3   OH273116   3.237   0.044   4.844  0.4197 -0.3553 -0.2369
17234TIP3    H173117   3.269   0.109   4.781  0.9793 -0.8396 -0.4613
17234TIP3    H273118   3.258  -0.040   4.804 -0.3018 -0.6798  0.0542
17235TIP3   OH273119   3.576   4.729   3.647  0.2591 -0.2158 -0.1545
17235TIP3    H173120   3.486   4.759   3.636  0.4590  0.3682 -0.2261
17235TIP3    H273121   3.629   4.791   3.596  0.9697  1.1370  2.1077
17236TIP3   OH273122   5.177   2.487  15.150 -0.4952  0.1736 -0.4153
17236TIP3    H173123   5.119   2.464  15.223 -0.5685 -0.9586 -0.8092
17236TIP3    H273124   5.247   2.537  15.190 -1.3978  0.9920  0.1719
17237TIP3   OH273125   0.591   2.200   6.628  0.1513  0.0347  0.0933
17237TIP3    H173126   0.511   2.187   6.578 -0.6494 -0.6875  1.4793
17237TIP3    H273127   0.619   2.111   6.652  2.7479  0.0336 -2.3098
17238TIP3   OH273128   0.313   2.725  11.602  0.3859  0.6835  0.1669
17238TIP3    H173129   0.281   2.814  11.590 -0.3641  0.2101 -1.6556
17238TIP3    H273130   0.363   2.706  11.523 -0.0329 -0.7388  0.2063
17239TIP3   OH273131   4.620   4.912  14.581  0.2618  0.5326 -0.7018
17239TIP3    H173132   4.595   4.950  14.665 -1.8702 -0.8005 -0.6443
17239TIP3    H273133   4.615   4.985  14.519 -1.6411  0.8486 -0.2407
17240TIP3   OH273134   1.093   4.350   5.945 -0.0696  0.0546  0.6041
17240TIP3    H173135   1.118   4.442   5.939  0.3803 -0.0759  0.4509
17240TIP3    H273136   1.048   4.344   6.030 -1.2774  0.6774  0.0354
17241TIP3   OH273137   6.691   4.787  12.209  0.6404 -0.2177 -0.0503
17241TIP3    H173138   6.625   4.727  12.173  1.5795 -0.6260 -1.1686
17241TIP3    H273139   6.659   4.874  12.186 -0.9975 -0.2046  2.0365
17242TIP3   OH273140   5.921   4.087   2.437  0.2444  0.5581  0.2151
17242TIP3    H173141   5.940   4.178   2.417  0.8958  0.8670  2.1329
17242TIP3    H273142   6.006   4.048   2.454  0.1439 -0.8151 -1.9252
17243TIP3   OH273143   0.888   5.449  11.723 -0.2035 -0.2456  0.2433
17243TIP3    H173144   0.974   5.419  11.694 -0.4225 -1.4504  0.7393
17243TIP3    H273145   0.857   5.379  11.781 -1.4467  0.2389  0.2035
17244TIP3   OH273146   4.557   3.667  15.761  0.5476 -0.5132  0.1201
17244TIP3    H173147   4.524   3.596  15.816 -0.6804 -1.9942 -2.3835
17244TIP3    H273148   4.484   3.728  15.755  0.5779 -0.5050 -0.1464
17245TIP3   OH273149   4.889   4.060   4.163 -0.4471 -0.3965 -0.0033
17245TIP3    H173150   4.845   3.978   4.186 -0.8266  0.2115  1.5571
17245TIP3    H273151   4.831   4.100   4.098 -1.5943 -0.1989  1.0968
17246TIP3   OH273152   4.594   2.592   4.737  0.0216  0.1663  0.2415
17246TIP3    H173153   4.517   2.564   4.786 -1.8061  1.3671 -1.7207
17246TIP3    H273154   4.647   2.513   4.729 -1.5813 -1.0266  0.7106
17247TIP3   OH273155   0.669   4.669  10.398  0.0336 -0.5893  0.4499
17247TIP3    H173156   0.656   4.575  10.387 -0.1288 -0.5572  0.3726
17247TIP3    H273157   0.597   4.698  10.453 -0.1598 -0.4360  0.1226
17248TIP3   OH273158   0.147   6.156   1.163 -0.0069  0.3450  0.3652
17248TIP3    H173159   0.121   6.119   1.079  1.1478 -6.0967  2.2080
17248TIP3    H273160   0.065   6.181   1.205 -1.1636 -0.9248 -1.0156
17249TIP3   OH273161   5.032   4.157   0.655  0.8365  0.2739 -0.2300
17249TIP3    H173162   4.939   4.181   0.649  1.3224  2.3765 -0.1705
17249TIP3    H273163   5.036   4.095   0.728 -0.4814  0.4213 -0.0088
17250TIP3   OH273164   1.527   4.761   4.899  0.0002  0.3325  0.1045
17250TIP3    H173165   1.567   4.846   4.878  1.4012 -0.5186 -0.8043
17250TIP3    H273166   1.486   4.734   4.817  0.9368 -0.5851 -0.0781
17251TIP3   OH273167   1.300   3.278  15.081  0.0868 -0.7495 -0.0469
17251TIP3    H173168   1.357   3.337  15.130 -0.5130 -0.1671 -0.0520
17251TIP3    H273169   1.323   3.293  14.989  0.3199 -0.9300 -0.0208
17252TIP3   OH273170   5.932   6.334   4.161 -0.9268 -0.3750  0.3575
17252TIP3    H173171   5.912   6.333   4.255 -0.2541  0.8174  0.5469
17252TIP3    H273172   5.870   6.396   4.124 -1.0598 -0.6935  0.0439
17253TIP3   OH273173   6.128   0.325   5.761 -0.1407  0.0146  0.7750
17253TIP3    H173174   6.077   0.310   5.682 -2.3454  1.0392  1.9116
17253TIP3    H273175   6.133   0.239   5.803 -0.0148 -0.2929  0.1341
17254TIP3   OH273176   3.811   5.951   5.083  0.3335  0.9239  0.3248
17254TIP3    H173177   3.769   5.989   5.161 -0.5491  1.9856 -0.6261
17254TIP3    H273178   3.877   6.015   5.057  0.2688  0.8287 -0.0879
17255TIP3   OH273179   5.976   2.661  11.863  0.6291 -0.0833  0.0402
17255TIP3    H173180   5.961   2.755  11.864  1.8291  0.1250 -0.0047
17255TIP3    H273181   6.071   2.651  11.875  0.5827 -1.2652 -0.3872
17256TIP3   OH273182   2.821   1.459   0.700 -0.0739 -0.0631 -0.2399
17256TIP3    H173183   2.740   1.492   0.737  0.4480  0.1413  0.7433
17256TIP3    H273184   2.836   1.515   0.623  0.0228  1.0420  0.5508
17257TIP3   OH273185   0.879   2.906  13.828  0.2609  0.3244  0.2181
17257TIP3    H173186   0.940   2.834  13.810  0.1193  0.3139 -0.2220
17257TIP3    H273187   0.902   2.934  13.917  1.3902  0.7993 -0.2023
17258TIP3   OH273188   5.666   1.743  12.518 -0.3051 -0.3518 -0.1984
17258TIP3    H173189   5.578   1.755  12.483 -0.2860  1.1060  0.2104
17258TIP3    H273190   5.706   1.678  12.460  0.2312  2.9397 -3.9410
17259TIP3   OH273191   3.426   1.352  10.965 -0.7242  0.1857 -0.5924
17259TIP3    H173192   3.481   1.410  11.016  0.7451 -1.8313  0.2250
17259TIP3    H273193   3.337   1.367  10.999 -0.0739  0.4004  1.0959
17260TIP3   OH273194   0.156   2.904  10.822  0.1018 -0.0667  0.5888
17260TIP3    H173195   0.230   2.962  10.806  0.6063 -0.4412  1.5212
17260TIP3    H273196   0.158   2.886  10.916  1.5996 -3.7228  0.0378
17261TIP3   OH273197   2.988   5.714   4.998  0.0290  0.3898 -0.4321
17261TIP3    H173198   3.007   5.652   5.068 -1.8487  1.4532  1.1054
17261TIP3    H273199   2.992   5.800   5.040 -0.7359  1.0931 -1.7296
17262TIP3   OH273200   3.791   2.821   5.240 -0.3101 -0.4932 -0.3955
17262TIP3    H173201   3.705   2.788   5.214 -1.0421  0.0992  1.1841
17262TIP3    H273202   3.844   2.742   5.253 -0.9225 -0.8975 -0.3341
17263TIP3   OH273203   4.311   5.808   4.001  0.2919 -0.1284 -0.1294
17263TIP3    H173204   4.400   5.783   3.978  0.5082  1.2495 -0.8522
17263TIP3    H273205   4.272   5.727   4.036  1.4846 -1.0088 -0.7655
17264TIP3   OH273206   6.799   0.766  13.746  0.6026  0.0522 -0.1785
17264TIP3    H173207   6.727   0.809  13.699 -0.4073 -0.6635  0.6770
17264TIP3    H273208   6.870   0.830  13.744 -0.5712  1.4183  0.2940
17265TIP3   OH273209   4.006   1.515   0.275  0.5743  0.2017  0.0830
17265TIP3    H173210   4.080   1.573   0.259  0.3496  0.3994 -0.2483
17265TIP3    H273211   3.941   1.571   0.319  0.1557  0.3488 -0.6874
17266TIP3   OH273212   5.917   3.101  13.800  0.1139 -0.1945  0.6558
17266TIP3    H173213   5.902   3.077  13.709  0.5382 -0.2542  0.5963
17266TIP3    H273214   5.957   3.188  13.796 -1.4955  0.5802  0.8729
17267TIP3   OH273215   0.737   0.282  11.821  0.2344 -0.1894  0.7031
17267TIP3    H173216   0.713   0.189  11.815 -0.0736 -0.1376  1.0603
17267TIP3    H273217   0.752   0.308  11.731  0.6721 -0.6771  0.6290
17268TIP3   OH273218   0.585   2.411   2.246 -0.1054 -0.1046  0.6619
17268TIP3    H173219   0.490   2.426   2.238 -0.0871 -0.6796 -0.9944
17268TIP3    H273220   0.593   2.318   2.268  0.0635  0.1878  1.9084
17269TIP3   OH273221   6.529   3.215   5.578  0.5749  0.3243 -0.1296
17269TIP3    H173222   6.439   3.246   5.567 -0.1282  1.1773  5.1018
17269TIP3    H273223   6.525   3.122   5.560 -0.7450  0.7297 -2.2161
17270TIP3   OH273224   0.445   2.908  16.333  0.4026  0.3010 -0.1755
17270TIP3    H173225   0.442   2.813  16.338  0.6891  0.3171  0.5107
17270TIP3    H273226   0.358   2.937  16.359  0.1558  0.2107 -0.9049
17271TIP3   OH273227   0.315   2.584  13.445  0.2441 -0.2958 -0.0862
17271TIP3    H173228   0.345   2.534  13.521 -0.3324  0.5084  0.6882
17271TIP3    H273229   0.231   2.621  13.472 -0.4552 -0.8021 -1.4728
17272TIP3   OH273230   1.453   5.439  12.974 -0.5442 -0.2896 -0.5652
17272TIP3    H173231   1.457   5.344  12.960  1.8081 -0.4835  0.9963
17272TIP3    H273232   1.537   5.471  12.942  1.0025  0.4730  3.6374
17273TIP3   OH273233   0.129   3.885   5.558 -0.2373 -0.0173  0.1345
17273TIP3    H173234   0.203   3.827   5.577  0.4064  0.1732 -1.6077
17273TIP3    H273235   0.055   3.826   5.545  0.1530 -0.3853 -0.4671
17274TIP3   OH273236   2.650   2.976  13.421  0.7365 -0.2768 -0.0202
17274TIP3    H173237   2.645   2.995  13.327  1.2185 -1.9531 -0.4179
17274TIP3    H273238   2.647   2.881  13.426 -0.3400 -0.1809  1.7564
17275TIP3   OH273239   3.705   6.118   1.946  0.0874 -0.1154  0.0584
17275TIP3    H173240   3.675   6.121   1.855  2.8425  2.2468 -0.9266
17275TIP3    H273241   3.664   6.194   1.987  0.7595  0.2447  0.0770
17276TIP3   OH273242   0.375   1.397  16.662 -0.2206  0.6804 -0.4603
17276TIP3    H173243   0.428   1.318  16.671  0.7522  1.0244 -2.6666
17276TIP3    H273244   0.417   1.460  16.720 -0.2922 -0.0463  0.4035
17277TIP3   OH273245   1.829   2.428  17.094 -0.3793  0.6076 -0.6416
17277TIP3    H173246   1.871   2.349  17.062 -0.1165  0.8723 -0.9510
17277TIP3    H273247   1.838   2.491  17.023 -1.8157  0.4949 -0.9539
17278TIP3   OH273248   3.945   2.868  11.686 -0.3375 -0.4177  0.7028
17278TIP3    H173249   3.964   2.962  11.684 -2.1597 -0.0130  0.2946
17278TIP3    H273250   4.031   2.826  11.687  0.5287  1.2355 -0.0332
17279TIP3   OH273251   6.154   3.937  13.514  0.7239 -0.1068  0.0225
17279TIP3    H173252   6.126   3.881  13.587  0.8420 -0.2700 -0.0581
17279TIP3    H273253   6.196   4.012  13.556 -0.1009  0.2884  0.1586
17280TIP3   OH273254   2.499   5.790  16.784  0.1894  0.0721  0.1470
17280TIP3    H173255   2.494   5.870  16.731 -0.7968 -0.1976 -0.1962
17280TIP3    H273256   2.408   5.770  16.805  0.3644 -1.3337 -0.3296
17281TIP3   OH273257   5.478   1.697  16.136 -0.3952  0.6136  0.2151
17281TIP3    H173258   5.512   1.629  16.194  2.6580  1.2983 -0.5851
17281TIP3    H273259   5.386   1.706  16.160 -0.3215 -2.1408  1.9113
17282TIP3   OH273260   4.452   2.133   0.829  0.0391  0.3788  0.0123
17282TIP3    H173261   4.544   2.127   0.854  0.3573 -0.8561 -1.3224
17282TIP3    H273262   4.453   2.169   0.740 -0.5516 -2.0196 -1.0456
17283TIP3   OH273263   4.769   0.246   1.978  0.2575  0.0468  0.1625
17283TIP3    H173264   4.804   0.322   1.931  1.9683 -1.6848 -1.5850
17283TIP3    H273265   4.679   0.237   1.946  0.3405  0.8164 -0.2930
17284TIP3   OH273266   4.917   0.119  13.538  0.1391  0.0396 -0.5484
17284TIP3    H173267   4.977   0.163  13.598 -0.7874 -0.3519  0.7139
17284TIP3    H273268   4.973   0.087  13.467  1.0522  1.7841 -0.6622
17285TIP3   OH273269   6.033   3.649  13.365 -0.0924  0.7711  0.0904
17285TIP3    H173270   6.093   3.701  13.312  1.0711  0.5480  1.1386
17285TIP3    H273271   5.991   3.713  13.422 -1.0026  0.9489 -0.7517
17286TIP3   OH273272   4.900   5.318  14.357  0.0316 -0.2014  0.9950
17286TIP3    H173273   4.986   5.351  14.332 -1.1990  2.6703  0.0424
17286TIP3    H273274   4.871   5.377  14.427 -2.2453  0.8622 -0.6766
17287TIP3   OH273275   6.281   4.033  14.887 -0.2931  0.8517  0.2422
17287TIP3    H173276   6.296   4.100  14.954  1.8717  1.6460 -0.9473
17287TIP3    H273277   6.255   4.083  14.809 -1.0794  0.0873  0.0014
17288TIP3   OH273278   2.831   1.382  11.786  0.3560  0.5717  0.0749
17288TIP3    H173279   2.791   1.460  11.824  1.7238  0.8641  0.9976
17288TIP3    H273280   2.757   1.328  11.756 -0.6035  2.5987 -1.4067
17289TIP3   OH273281   2.908   3.905   3.626 -0.3203 -0.5780  0.4082
17289TIP3    H173282   2.834   3.917   3.686 -0.8016 -1.0505 -0.0868
17289TIP3    H273283   2.961   3.985   3.638 -0.4742 -0.5996  1.3594
17290TIP3   OH273284   4.710   6.095   4.682 -0.1128 -0.1594 -0.0674
17290TIP3    H173285   4.628   6.143   4.688 -0.2957 -0.5990  1.4731
17290TIP3    H273286   4.752   6.128   4.603 -1.2440  0.9080 -0.2470
17291TIP3   OH273287   3.984   1.678   4.350 -0.5032 -0.7018 -0.0089
17291TIP3    H173288   3.957   1.610   4.411  1.6156 -2.2140 -0.6788
17291TIP3    H273289   4.079   1.671   4.346 -0.5417 -2.0648 -4.9218
17292TIP3   OH273290   4.934   2.872  15.796  0.1914  0.1268  0.2505
17292TIP3    H173291   4.976   2.957  15.790  1.5189 -0.3859  1.7226
17292TIP3    H273292   5.001   2.810  15.768 -0.4677 -0.5297  0.0643
17293TIP3   OH273293   5.096   2.723  11.439  0.2603  0.5632 -0.1340
17293TIP3    H173294   5.108   2.777  11.517 -0.8764  1.1005 -0.3180
17293TIP3    H273295   5.034   2.772  11.385  1.7994  0.7073 -1.8664
17294TIP3   OH273296   4.612   3.806   6.356 -0.3672 -0.4346  0.3964
17294TIP3    H173297   4.615   3.791   6.451 -0.6502 -0.6730  0.3682
17294TIP3    H273298   4.528   3.850   6.342 -0.7656 -1.2605  0.1347
17295TIP3   OH273299   2.039   6.619  10.717  0.7500  0.0537  0.3755
17295TIP3    H173300   2.003   6.556  10.780 -3.4295  1.1110 -0.6044
17295TIP3    H273301   2.068   6.566  10.643 -2.1469 -0.9521 -0.1905
17296TIP3   OH273302   6.547   4.626  15.765 -0.8408  0.2256  0.0613
17296TIP3    H173303   6.555   4.677  15.846 -0.7025  2.5895 -1.3399
17296TIP3    H273304   6.583   4.684  15.697 -0.2518 -1.9631 -1.6030
17297TIP3   OH273305   2.824   3.226   2.175  0.2942  0.1541 -0.3482
17297TIP3    H173306   2.891   3.288   2.143  1.7201 -0.8798  0.5293
17297TIP3    H273307   2.808   3.253   2.265 -2.3662  1.9177 -1.2282
17298TIP3   OH273308   2.226   3.360  15.391  0.4989  0.2113  0.5161
17298TIP3    H173309   2.135   3.389  15.386  0.4181 -0.1929 -0.5111
17298TIP3    H273310   2.225   3.289  15.454  0.5325  1.7452  2.3343
17299TIP3   OH273311   5.356   2.496   1.898  0.2036 -0.1405 -0.2937
17299TIP3    H173312   5.305   2.436   1.952  0.0342 -0.8953 -1.2627
17299TIP3    H273313   5.444   2.461   1.899  0.2495 -0.0267 -0.3268
17300TIP3   OH273314   6.211   2.530   3.608  0.2472 -0.2879 -0.1691
17300TIP3    H173315   6.292   2.484   3.627  1.5216  1.9435  0.1006
17300TIP3    H273316   6.217   2.553   3.516 -0.6234 -1.0575 -0.4384
17301TIP3   OH273317   0.146   6.791   4.067  0.4170 -0.1129  0.0990
17301TIP3    H173318   0.068   6.744   4.096 -0.5406  0.2144 -1.8001
17301TIP3    H273319   0.125   6.884   4.079  1.6042 -0.0402  2.1131
17302TIP3   OH273320   4.737   2.328   6.305 -0.0367  0.2343  0.2836
17302TIP3    H173321   4.725   2.419   6.278  0.5478  0.0451 -0.6614
17302TIP3    H273322   4.703   2.325   6.394  0.1363  1.4251  0.4091
17303TIP3   OH273323   4.297   0.699  13.583 -0.9635 -0.3452  0.3520
17303TIP3    H173324   4.340   0.703  13.498 -1.9375 -0.6580 -0.1722
17303TIP3    H273325   4.205   0.716  13.563 -1.3255 -1.2171  1.2453
17304TIP3   OH273326   6.377   0.010   0.455  0.1542  0.3969 -0.0180
17304TIP3    H173327   6.300   0.056   0.424 -0.4984  0.6284  1.8485
17304TIP3    H273328   6.343  -0.059   0.512  1.1630 -1.7438 -1.8221
17305TIP3   OH273329   5.165   5.153  10.942  0.6227 -0.2329  0.4458
17305TIP3    H173330   5.136   5.097  10.871 -0.1725 -1.6981  1.8470
17305TIP3    H273331   5.259   5.164  10.927  0.2528  0.6631 -1.5474
17306TIP3   OH273332   0.682   1.199  15.729 -0.3400 -0.2443  0.2031
17306TIP3    H173333   0.759   1.154  15.693  0.0333 -0.4569  1.2331
17306TIP3    H273334   0.623   1.127  15.754 -0.2147 -0.1304  0.8319
17307TIP3   OH273335   0.493   2.221   5.843  0.4320  0.2016  0.0068
17307TIP3    H173336   0.467   2.178   5.762 -0.9596  2.2690 -0.7102
17307TIP3    H273337   0.412   2.234   5.892  0.9623  0.9994  0.7148
17308TIP3   OH273338   4.599   5.643  16.053  0.7648  0.2015  0.2134
17308TIP3    H173339   4.534   5.677  16.115 -1.0663 -1.9809 -0.3982
17308TIP3    H273340   4.652   5.583  16.105  1.6957  1.1990  0.4667
17309TIP3   OH273341   3.168   3.140   1.988 -0.0923 -0.1368 -0.4965
17309TIP3    H173342   3.152   3.125   1.894 -1.5404 -0.1532 -0.2749
17309TIP3    H273343   3.160   3.053   2.027  1.2127 -0.2435 -0.4251
17310TIP3   OH273344   4.940   0.083  11.794 -0.0384  0.8641 -0.3833
17310TIP3    H173345   4.919   0.161  11.845  0.6305  0.3379  0.7585
17310TIP3    H273346   5.028   0.059  11.824 -0.8544 -1.2580  0.5418
17311TIP3   OH273347   1.223   4.635  16.159 -0.7590 -0.1448 -0.7233
17311TIP3    H173348   1.210   4.569  16.227 -0.0934  0.1557 -0.2893
17311TIP3    H273349   1.211   4.588  16.076 -0.8924 -0.6643 -0.4121
17312TIP3   OH273350   0.774   5.198  14.461  0.6613  0.6784 -0.4114
17312TIP3    H173351   0.756   5.112  14.498  2.8047  0.7480  0.9487
17312TIP3    H273352   0.719   5.203  14.383 -0.3004 -1.4744  0.0707
17313TIP3   OH273353   1.842   0.014  14.077  0.2366  0.1547  0.4178
17313TIP3    H173354   1.777   0.009  14.007 -0.2546  1.5913  0.7454
17313TIP3    H273355   1.794  -0.014  14.155  0.9857 -2.1991  0.1091
17314TIP3   OH273356   4.218   3.194   6.020 -0.1211 -0.6248  0.1432
17314TIP3    H173357   4.197   3.235   6.104 -1.0556 -2.2666  0.7609
17314TIP3    H273358   4.155   3.232   5.959 -0.0394 -0.0913  0.3880
17315TIP3   OH273359   2.570   5.748  14.377 -0.0982  0.0388  0.3562
17315TIP3    H173360   2.534   5.792  14.454  2.8395  1.7175  0.9070
17315TIP3    H273361   2.627   5.680  14.413  0.5865  0.2365 -0.3217
17316TIP3   OH273362   3.543   2.589   4.796  0.6534 -0.0309  0.4420
17316TIP3    H173363   3.589   2.594   4.713 -0.6261 -0.3126 -0.3245
17316TIP3    H273364   3.612   2.581   4.862  1.8049  2.3080 -0.3640
17317TIP3   OH273365   0.261   2.588  17.165  0.3182 -0.1112  0.0417
17317TIP3    H173366   0.324   2.529  17.207 -1.2367 -1.3756  0.7012
17317TIP3    H273367   0.218   2.534  17.099 -0.4840  0.5424  0.0133
17318TIP3   OH273368   0.365   5.902   4.080  0.4770  0.7694  0.2824
17318TIP3    H173369   0.401   5.907   3.991 -0.4477  1.0225 -0.0909
17318TIP3    H273370   0.434   5.859   4.131 -0.0352 -1.9929 -1.1417
17319TIP3   OH273371   0.101   3.515  13.677 -0.5809 -0.2068  0.1264
17319TIP3    H173372   0.116   3.605  13.707  0.4488 -0.0062 -0.9139
17319TIP3    H273373   0.183   3.469  13.696 -0.8842 -0.7732  0.0892
17320TIP3   OH273374   0.320   4.758  16.986  0.3203  0.1151  0.2851
17320TIP3    H173375   0.404   4.723  17.015  0.8920 -0.4173 -1.8622
17320TIP3    H273376   0.290   4.698  16.918 -2.5075 -0.4760  1.8909
17321TIP3   OH273377   1.857   2.740   4.411 -0.5592  0.6214 -0.6163
17321TIP3    H173378   1.855   2.833   4.389  0.2751  0.3443 -1.9600
17321TIP3    H273379   1.849   2.695   4.327  0.0055 -0.5114 -0.0846
17322TIP3   OH273380   5.847   4.072  11.443  0.3692  0.0492 -0.1353
17322TIP3    H173381   5.908   4.030  11.382 -0.6980  1.0150 -1.9679
17322TIP3    H273382   5.903   4.124  11.501  1.3513  0.5539 -1.4760
17323TIP3   OH273383   3.223   6.206   2.360 -0.0118  0.0973 -0.2574
17323TIP3    H173384   3.174   6.154   2.297 -0.6546  1.7110 -1.1502
17323TIP3    H273385   3.157   6.243   2.418  0.4919 -0.5724  0.7851
17324TIP3   OH273386   1.794   2.912  14.778  0.1729  0.8109  0.4615
17324TIP3    H173387   1.795   2.920  14.874 -2.4142 -0.9484  0.7537
17324TIP3    H273388   1.705   2.882  14.758  0.5130  1.5408 -2.5602
17325TIP3   OH273389   4.109   1.542   4.807  0.1760 -0.0585  0.9324
17325TIP3    H173390   4.085   1.555   4.899 -1.6797 -0.1224  0.4921
17325TIP3    H273391   4.159   1.460   4.807  0.4102  0.0737  1.9139
17326TIP3   OH273392   5.421   4.314   3.853  0.1278 -0.0947  0.1827
17326TIP3    H173393   5.415   4.279   3.943  2.8856  0.3055  0.6091
17326TIP3    H273394   5.396   4.240   3.798 -1.8609 -0.2845  1.2282
17327TIP3   OH273395   6.728   6.391   1.078 -0.4227  0.2239 -0.1641
17327TIP3    H173396   6.655   6.411   1.137 -0.6458 -2.8633  0.7964
17327TIP3    H273397   6.799   6.448   1.107 -1.9284  2.2147 -0.1303
17328TIP3   OH273398   1.777   5.622  11.149  0.0658 -0.1306 -0.2963
17328TIP3    H173399   1.808   5.663  11.068  1.0482 -0.1598  0.0502
17328TIP3    H273400   1.772   5.529  11.129  0.6747 -0.1840 -0.2174
17329TIP3   OH273401   4.959   6.520  15.221  0.4534 -0.2492 -0.1098
17329TIP3    H173402   5.013   6.516  15.300 -0.4287  1.2876  0.6165
17329TIP3    H273403   5.007   6.580  15.163  0.8291 -0.9493 -0.5277
17330TIP3   OH273404   6.506   1.747   1.881  0.0147  0.4066 -0.3365
17330TIP3    H173405   6.419   1.780   1.905  0.0962 -0.5414  1.4312
17330TIP3    H273406   6.513   1.664   1.928  2.3542  1.0655  0.5878
17331TIP3   OH273407   0.707   5.540   4.157 -0.1077 -0.8963 -0.3876
17331TIP3    H173408   0.681   5.448   4.147 -0.8351 -0.9576  1.7117
17331TIP3    H273409   0.772   5.539   4.226 -0.9804  0.2906  0.4839
17332TIP3   OH273410   3.179   0.774  10.291  0.1373 -0.1781  0.0501
17332TIP3    H173411   3.128   0.843  10.248 -0.3168 -1.4413 -1.5483
17332TIP3    H273412   3.216   0.816  10.368 -0.1589  1.8334 -0.8408
17333TIP3   OH273413   6.091   6.413   5.037  0.5532  0.0716  0.2972
17333TIP3    H173414   6.037   6.336   5.017 -0.3404  1.1154 -1.5738
17333TIP3    H273415   6.151   6.420   4.963  0.7283  1.0729  0.5152
17334TIP3   OH273416   6.128   2.744  13.590  0.1705  0.4142  0.4278
17334TIP3    H173417   6.140   2.689  13.512  1.0508  0.7637  0.2992
17334TIP3    H273418   6.151   2.686  13.663 -1.0971 -0.0509  0.4793
17335TIP3   OH273419   2.426   6.648  12.902  0.2573 -0.3191  0.0726
17335TIP3    H173420   2.431   6.719  12.839  1.5784  0.5275  1.0799
17335TIP3    H273421   2.448   6.569  12.852 -2.3453 -0.2798 -1.3240
17336TIP3   OH273422   6.193   2.405   4.320 -0.3236 -0.0769 -0.3265
17336TIP3    H173423   6.246   2.345   4.373 -1.0918 -0.4255  0.0601
17336TIP3    H273424   6.168   2.354   4.244 -1.8104 -0.6106  0.4733
17337TIP3   OH273425   1.960   2.046   4.741 -0.3558  0.3053 -0.2596
17337TIP3    H173426   1.968   1.980   4.810  0.0058 -0.5464 -1.0955
17337TIP3    H273427   2.019   2.016   4.672 -1.7201  0.3989 -1.5082
17338TIP3   OH273428   5.089   1.110   2.457 -0.4143  0.1718  0.3138
17338TIP3    H173429   4.995   1.102   2.474 -0.4653  2.4421  1.5520
17338TIP3    H273430   5.130   1.089   2.541  0.0591  0.8325  0.2548
17339TIP3   OH273431   0.456   1.941  11.449 -0.6801 -0.1953 -0.0952
17339TIP3    H173432   0.541   1.979  11.429 -0.7773 -0.5876 -1.3926
17339TIP3    H273433   0.449   1.866  11.390 -1.7646 -0.3966  0.2586
17340TIP3   OH273434   3.663   4.114  14.942 -0.2493  0.1306  0.0323
17340TIP3    H173435   3.670   4.022  14.917 -1.8535 -0.6677  2.1690
17340TIP3    H273436   3.747   4.134  14.984 -0.2464 -0.6508  0.4110
17341TIP3   OH273437   0.098   6.346   1.371  0.6727 -0.0431  0.3943
17341TIP3    H173438   0.052   6.262   1.380 -0.6631  0.4549 -1.2274
17341TIP3    H273439   0.153   6.335   1.293  1.1566  0.2963  0.6849
17342TIP3   OH273440   4.171   6.640  13.328 -0.0619  0.2986 -0.3424
17342TIP3    H173441   4.259   6.617  13.299  0.7380  3.1602 -0.4815
17342TIP3    H273442   4.121   6.651  13.248 -0.7275 -1.7355 -0.2551
17343TIP3   OH273443   4.443   1.147   2.298  0.0192 -0.2875 -0.1652
17343TIP3    H173444   4.450   1.134   2.392  0.6628  2.3682  0.2162
17343TIP3    H273445   4.393   1.228   2.288  0.9344  0.1009 -2.0685
17344TIP3   OH273446   5.512   4.261   1.628 -0.4789 -0.1204  0.0842
17344TIP3    H173447   5.545   4.274   1.539 -2.0002  0.6586 -0.4112
17344TIP3    H273448   5.562   4.324   1.681 -2.0728  2.1354 -0.8992
17345TIP3   OH273449   6.648   2.632   0.234 -0.1688  0.0175  0.1604
17345TIP3    H173450   6.611   2.643   0.321 -0.7106 -1.8509  0.2125
17345TIP3    H273451   6.722   2.692   0.231 -1.3624  1.6054  1.1490
17346TIP3   OH273452   6.650   0.850  10.673  0.4199  0.4173  0.6266
17346TIP3    H173453   6.704   0.898  10.610 -0.9430  1.4068  0.1628
17346TIP3    H273454   6.633   0.766  10.631 -0.1213  0.9092 -0.1709
17347TIP3   OH273455   4.556   0.979   6.368 -0.1052 -0.2391  0.1963
17347TIP3    H173456   4.478   1.002   6.318  0.8819  2.6504 -0.2035
17347TIP3    H273457   4.594   0.904   6.322 -2.0855 -1.1330 -0.1078
17348TIP3   OH273458   0.548   5.066   0.057 -0.6276 -0.1317  0.4410
17348TIP3    H173459   0.523   5.016   0.135 -1.0284  1.6362  1.4972
17348TIP3    H273460   0.615   5.127   0.088 -0.6122  0.4232 -0.6576
17349TIP3   OH273461   1.629   5.290   3.300 -0.0126  0.5238 -0.2279
17349TIP3    H173462   1.625   5.340   3.382  0.7612 -0.1296  0.2253
17349TIP3    H273463   1.672   5.208   3.324 -3.2412 -1.4119 -0.4303
17350TIP3   OH273464   2.192   0.171  16.648 -0.1626 -0.0656 -0.3643
17350TIP3    H173465   2.260   0.228  16.614  0.8829 -1.6581 -1.0886
17350TIP3    H273466   2.136   0.228  16.701  2.2482  1.1242  1.0461
17351TIP3   OH273467   3.733   1.340  11.837 -0.0082  0.8166 -0.4254
17351TIP3    H173468   3.828   1.343  11.838 -0.0241  2.3205  0.8792
17351TIP3    H273469   3.707   1.399  11.766  0.0282 -0.2585 -1.3431
17352TIP3   OH273470   5.351   1.430   3.834  0.2863 -0.7154  0.1278
17352TIP3    H173471   5.304   1.490   3.892  0.8246 -0.7191  0.5747
17352TIP3    H273472   5.297   1.351   3.832 -1.7436  0.5735 -2.3999
17353TIP3   OH273473   2.866   4.742  10.971  0.0023  0.0664  0.0328
17353TIP3    H173474   2.813   4.818  10.995  1.9437  2.0387 -1.4745
17353TIP3    H273475   2.816   4.700  10.900 -1.4403 -0.5686  1.3719
17354TIP3   OH273476   5.205   2.934  15.983  0.6972  0.3975  0.0523
17354TIP3    H173477   5.128   2.900  16.029  0.8049 -1.4047 -1.0072
17354TIP3    H273478   5.172   3.004  15.928  0.3272  1.6014  1.7173
17355TIP3   OH273479   1.215   3.510   1.344 -0.1694 -0.3446 -0.0263
17355TIP3    H173480   1.159   3.486   1.418 -2.3102  3.1986 -0.2907
17355TIP3    H273481   1.226   3.605   1.351  2.1051 -0.2815 -2.6053
17356TIP3   OH273482   4.776   0.870  12.344  0.7305 -0.0231 -0.2940
17356TIP3    H173483   4.704   0.897  12.287  0.9899 -0.6349 -0.9236
17356TIP3    H273484   4.746   0.787  12.382  0.4678  0.4836  0.6469
17357TIP3   OH273485   4.354   4.217  12.959 -0.4982  0.1065 -0.1167
17357TIP3    H173486   4.307   4.300  12.955  0.4002  0.7155  1.2713
17357TIP3    H273487   4.442   4.240  12.987 -0.1062 -1.2768 -0.1284
17358TIP3   OH273488   0.104   6.564   5.053  0.4241  0.3156  0.5784
17358TIP3    H173489   0.009   6.548   5.047  0.4119  0.7997 -0.8450
17358TIP3    H273490   0.141   6.509   4.984  0.8235  2.7836 -1.2928
17359TIP3   OH273491   0.156   5.099   4.069 -0.0314  0.6516  0.0107
17359TIP3    H173492   0.102   5.177   4.080 -1.7345 -0.6461  1.3959
17359TIP3    H273493   0.239   5.132   4.035 -1.1372  2.8982 -0.7044
17360TIP3   OH273494   4.103   4.241   1.522 -0.6861  0.3934 -0.0167
17360TIP3    H173495   4.191   4.267   1.549 -0.3144 -1.8747  1.1996
17360TIP3    H273496   4.104   4.245   1.426  0.5156  0.9756  0.0086
17361TIP3   OH273497   0.238   0.795   1.465  0.1261  0.1194 -0.0161
17361TIP3    H173498   0.222   0.888   1.479  1.1959  0.1275  1.2728
17361TIP3    H273499   0.154   0.753   1.486 -0.4767  0.7939 -0.9722
17362TIP3   OH273500   3.161   4.638   5.420  0.0964 -0.1799  0.4238
17362TIP3    H173501   3.200   4.564   5.467  0.5554 -0.2079  0.0012
17362TIP3    H273502   3.149   4.606   5.331  0.9315  0.4762  0.0641
17363TIP3   OH273503   1.872   0.738  15.178  0.7644  0.0698  0.6394
17363TIP3    H173504   1.842   0.673  15.115  1.4108  0.2608  0.1311
17363TIP3    H273505   1.791   0.768  15.221  0.3568 -0.2915  0.1404
17364TIP3   OH273506   3.353   2.410  17.028 -0.4666  0.3396  0.4695
17364TIP3    H173507   3.418   2.407  16.958 -1.4013  3.9155 -0.7974
17364TIP3    H273508   3.395   2.459  17.098 -1.2958  1.4570  0.2025
17365TIP3   OH273509   4.861   5.154   3.809  0.4067 -0.5573  0.3419
17365TIP3    H173510   4.891   5.072   3.770  0.0986 -1.4454  1.8723
17365TIP3    H273511   4.883   5.221   3.744 -1.6749 -2.0842 -2.1389
17366TIP3   OH273512   0.719   2.411   0.167  0.2855  0.4096 -0.1276
17366TIP3    H173513   0.673   2.435   0.086  0.8766  1.3883 -0.2017
17366TIP3    H273514   0.675   2.332   0.197  0.7481 -0.6268 -1.9989
17367TIP3   OH273515   0.115   6.699   4.700  0.0780 -0.0027  0.1917
17367TIP3    H173516   0.089   6.607   4.707  3.1563 -1.0962 -0.7699
17367TIP3    H273517   0.112   6.732   4.789 -1.5827 -0.8661  0.4870
17368TIP3   OH273518   1.271   4.393   3.465 -0.1492 -0.1610  0.2632
17368TIP3    H173519   1.221   4.463   3.421 -0.2894 -0.6329 -0.3540
17368TIP3    H273520   1.216   4.315   3.455  0.4219 -0.5554  0.1388
17369TIP3   OH273521   3.867   6.051   1.285  0.7473 -0.8188  0.1392
17369TIP3    H173522   3.784   6.040   1.332  1.8005 -1.6865  1.8649
17369TIP3    H273523   3.840   6.068   1.194 -1.3683  1.0402  1.0011
17370TIP3   OH273524   2.230   5.903   0.790  0.0123 -0.0806  0.4061
17370TIP3    H173525   2.311   5.951   0.808  0.1100  0.1124 -0.4746
17370TIP3    H273526   2.256   5.838   0.724  0.0005 -1.6926  1.9152
17371TIP3   OH273527   1.717   0.427   4.106  0.3184  0.5594 -0.3218
17371TIP3    H173528   1.774   0.451   4.179 -1.4029 -2.6229  2.3759
17371TIP3    H273529   1.741   0.337   4.085 -2.6289 -0.4168 -0.0046
17372TIP3   OH273530   5.393   1.816  14.763  0.0164 -0.1001  0.1320
17372TIP3    H173531   5.360   1.889  14.816  3.4692  2.0767 -0.4207
17372TIP3    H273532   5.448   1.765  14.823 -0.0447 -0.5478 -0.1845
17373TIP3   OH273533   2.422   4.254   2.916 -0.0270 -0.3142  0.9798
17373TIP3    H173534   2.405   4.161   2.929  0.9599 -0.3859  1.9053
17373TIP3    H273535   2.451   4.260   2.825  0.7997 -1.0670  1.1721
17374TIP3   OH273536   2.130   1.262   3.025 -0.0551 -0.1017 -0.4375
17374TIP3    H173537   2.131   1.358   3.023  0.8777  0.0279  2.0319
17374TIP3    H273538   2.221   1.237   3.010  0.0744 -0.4495  0.7613
17375TIP3   OH273539   1.080   5.277  11.011 -0.2528 -0.3587  0.5823
17375TIP3    H173540   1.166   5.317  10.998  0.0787 -0.5919  1.9299
17375TIP3    H273541   1.021   5.328  10.955  0.7203 -0.0946 -0.2355
17376TIP3   OH273542   1.216   1.776  11.550  0.5235 -0.1552  0.3788
17376TIP3    H173543   1.211   1.800  11.458  0.4232 -0.7926  0.2170
17376TIP3    H273544   1.237   1.858  11.595 -0.5524  0.3901 -0.0847
17377TIP3   OH273545   2.797   2.099  16.131 -0.8138  0.4571 -0.8262
17377TIP3    H173546   2.787   2.045  16.053 -0.1122 -3.2450  1.3856
17377TIP3    H273547   2.711   2.099  16.172 -0.4043 -0.6192  0.0890
17378TIP3   OH273548   3.083   1.911   3.094 -0.4122  0.5473 -0.4654
17378TIP3    H173549   3.117   1.834   3.140 -1.8577  0.2103  0.0747
17378TIP3    H273550   3.159   1.944   3.044  0.1676 -1.3962 -0.9619
17379TIP3   OH273551   0.204   6.226  11.986  0.9019 -0.5482  0.0261
17379TIP3    H173552   0.115   6.204  11.958  0.3131  1.7955 -0.1125
17379TIP3    H273553   0.260   6.195  11.915  0.1112 -1.0380 -0.3971
17380TIP3   OH273554   5.705   5.641   1.594  0.3159  0.2836  0.0924
17380TIP3    H173555   5.684   5.666   1.504 -0.1199 -1.4479 -0.3258
17380TIP3    H273556   5.627   5.664   1.644 -0.0652 -0.1953 -0.2735
17381TIP3   OH273557   1.824   3.534   0.794  0.3719 -0.1727  0.2833
17381TIP3    H173558   1.798   3.450   0.757 -1.1899  0.2159  0.4522
17381TIP3    H273559   1.909   3.517   0.835  1.1468 -1.1087 -1.6048
17382TIP3   OH273560   1.339   0.714   2.762 -0.4041  0.0040  0.4353
17382TIP3    H173561   1.400   0.716   2.835  0.1139  1.3317 -0.0171
17382TIP3    H273562   1.364   0.635   2.712  3.1945  2.1266 -1.5682
17383TIP3   OH273563   3.680   3.610   0.523  0.1224  0.9047 -0.1661
17383TIP3    H173564   3.741   3.682   0.539  1.7408 -0.9721  2.8148
17383TIP3    H273565   3.604   3.632   0.576  0.0829  0.9869 -0.2542
17384TIP3   OH273566   3.975   6.154  15.937 -0.6524 -1.2937 -0.5187
17384TIP3    H173567   3.948   6.232  15.888  1.5450  1.1993  1.9491
17384TIP3    H273568   3.929   6.161  16.020  0.6945 -1.7884  0.2985
17385TIP3   OH273569   1.260   2.642  12.121 -0.1581 -0.2544  0.2632
17385TIP3    H173570   1.279   2.693  12.042 -0.0436 -0.9008 -0.1385
17385TIP3    H273571   1.199   2.575  12.091  0.6198 -1.0909  0.5066
17386TIP3   OH273572   4.587   6.469   0.924 -0.2582 -0.5211  0.0948
17386TIP3    H173573   4.620   6.423   0.847  1.2976  1.7292 -0.6803
17386TIP3    H273574   4.504   6.507   0.897  1.0854  1.7419 -1.1800
17387TIP3   OH273575   0.736   0.685   6.158  0.5627 -0.1479  0.2120
17387TIP3    H173576   0.729   0.642   6.244  0.7111  0.4214  0.5118
17387TIP3    H273577   0.829   0.709   6.151  0.4259  0.3649  0.1618
17388TIP3   OH273578   6.529   0.687   1.580  0.1084 -0.1152  0.0731
17388TIP3    H173579   6.606   0.736   1.551 -1.4615  2.5055 -0.0568
17388TIP3    H273580   6.502   0.637   1.503  0.7073  0.2763 -0.4041
17389TIP3   OH273581   1.072   2.310   2.328  0.3501  0.2069  0.2219
17389TIP3    H173582   1.001   2.374   2.337  1.6000  1.8179 -0.7546
17389TIP3    H273583   1.038   2.230   2.369 -2.3957  0.5881 -1.0754
17390TIP3   OH273584   5.168   3.426   6.464 -0.1634 -0.3563 -0.0694
17390TIP3    H173585   5.225   3.350   6.478  0.8140  0.0560 -1.5797
17390TIP3    H273586   5.138   3.449   6.551  3.1333  0.2682  1.0526
17391TIP3   OH273587   4.989   1.694  16.225 -0.2851  0.2134 -0.1680
17391TIP3    H173588   4.990   1.600  16.242  1.1534 -0.1870 -2.1880
17391TIP3    H273589   4.951   1.732  16.305 -1.0480 -2.0577  0.6355
17392TIP3   OH273590   6.313   0.744  12.266  0.1590 -0.2457  0.1025
17392TIP3    H173591   6.297   0.665  12.317 -0.0136  0.6924  1.5717
17392TIP3    H273592   6.385   0.787  12.311  0.8341  0.0103 -1.1924
17393TIP3   OH273593   3.612   2.255  11.984 -0.1092 -0.0605  0.4567
17393TIP3    H173594   3.639   2.176  12.031 -1.5724 -0.0821  1.3417
17393TIP3    H273595   3.572   2.223  11.903 -1.3896 -0.3034  1.1623
17394TIP3   OH273596   0.447   4.977  11.568  0.2750 -0.0167 -0.6768
17394TIP3    H173597   0.473   4.909  11.506  0.5138  0.2600 -0.8778
17394TIP3    H273598   0.514   5.045  11.559  1.6730 -0.9728  1.5217
17395TIP3   OH273599   3.845   5.189   6.047  0.0284 -0.0381 -0.6859
17395TIP3    H173600   3.913   5.157   6.106 -1.2507 -2.5518 -0.4503
17395TIP3    H273601   3.777   5.224   6.104  0.6484  1.5789 -0.8889
17396TIP3   OH273602   5.655   5.379  14.562  0.1133 -0.0089 -0.1836
17396TIP3    H173603   5.748   5.356  14.565 -0.2402 -1.4530  1.5073
17396TIP3    H273604   5.624   5.364  14.652 -1.6132  1.0706 -0.5618
17397TIP3   OH273605   1.963   2.816   0.085 -0.3347 -0.0753  0.4444
17397TIP3    H173606   1.912   2.742   0.118 -0.4411 -0.4037 -0.4390
17397TIP3    H273607   2.013   2.780   0.012  1.3709  0.1801  1.4414
17398TIP3   OH273608   0.123   0.780  13.177  0.7401 -0.1574 -0.0126
17398TIP3    H173609   0.149   0.794  13.086  0.8199 -1.3564 -0.1853
17398TIP3    H273610   0.050   0.841  13.190 -0.5993 -1.3547 -1.5011
17399TIP3   OH273611   0.537   0.418  15.285 -0.0331 -0.2126 -0.2777
17399TIP3    H173612   0.563   0.418  15.193  0.4494  2.7006 -0.2209
17399TIP3    H273613   0.465   0.481  15.289 -0.4623 -0.7688  1.2416
17400TIP3   OH273614   2.474   0.814  16.631 -0.6603  0.0051 -0.3949
17400TIP3    H173615   2.415   0.862  16.689 -0.4433  0.0168 -0.1833
17400TIP3    H273616   2.443   0.835  16.542 -1.5891 -0.7786 -0.2709
17401TIP3   OH273617   4.658   6.568  15.153  0.0069 -0.4159  0.2735
17401TIP3    H173618   4.744   6.526  15.159 -0.6633 -2.1919 -1.3785
17401TIP3    H273619   4.605   6.524  15.220  0.5691  1.3791  1.9964
17402TIP3   OH273620   5.777   1.359  16.344  0.3295 -0.2540 -0.4801
17402TIP3    H173621   5.846   1.388  16.403  0.6348 -0.2543 -0.8322
17402TIP3    H273622   5.807   1.385  16.257  0.1301 -0.7153 -0.6910
17403TIP3   OH273623   6.173   4.552   0.004  0.2794  0.5768 -0.3226
17403TIP3    H173624   6.222   4.497   0.066 -0.0077  0.8258  0.1285
17403TIP3    H273625   6.085   4.516   0.006  0.2838  0.5486 -0.6336
17404TIP3   OH273626   1.276   1.501   1.685 -0.0387  0.3728 -0.3675
17404TIP3    H173627   1.318   1.454   1.613  1.8361  1.2785  0.0608
17404TIP3    H273628   1.304   1.453   1.764  0.2284  1.0107 -0.0688
17405TIP3   OH273629   5.715   6.186  14.944  0.3273 -0.1553  0.2746
17405TIP3    H173630   5.809   6.197  14.930 -0.3720  1.1756 -6.1626
17405TIP3    H273631   5.701   6.092  14.943  1.4758 -0.3480 -1.2927
17406TIP3   OH273632   2.359   4.110  15.866 -0.4435  0.4907 -0.3364
17406TIP3    H173633   2.293   4.146  15.926 -1.5926  1.7093 -2.2339
17406TIP3    H273634   2.407   4.186  15.834  1.0961 -0.2717  0.0525
17407TIP3   OH273635   2.941   0.541  11.379 -0.6536 -0.0601 -0.4478
17407TIP3    H173636   2.858   0.524  11.333 -1.4589  1.7104  0.2448
17407TIP3    H273637   2.915   0.550  11.471  0.1219  1.6203 -0.3696
17408TIP3   OH273638   5.663   0.979  15.549 -0.2699  0.3474  0.0297
17408TIP3    H173639   5.590   0.999  15.490  0.6588 -2.3687 -2.2303
17408TIP3    H273640   5.647   0.889  15.576  2.1656 -0.2661 -0.4206
17409TIP3   OH273641   5.389   3.257   1.351  0.2388 -0.0928  0.1472
17409TIP3    H173642   5.412   3.344   1.386  0.4571  0.1816 -0.6659
17409TIP3    H273643   5.470   3.224   1.312  0.2819 -0.8769  0.8637
17410TIP3   OH273644   2.510   0.855  11.993 -0.3473 -0.1414 -0.0180
17410TIP3    H173645   2.599   0.823  11.979 -0.7601 -1.1737 -0.3956
17410TIP3    H273646   2.507   0.878  12.086  0.5359  0.6449 -0.1720
17411TIP3   OH273647   2.681   4.507  14.130 -0.4868  0.2489  0.5833
17411TIP3    H173648   2.652   4.597  14.142  0.2718  0.3841  1.5103
17411TIP3    H273649   2.752   4.513  14.066  1.1473  0.6538  2.3450
17412TIP3   OH273650   5.568   1.082   3.748  0.5732 -0.2144 -0.2813
17412TIP3    H173651   5.510   1.068   3.673  0.6336  2.5343 -0.9475
17412TIP3    H273652   5.651   1.042   3.722 -0.1644 -1.6653 -0.5038
17413TIP3   OH273653   4.964   5.750  11.921  0.0272 -0.4711  0.3272
17413TIP3    H173654   4.934   5.841  11.917  1.6083  0.0457 -2.6166
17413TIP3    H273655   4.884   5.699  11.931 -1.2484  1.1301 -1.1098
17414TIP3   OH273656   5.789   6.545  16.578  0.1260  0.0467  0.6814
17414TIP3    H173657   5.720   6.545  16.644  0.9598  0.9308  1.5747
17414TIP3    H273658   5.870   6.561  16.627  0.6391  1.9567 -0.6699
17415TIP3   OH273659   5.113   4.770  10.966 -0.7380  0.4133 -0.8164
17415TIP3    H173660   5.155   4.725  10.892  1.7257 -0.9227  1.2218
17415TIP3    H273661   5.021   4.774  10.942 -0.5380 -2.6929 -2.6771
17416TIP3   OH273662   1.246   4.941   2.634 -0.0485  0.1797 -0.7986
17416TIP3    H173663   1.319   4.901   2.681  0.6509 -0.0460 -2.0431
17416TIP3    H273664   1.183   4.869   2.623 -0.0883  0.1634 -0.4827
17417TIP3   OH273665   5.586   2.226   1.449 -0.1536 -0.2741  0.5850
17417TIP3    H173666   5.670   2.179   1.445 -0.1131 -0.1875  0.4100
17417TIP3    H273667   5.607   2.307   1.495  0.2188  0.4962 -0.8842
17418TIP3   OH273668   6.615   3.411   5.364  0.6712  0.2087  0.0333
17418TIP3    H173669   6.645   3.330   5.405 -0.0391 -0.2423 -0.3207
17418TIP3    H273670   6.612   3.392   5.270 -1.8137 -0.1748  0.1171
17419TIP3   OH273671   4.154   1.861   4.863  0.2064  0.0845  0.4907
17419TIP3    H173672   4.159   1.765   4.865 -0.2267 -0.0366 -1.7508
17419TIP3    H273673   4.244   1.890   4.879  0.0010 -0.5590  3.3410
17420TIP3   OH273674   5.343   5.875   3.568  0.0637 -0.5773  0.1247
17420TIP3    H173675   5.369   5.786   3.591  0.1412 -1.4588 -2.8923
17420TIP3    H273676   5.348   5.877   3.472 -0.6407  2.4755  0.0538
17421TIP3   OH273677   1.257   3.021   5.807 -0.3975  0.1370  0.3146
17421TIP3    H173678   1.313   3.053   5.737 -0.0143  1.3986  1.1446
17421TIP3    H273679   1.211   3.100   5.838  0.1413 -0.2049  2.0709
17422TIP3   OH273680   2.982   0.685   2.368  0.5459  0.2839 -0.0515
17422TIP3    H173681   3.034   0.609   2.393  1.3965  0.0649 -2.2367
17422TIP3    H273682   3.010   0.705   2.279 -0.1535  2.7552  0.2001
17423TIP3   OH273683   4.893   3.646   5.622  0.4100  0.4276 -1.0687
17423TIP3    H173684   4.890   3.625   5.529  1.5296  1.0860 -1.2626
17423TIP3    H273685   4.878   3.740   5.626  0.5743  0.4345 -0.5914
17424TIP3   OH273686   1.330   0.283  12.495  0.2534  0.2964  0.3548
17424TIP3    H173687   1.410   0.314  12.538  1.2855 -0.7270 -0.7481
17424TIP3    H273688   1.354   0.272  12.403 -1.2343  0.1950 -0.0530
17425TIP3   OH273689   0.960   4.274   3.242  0.7826  0.2914  0.4834
17425TIP3    H173690   0.900   4.342   3.271 -1.3199 -0.7759 -1.0972
17425TIP3    H273691   0.987   4.302   3.154  3.3853  1.1708  1.4504
17426TIP3   OH273692   5.429   1.121  12.661  0.4565 -0.5097  0.1406
17426TIP3    H173693   5.382   1.178  12.722 -0.6898 -1.9372  0.6196
17426TIP3    H273694   5.372   1.115  12.584  1.2883  0.1991 -0.5652
17427TIP3   OH273695   0.692   5.807  16.231  0.0110  0.0874 -0.4795
17427TIP3    H173696   0.675   5.901  16.223 -0.3646 -0.1045 -2.3235
17427TIP3    H273697   0.774   5.802  16.280 -0.1471  1.3504 -0.0394
17428TIP3   OH273698   4.915   5.084   1.298  0.1506 -0.3483 -0.3478
17428TIP3    H173699   4.919   5.179   1.307  0.4753 -0.4295  0.4191
17428TIP3    H273700   4.836   5.058   1.345  1.9437 -0.7905  2.6554
17429TIP3   OH273701   5.388   5.586  11.701 -0.2245  0.5527  0.4007
17429TIP3    H173702   5.295   5.603  11.688 -0.9011 -1.3165  2.1747
17429TIP3    H273703   5.427   5.592  11.614 -1.7049  2.7021 -0.2019
17430TIP3   OH273704   2.415   6.723   5.664  0.1521  0.1471 -0.3626
17430TIP3    H173705   2.391   6.698   5.753 -0.6062  0.0229 -0.5915
17430TIP3    H273706   2.503   6.759   5.672 -0.4404  1.4271  0.6589
17431TIP3   OH273707   3.029   2.534   3.884 -0.2391  0.4399  0.3758
17431TIP3    H173708   3.047   2.602   3.819 -2.2568 -0.2348 -0.9859
17431TIP3    H273709   3.038   2.452   3.837  0.1073 -0.1539  1.4556
17432TIP3   OH273710   3.304   2.907  11.332 -0.0841 -0.6427  0.6067
17432TIP3    H173711   3.361   2.831  11.341 -1.5566 -1.7712  0.6786
17432TIP3    H273712   3.223   2.873  11.295 -0.6513  0.9574  0.2751
17433TIP3   OH273713   1.555   5.321   2.601  0.3065  0.0997  0.1436
17433TIP3    H173714   1.465   5.320   2.632 -0.1045 -0.0722 -1.0098
17433TIP3    H273715   1.591   5.236   2.629  0.5306  0.6860  1.7254
17434TIP3   OH273716   2.334   4.112   3.609 -0.2502  0.1958 -0.5032
17434TIP3    H173717   2.278   4.099   3.686  1.6693 -1.1546  0.7696
17434TIP3    H273718   2.302   4.049   3.545  0.0378 -0.8696  0.3698
17435TIP3   OH273719   1.905   0.352  15.563  0.3391  0.8679  0.5057
17435TIP3    H173720   1.949   0.268  15.567 -0.2989  0.5124  0.2232
17435TIP3    H273721   1.957   0.405  15.503 -0.1510  0.1257 -0.6056
17436TIP3   OH273722   1.739   4.877  15.471  0.2031 -0.0509  0.4390
17436TIP3    H173723   1.765   4.787  15.489 -1.1293 -0.3618  0.8791
17436TIP3    H273724   1.672   4.897  15.536  1.9201  1.9898  1.7208
17437TIP3   OH273725   1.900   2.084   4.000  0.2228  0.0677  0.3333
17437TIP3    H173726   1.861   1.999   4.020 -1.4859  0.2772 -1.6434
17437TIP3    H273727   1.968   2.065   3.935  1.3903  0.0159  1.5433
17438TIP3   OH273728   1.402   6.634   5.613 -0.0827 -0.3520  0.5616
17438TIP3    H173729   1.462   6.693   5.659  0.0053 -0.5921  0.7589
17438TIP3    H273730   1.450   6.607   5.534 -0.1582 -0.0912  0.4255
17439TIP3   OH273731   2.071   5.272  11.528 -0.2077  0.3850 -0.0890
17439TIP3    H173732   2.001   5.227  11.480 -0.8772  1.3156 -0.0085
17439TIP3    H273733   2.099   5.208  11.594 -0.5695 -0.2130 -0.5017
17440TIP3   OH273734   3.361   5.116   6.583 -0.7147  0.2005  0.9845
17440TIP3    H173735   3.418   5.158   6.518 -1.0629  0.9654  1.1667
17440TIP3    H273736   3.352   5.026   6.552  0.3853  0.1322  0.8110
17441TIP3   OH273737   2.456   1.005  12.226 -0.6973  0.0160 -0.7397
17441TIP3    H173738   2.391   1.049  12.170 -0.6366  0.7182 -0.2677
17441TIP3    H273739   2.540   1.027  12.185 -0.5368  1.7390  0.3882
17442TIP3   OH273740   1.251   3.088   5.477  0.7068 -0.1015  0.2004
17442TIP3    H173741   1.267   2.994   5.486  0.8262 -0.1676 -0.5958
17442TIP3    H273742   1.172   3.104   5.529  0.8261 -0.5920  0.5456
17443TIP3   OH273743   3.606   1.755  15.199  0.5490 -0.6602  0.0573
17443TIP3    H173744   3.671   1.724  15.263 -0.1411 -0.7907  0.7061
17443TIP3    H273745   3.551   1.678  15.183 -1.2178  0.1700  1.7145
17444TIP3   OH273746   5.083   2.851   5.736  0.5709  0.0403 -0.3986
17444TIP3    H173747   4.994   2.819   5.722 -0.3332  1.4492  1.6785
17444TIP3    H273748   5.073   2.944   5.756  2.1536 -0.3229  2.7434
17445TIP3   OH273749   5.668   0.248  12.973 -0.1524 -0.2938 -0.2091
17445TIP3    H173750   5.745   0.225  12.921  1.5751  0.3085  1.9309
17445TIP3    H273751   5.692   0.225  13.063 -2.3908  0.1779  0.5807
17446TIP3   OH273752   3.778   4.683   0.440  0.1114 -0.3140  0.3263
17446TIP3    H173753   3.691   4.710   0.468 -0.4709 -1.6905 -0.0536
17446TIP3    H273754   3.838   4.721   0.505 -1.0057 -1.5697  2.1650
17447TIP3   OH273755   0.763   0.033   3.731  0.0518  0.0656  0.9767
17447TIP3    H173756   0.729   0.020   3.819 -1.1656  0.2931  0.5511
17447TIP3    H273757   0.686   0.037   3.675  0.7894  0.2819 -0.0623
17448TIP3   OH273758   5.040   4.476  13.502 -0.1178  0.5447 -0.1745
17448TIP3    H173759   5.025   4.568  13.482 -0.1664  0.7168  0.6431
17448TIP3    H273760   4.960   4.447  13.546 -0.7094 -0.2845 -1.7112
17449TIP3   OH273761   3.058   0.386  12.089 -0.4097 -0.0306 -0.2945
17449TIP3    H173762   2.982   0.400  12.146  0.9956  1.3573  1.3648
17449TIP3    H273763   3.040   0.304  12.044 -2.0995 -0.6354  1.3613
17450TIP3   OH273764   6.108   5.847  15.181 -0.2485  0.3188 -0.2154
17450TIP3    H173765   6.134   5.797  15.103  1.7204 -0.5293  0.8967
17450TIP3    H273766   6.180   5.909  15.195 -0.5078  0.3824  0.9869
17451TIP3   OH273767   1.227   1.669  15.822 -0.7507 -0.1711 -0.2060
17451TIP3    H173768   1.161   1.621  15.772  0.2517 -1.7401 -0.1033
17451TIP3    H273769   1.223   1.631  15.910 -0.9874  1.0479  0.3403
17452TIP3   OH273770   0.490   0.167  13.445 -0.2765 -0.0832 -0.1845
17452TIP3    H173771   0.570   0.127  13.411  0.7239  0.8844  0.9108
17452TIP3    H273772   0.469   0.114  13.523 -0.2373  0.1347 -0.0234
17453TIP3   OH273773   5.936   4.222   3.377  0.1727 -0.2346  0.7236
17453TIP3    H173774   5.905   4.214   3.467 -0.7441 -0.1580  0.4223
17453TIP3    H273775   6.011   4.163   3.372  1.9168  1.7020  2.2703
17454TIP3   OH273776   2.364   1.026   3.302 -0.0101  0.1416  0.2294
17454TIP3    H173777   2.445   0.977   3.319 -0.1624  0.4194  1.9352
17454TIP3    H273778   2.305   0.999   3.372 -1.1097  0.6108 -0.4927
17455TIP3   OH273779   2.348   6.735   5.923 -0.5657 -0.1651 -0.1119
17455TIP3    H173780   2.338   6.829   5.941  0.4013 -0.1706  0.5545
17455TIP3    H273781   2.360   6.696   6.009  1.5774 -0.5448 -0.5106
17456TIP3   OH273782   4.593   5.311  11.148 -0.4100 -0.0381 -0.2793
17456TIP3    H173783   4.551   5.367  11.083  0.8532  1.2317 -0.0706
17456TIP3    H273784   4.548   5.333  11.230  1.9539  3.0480  0.3990
17457TIP3   OH273785   1.222   3.482   6.195 -0.5262 -0.3410 -0.2499
17457TIP3    H173786   1.130   3.457   6.186 -1.1570  0.3736  3.0891
17457TIP3    H273787   1.221   3.557   6.254  2.1881  0.2585 -0.8186
17458TIP3   OH273788   0.717   5.668  15.962  0.1610  0.3756  0.4229
17458TIP3    H173789   0.745   5.717  16.039  3.7163 -2.2086  0.9918
17458TIP3    H273790   0.694   5.581  15.996  0.2417 -0.3317 -1.2578
17459TIP3   OH273791   6.149   3.994   5.024  0.3749  0.5310  0.0857
17459TIP3    H173792   6.218   4.043   4.981  0.6150  0.0972 -0.0292
17459TIP3    H273793   6.071   4.010   4.971  0.7396 -0.2762 -0.7316
17460TIP3   OH273794   0.132   2.263  16.486 -0.4624  0.3871 -0.1221
17460TIP3    H173795   0.226   2.275  16.503 -0.2456 -2.0210  0.7214
17460TIP3    H273796   0.097   2.352  16.484  1.6079  1.3009  0.9569
17461TIP3   OH273797   0.380   4.554  13.189 -0.2130  0.6992  0.0161
17461TIP3    H173798   0.349   4.572  13.277  0.4029  1.0238  0.1708
17461TIP3    H273799   0.334   4.474  13.163 -0.6525  0.7891  0.4978
17462TIP3   OH273800   2.472   5.862   5.975 -0.0980  0.6479  0.2964
17462TIP3    H173801   2.392   5.914   5.982  0.0821  1.3932 -2.1731
17462TIP3    H273802   2.486   5.827   6.063 -2.0192  2.1216  1.2577
17463TIP3   OH273803   2.079   4.593  13.346  0.4020  0.6161 -0.3415
17463TIP3    H173804   2.036   4.596  13.431  1.5195  1.1670  0.2248
17463TIP3    H273805   2.028   4.653  13.291 -1.1859 -0.8128 -0.5151
17464TIP3   OH273806   5.518   1.436  13.845 -0.0741 -0.1387  0.2235
17464TIP3    H173807   5.529   1.342  13.827 -1.2055 -0.2979  0.3114
17464TIP3    H273808   5.536   1.478  13.761  2.2080 -0.2620  0.5849
17465TIP3   OH273809   4.485   6.086   2.428 -0.2958  0.2276 -0.4783
17465TIP3    H173810   4.518   6.073   2.339  0.5096  0.0174 -0.1481
17465TIP3    H273811   4.443   6.172   2.424  2.0912  1.4842 -0.3972
17466TIP3   OH273812   0.599   1.858  12.494 -0.1028  0.4428 -0.0731
17466TIP3    H173813   0.611   1.951  12.514  0.9073  0.5459 -1.0781
17466TIP3    H273814   0.560   1.858  12.407 -0.9041 -0.0712  0.2777
17467TIP3   OH273815   0.160   3.302  10.877 -0.4140 -0.4411 -0.1892
17467TIP3    H173816   0.096   3.275  10.811 -0.4731 -0.2013 -0.2298
17467TIP3    H273817   0.241   3.316  10.827 -0.6079  0.3012 -0.2963
17468TIP3   OH273818   3.628   2.587  12.749  0.0484 -0.3697 -0.0225
17468TIP3    H173819   3.667   2.645  12.814  1.8562 -0.6727 -0.7774
17468TIP3    H273820   3.579   2.645  12.691  0.3802  0.1888  0.2507
17469TIP3   OH273821   2.725   3.689   0.341  0.3828  0.4750  0.3184
17469TIP3    H173822   2.803   3.706   0.289 -0.7624  0.0790 -1.6623
17469TIP3    H273823   2.652   3.710   0.282 -1.0191 -2.3448  0.8669
17470TIP3   OH273824   2.233   1.173  12.066 -0.0223 -0.6014 -0.3900
17470TIP3    H173825   2.237   1.192  11.973  0.2504 -1.3781 -0.5464
17470TIP3    H273826   2.257   1.256  12.109 -1.7153  0.2138 -0.9507
17471TIP3   OH273827   4.872   3.245  16.603  0.2779  0.4416 -0.0824
17471TIP3    H173828   4.816   3.257  16.526  1.6916 -0.3976 -1.3035
17471TIP3    H273829   4.923   3.167  16.583  0.1930 -0.2316  2.0566
17472TIP3   OH273830   6.583   6.314  13.252  0.9169 -0.2459  0.1438
17472TIP3    H173831   6.497   6.329  13.212  1.1317 -0.1949 -0.3094
17472TIP3    H273832   6.627   6.254  13.192  0.7057 -1.3474  1.0619
17473TIP3   OH273833   2.200   3.875   2.860  0.0571 -0.1657 -0.4209
17473TIP3    H173834   2.120   3.852   2.813  0.0830 -0.9271 -0.1169
17473TIP3    H273835   2.271   3.837   2.808  0.1911  0.1762 -0.4900
17474TIP3   OH273836   1.349   4.178  15.410  0.2119  0.6199 -0.2237
17474TIP3    H173837   1.335   4.271  15.432  3.1675  0.8906  1.0350
17474TIP3    H273838   1.444   4.170  15.400  0.1200 -2.4380  0.4357
17475TIP3   OH273839   6.766   3.481   3.280  0.5788 -0.1069  0.4710
17475TIP3    H173840   6.813   3.416   3.227  0.8056  0.7951 -0.4695
17475TIP3    H273841   6.789   3.565   3.241 -0.5207  0.4759  1.0177
17476TIP3   OH273842   2.496   0.688   4.355 -0.2391  0.1413 -0.2332
17476TIP3    H173843   2.543   0.607   4.375 -1.1239 -0.5315 -0.8110
17476TIP3    H273844   2.501   0.697   4.260 -2.0057 -0.4362 -0.4207
17477TIP3   OH273845   5.149   4.992  10.721  0.4017 -0.2483 -0.4397
17477TIP3    H173846   5.147   4.951  10.635  0.0520  0.3097 -0.7099
17477TIP3    H273847   5.233   5.037  10.725 -0.3574  1.3742 -1.3148
17478TIP3   OH273848   6.761   2.027   5.581 -0.0053 -0.1717  0.0913
17478TIP3    H173849   6.733   1.936   5.590 -0.1376 -0.0862  0.5579
17478TIP3    H273850   6.821   2.041   5.654 -0.5554  0.3263  0.4628
17479TIP3   OH273851   3.101   1.513  10.854  0.0941  0.2695  0.3562
17479TIP3    H173852   3.028   1.550  10.805  2.7901  1.3679 -3.2176
17479TIP3    H273853   3.091   1.418  10.843 -0.1145  0.4494 -1.2241
17480TIP3   OH273854   5.893   5.448   2.948 -0.0460  0.4722  0.2469
17480TIP3    H173855   5.825   5.389   2.913 -0.1988  1.8910 -2.0228
17480TIP3    H273856   5.880   5.530   2.901  1.9288  1.4595  1.3119
17481TIP3   OH273857   5.870   4.973   2.243  0.0842  0.0292  0.3963
17481TIP3    H173858   5.800   5.035   2.266 -0.7078 -0.2995 -1.0458
17481TIP3    H273859   5.828   4.887   2.245 -0.1734 -0.0100 -2.5298
17482TIP3   OH273860   4.072   4.322   1.847 -0.1203  0.0407  0.2405
17482TIP3    H173861   4.021   4.318   1.928  1.5404  0.4313  1.3479
17482TIP3    H273862   4.138   4.389   1.863 -0.3627  0.8392 -1.8277
17483TIP3   OH273863   6.703   2.285   0.367 -0.8464 -0.2274 -0.0314
17483TIP3    H173864   6.767   2.277   0.438  0.7525  2.0070 -1.1035
17483TIP3    H273865   6.752   2.262   0.288 -1.7676  0.1554 -0.7258
17484TIP3   OH273866   2.781   3.313  15.735 -0.4266 -0.3226  0.1337
17484TIP3    H173867   2.700   3.263  15.745  0.4473 -1.8747 -0.1766
17484TIP3    H273868   2.831   3.264  15.670 -0.3632  2.1062 -1.8006
17485TIP3   OH273869   0.496   2.845   4.876  0.5918 -0.5370  0.1349
17485TIP3    H173870   0.414   2.873   4.836  1.3344  0.1807 -0.9431
17485TIP3    H273871   0.548   2.925   4.883  1.5456 -1.1238 -0.0668
17486TIP3   OH273872   2.581   1.056  10.942 -0.3850  0.6599  0.4077
17486TIP3    H173873   2.523   1.126  10.913 -1.2403  0.7855  2.2666
17486TIP3    H273874   2.549   0.978  10.898  0.6236  1.3936 -1.7453
17487TIP3   OH273875   0.692   0.890   5.828  0.8566  0.4742 -0.1161
17487TIP3    H173876   0.763   0.937   5.872  2.4605 -0.0162 -2.0437
17487TIP3    H273877   0.710   0.798   5.843 -0.0617  0.3549  0.3471
17488TIP3   OH273878   1.180   5.418  12.926  0.0422 -1.3431  0.3456
17488TIP3    H173879   1.155   5.383  13.011  0.3234  0.2903  1.1343
17488TIP3    H273880   1.275   5.428  12.931  0.1017 -1.5412 -0.2842
17489TIP3   OH273881   2.569   4.235  16.805  0.1034  0.0634 -0.1354
17489TIP3    H173882   2.645   4.221  16.860 -0.1975  1.1471  0.6063
17489TIP3    H273883   2.555   4.330  16.807 -2.3830 -0.2206  1.3456
17490TIP3   OH273884   5.510   4.722   3.423 -0.3623  0.0975  0.0283
17490TIP3    H173885   5.528   4.797   3.479 -1.1899 -0.4750  1.0913
17490TIP3    H273886   5.493   4.650   3.483  0.9101 -1.0851 -0.9689
17491TIP3   OH273887   2.989   5.422   1.416  0.3280  0.3917 -0.5934
17491TIP3    H173888   3.007   5.361   1.344  2.1367  1.8839 -1.4956
17491TIP3    H273889   2.911   5.387   1.457  0.3516 -1.6202 -2.0722
17492TIP3   OH273890   3.342   2.401   6.310 -0.6287  0.2358  0.1873
17492TIP3    H173891   3.251   2.381   6.288 -0.3503  2.2910 -3.7216
17492TIP3    H273892   3.392   2.324   6.280 -0.9523 -0.6414  1.7993
17493TIP3   OH273893   4.224   1.360   2.761  0.3065  0.1680  0.3162
17493TIP3    H173894   4.202   1.448   2.730  1.4181  0.5542  0.5719
17493TIP3    H273895   4.143   1.328   2.800 -0.9374 -0.0306 -2.2003
17494TIP3   OH273896   2.365   5.096  15.822 -0.0861  0.2228 -0.4642
17494TIP3    H173897   2.276   5.122  15.798 -0.0005 -1.6711 -3.2676
17494TIP3    H273898   2.421   5.155  15.771  0.1807 -0.7393 -1.3098
17495TIP3   OH273899   4.341   0.389  13.624  0.7619 -0.4420  0.0908
17495TIP3    H173900   4.256   0.408  13.583  0.8104 -0.0272  0.1756
17495TIP3    H273901   4.405   0.428  13.564  0.7782  1.2714  1.1533
17496TIP3   OH273902   0.564   2.575   4.534  0.1460  0.0171  0.5549
17496TIP3    H173903   0.574   2.562   4.628 -0.3980  0.7687  0.7242
17496TIP3    H273904   0.629   2.641   4.512  0.5614 -0.4604  0.3172
17497TIP3   OH273905   6.422   4.503  14.432  0.1450  0.5516 -0.3891
17497TIP3    H173906   6.366   4.556  14.376  0.6443  0.9149 -0.5494
17497TIP3    H273907   6.497   4.559  14.451  0.7827 -0.1652 -0.7288
17498TIP3   OH273908   1.916   1.558   5.299  0.2366  0.4539 -0.8815
17498TIP3    H173909   1.937   1.638   5.251  0.9492  1.2998  0.7353
17498TIP3    H273910   2.001   1.521   5.322  0.0076  1.0261  1.1482
17499TIP3   OH273911   1.407   3.033  12.525  0.0423  0.0198 -0.7550
17499TIP3    H173912   1.452   2.974  12.585 -0.7054 -0.6251 -0.8048
17499TIP3    H273913   1.321   3.047  12.565 -0.3011 -0.0586 -1.4486
17500TIP3   OH273914   6.478   5.224   1.166  0.2879  0.0818  0.0300
17500TIP3    H173915   6.527   5.306   1.175 -2.5455  1.7635  1.9398
17500TIP3    H273916   6.453   5.221   1.073 -1.2458  2.5671  0.2632
17501TIP3   OH273917   3.536   6.278   4.829 -1.0812  0.3533  0.0899
17501TIP3    H173918   3.523   6.199   4.776  0.0777  0.3067 -0.1466
17501TIP3    H273919   3.517   6.251   4.918 -0.6060 -0.2182  0.0186
17502TIP3   OH273920   2.429   1.684   2.502  0.3559  0.7013 -0.2370
17502TIP3    H173921   2.396   1.709   2.416  2.7493  0.0091 -1.4421
17502TIP3    H273922   2.501   1.745   2.519 -0.4960  1.2839  1.6500
17503TIP3   OH273923   4.398   3.375  13.405  0.2270 -0.1379 -0.0675
17503TIP3    H173924   4.441   3.358  13.489  1.3016 -0.9922 -0.7771
17503TIP3    H273925   4.469   3.403  13.347  0.0780 -2.5732 -1.5543
17504TIP3   OH273926   3.980   5.432  15.247  0.0785  0.2180  0.1878
17504TIP3    H173927   4.074   5.441  15.259  0.0573 -1.2162  1.7342
17504TIP3    H273928   3.961   5.484  15.169  2.1786  0.3256 -0.3115
17505TIP3   OH273929   3.122   5.263  13.627  0.2667  0.0525 -0.0847
17505TIP3    H173930   3.088   5.324  13.561 -0.4664  1.0381  1.1322
17505TIP3    H273931   3.162   5.192  13.577 -0.9248  0.3814 -1.5814
17506TIP3   OH273932   4.085   5.417  14.597 -0.1559 -0.2202 -0.0069
17506TIP3    H173933   4.135   5.335  14.600 -1.5335 -1.0708  0.4464
17506TIP3    H273934   4.084   5.441  14.505 -0.3240 -1.1070 -0.2494
17507TIP3   OH273935   3.005   3.220   6.076 -0.0653  0.1473  0.3900
17507TIP3    H173936   3.018   3.142   6.130  1.8544  1.5898  2.2182
17507TIP3    H273937   2.927   3.262   6.113 -1.8781 -1.4161 -1.4098
17508TIP3   OH273938   4.142   4.722   0.456  0.7242  0.5874  0.0944
17508TIP3    H173939   4.204   4.713   0.528  2.6955  1.3280 -1.4038
17508TIP3    H273940   4.108   4.634   0.442  0.3065  0.4221  1.8679
17509TIP3   OH273941   3.269   0.250   1.543  0.6268  0.0949 -0.0109
17509TIP3    H173942   3.300   0.336   1.513 -1.0286  0.4172 -0.9460
17509TIP3    H273943   3.284   0.192   1.468 -1.0715  0.2954 -0.5474
17510TIP3   OH273944   4.272   1.383  15.260 -0.1922 -0.3462  0.1665
17510TIP3    H173945   4.359   1.417  15.238  0.0489  0.4014  2.1022
17510TIP3    H273946   4.216   1.460  15.259 -0.3513 -0.4358  1.1406
17511TIP3   OH273947   3.158   0.286  13.701  0.0046  0.0368 -0.3784
17511TIP3    H173948   3.081   0.332  13.735  0.4535  1.0664 -0.7445
17511TIP3    H273949   3.122   0.221  13.641 -0.5317  1.4747 -1.6702
17512TIP3   OH273950   0.082   0.697  16.415 -0.1779 -0.6730  0.5788
17512TIP3    H173951   0.047   0.777  16.375 -0.7200  0.1112  2.5307
17512TIP3    H273952   0.168   0.723  16.449  0.6093 -1.5358 -0.6534
17513TIP3   OH273953   1.646   1.378   4.673  0.2364  0.1379 -0.0229
17513TIP3    H173954   1.573   1.317   4.680 -0.0594  0.6765  2.6341
17513TIP3    H273955   1.724   1.324   4.689  0.4176 -0.2635 -1.9627
17514TIP3   OH273956   6.020   5.118   0.719 -0.1403 -0.4049 -0.0707
17514TIP3    H173957   5.970   5.045   0.683 -2.9523  0.5236  1.6417
17514TIP3    H273958   6.009   5.111   0.813  0.7403  1.4154  0.2134
17515TIP3   OH273959   0.062   4.541   2.180 -0.0011 -0.3728 -0.4019
17515TIP3    H173960   0.019   4.564   2.262 -0.3132  0.6161 -0.8264
17515TIP3    H273961   0.065   4.445   2.180  1.6802 -0.3998  1.6193
17516TIP3   OH273962   3.070   2.608  15.191  0.1061  0.2917 -0.0439
17516TIP3    H173963   3.155   2.576  15.220  0.4826  1.1115 -0.2007
17516TIP3    H273964   3.006   2.552  15.236  0.7064  0.5449  1.1810
17517TIP3   OH273965   3.032   4.174   5.826 -0.4862  0.5418  0.2720
17517TIP3    H173966   3.075   4.120   5.891  0.0179 -1.0623 -1.3075
17517TIP3    H273967   3.099   4.188   5.759 -1.7164 -0.0851 -1.1464
17518TIP3   OH273968   5.229   3.416  13.462 -0.6208  0.2727  0.5892
17518TIP3    H173969   5.313   3.387  13.425 -0.6916  1.7165 -0.8238
17518TIP3    H273970   5.202   3.344  13.519  1.0378 -0.7018  0.2267
17519TIP3   OH273971   5.374   2.199  11.567 -0.0396 -0.0960 -1.0323
17519TIP3    H173972   5.300   2.165  11.516 -0.0882 -1.9022  0.1406
17519TIP3    H273973   5.408   2.122  11.613 -0.1616  1.4589  1.8623
17520TIP3   OH273974   5.271   2.577  12.658 -0.1078 -0.0957 -0.1537
17520TIP3    H173975   5.363   2.559  12.676 -0.3174 -1.8548 -0.6358
17520TIP3    H273976   5.269   2.596  12.564 -0.2117  0.1929 -0.0946
17521TIP3   OH273977   5.993   4.848   2.908 -0.0455  0.2260  0.1675
17521TIP3    H173978   5.976   4.928   2.957  1.0728  0.1752  0.6666
17521TIP3    H273979   5.952   4.778   2.960  0.0189  0.3283  0.3557
17522TIP3   OH273980   2.732   4.584  13.187  0.5141  0.2857 -0.2234
17522TIP3    H173981   2.785   4.606  13.111  1.0584  0.8639  0.3108
17522TIP3    H273982   2.726   4.488  13.186  1.9262  0.1813 -0.0544
17523TIP3   OH273983   6.448   0.677  16.621 -0.0443  0.0107  0.3917
17523TIP3    H173984   6.399   0.679  16.538  1.5181  0.6910 -0.5530
17523TIP3    H273985   6.522   0.619  16.604 -0.1141 -0.4609  1.5861
17524TIP3   OH273986   1.526   1.684  10.833 -0.8575  0.0976 -0.3858
17524TIP3    H173987   1.441   1.652  10.864  0.0497 -0.6828  1.4599
17524TIP3    H273988   1.564   1.728  10.909  1.1555 -1.1915 -0.5806
17525TIP3   OH273989   4.096   0.297  14.754  0.2265  0.4346 -0.5057
17525TIP3    H173990   4.075   0.212  14.715 -1.4059  0.7796 -0.4588
17525TIP3    H273991   4.191   0.305  14.746  0.1613 -0.3595 -2.6243
17526TIP3   OH273992   0.946   3.963   2.167 -0.0691 -0.1804  0.0204
17526TIP3    H173993   0.954   4.054   2.198 -0.5430  0.1113 -0.6750
17526TIP3    H273994   0.851   3.947   2.164  0.0209 -0.8278  0.4849
17527TIP3   OH273995   1.499   6.408   1.331 -0.0178  0.8884 -0.1163
17527TIP3    H173996   1.495   6.383   1.239  1.9321  0.7290 -0.2000
17527TIP3    H273997   1.593   6.410   1.351 -0.3897 -1.2168  2.4285
17528TIP3   OH273998   2.551   6.101   3.382 -0.2424 -0.5570  0.5421
17528TIP3    H173999   2.579   6.167   3.319 -1.3849 -0.4280  0.1485
17528TIP3    H274000   2.628   6.046   3.395 -0.5058 -1.8540 -2.5470
17529TIP3   OH274001   2.874   0.011  14.101  0.0526 -0.0563  0.0128
17529TIP3    H174002   2.941  -0.008  14.166 -0.6539 -3.0723  0.0402
17529TIP3    H274003   2.893  -0.049  14.028 -1.4891  0.3443 -0.7836
17530TIP3   OH274004   2.167   5.528  16.608 -0.0549 -0.2011 -0.0223
17530TIP3    H174005   2.126   5.553  16.525 -0.6044 -0.0097  0.3001
17530TIP3    H274006   2.094   5.514  16.667  0.3021 -1.1029  0.2259
17531TIP3   OH274007   4.284   5.184  11.195 -0.6934 -0.0049 -0.3460
17531TIP3    H174008   4.281   5.259  11.136 -0.0155 -0.8685 -1.5350
17531TIP3    H274009   4.341   5.121  11.150 -1.9611 -1.5917  0.1517
17532TIP3   OH274010   1.861   1.027  12.992 -0.0672  0.0306 -0.1339
17532TIP3    H174011   1.912   1.016  13.072  0.8016 -0.2897 -0.7144
17532TIP3    H274012   1.897   1.105  12.951 -0.7712  0.4183 -0.0289
17533TIP3   OH274013   2.678   3.827  13.003  0.2849 -0.0288  0.6790
17533TIP3    H174014   2.744   3.779  12.953  1.1500  1.6423  0.1272
17533TIP3    H274015   2.607   3.843  12.941 -0.8230 -2.0425  1.3403
17534TIP3   OH274016   6.769   1.838  16.334  0.5548  0.0141 -0.3903
17534TIP3    H174017   6.749   1.771  16.269 -0.8169 -0.2179  0.2381
17534TIP3    H274018   6.685   1.858  16.375  1.3345  0.3766  1.0992
17535TIP3   OH274019   1.459   1.837  13.924  0.3900 -0.2859 -0.2515
17535TIP3    H174020   1.442   1.924  13.890  0.0761 -0.5676 -0.8341
17535TIP3    H274021   1.549   1.840  13.956 -0.3741  0.9693  2.0288
17536TIP3   OH274022   1.946   1.269  15.808  0.0018  0.4953  0.1111
17536TIP3    H174023   1.902   1.302  15.886  1.5269  0.9788  0.7915
17536TIP3    H274024   2.006   1.338  15.782 -0.2574  0.2240 -1.3481
17537TIP3   OH274025   4.892   6.293   3.711 -0.9241 -0.6831  0.1887
17537TIP3    H174026   4.855   6.283   3.799 -0.0347  0.4187  0.7119
17537TIP3    H274027   4.976   6.247   3.715 -0.3632  0.3231  0.2814
17538TIP3   OH274028   6.624   3.295   3.996 -0.4533 -0.5496 -0.8041
17538TIP3    H174029   6.659   3.365   3.942  2.4392  0.5392  2.0922
17538TIP3    H274030   6.693   3.228   3.996 -0.4844 -0.6502  1.1385
17539TIP3   OH274031   3.663   1.183   3.652  0.1176 -0.6124 -0.4328
17539TIP3    H174032   3.604   1.158   3.724 -1.3261  0.6996 -1.0891
17539TIP3    H274033   3.736   1.227   3.694 -0.0248 -1.0769  0.3181
17540TIP3   OH274034   6.466   0.131   4.162  0.0648 -0.0493 -0.4404
17540TIP3    H174035   6.445   0.046   4.123  0.3857 -0.0395 -0.6396
17540TIP3    H274036   6.487   0.187   4.087 -2.9215  1.0446 -0.5808
17541TIP3   OH274037   0.509   4.530   6.843 -0.2564  0.3303 -0.1745
17541TIP3    H174038   0.466   4.616   6.839 -2.4587 -0.7626 -1.9543
17541TIP3    H274039   0.495   4.492   6.757  0.6197 -1.8634  0.5932
17542TIP3   OH274040   1.631   6.442   0.688  0.0520 -0.1873 -0.0715
17542TIP3    H174041   1.599   6.425   0.777 -0.4856  1.0718 -0.0037
17542TIP3    H274042   1.585   6.378   0.634 -0.9513  0.1623  0.3324
17543TIP3   OH274043   6.245   4.966  16.573  0.4846  0.5152 -0.6333
17543TIP3    H174044   6.284   4.942  16.657 -1.7704 -0.7280  0.1422
17543TIP3    H274045   6.320   4.990  16.518  2.0312  1.4919  1.7324
17544TIP3   OH274046   1.539   3.776   1.376 -0.6157  0.2942  0.3549
17544TIP3    H174047   1.523   3.715   1.305  0.6736  0.5657 -0.1922
17544TIP3    H274048   1.486   3.743   1.448 -2.1454  0.1619 -0.7953
17545TIP3   OH274049   5.973   5.307   0.057 -0.5733  0.4565  0.3542
17545TIP3    H174050   5.917   5.355  -0.004 -0.1948 -0.0130 -0.3653
17545TIP3    H274051   6.004   5.374   0.118 -0.4684  1.0356 -0.3268
17546TIP3   OH274052   2.491   2.037   1.436 -0.4042 -0.0523 -0.0625
17546TIP3    H174053   2.455   2.028   1.524 -2.5052  0.0516 -0.8470
17546TIP3    H274054   2.425   1.998   1.379  0.4632  0.7230 -1.6726
17547TIP3   OH274055   5.972   1.283  16.594 -0.3450  0.1890  0.3534
17547TIP3    H174056   5.978   1.188  16.604 -0.2669  0.2553  0.9870
17547TIP3    H274057   5.973   1.317  16.683 -1.0196  0.7527  0.1616
17548TIP3   OH274058   5.100   5.659   2.319 -0.1323  0.0125 -0.1358
17548TIP3    H174059   5.065   5.746   2.298  3.8389  1.4729 -1.6592
17548TIP3    H274060   5.074   5.604   2.246 -1.0376  0.4230 -0.1362
17549TIP3   OH274061   1.884   3.732   1.148 -0.2516  0.4604  0.2579
17549TIP3    H174062   1.980   3.731   1.137 -0.2583 -1.2501  0.0378
17549TIP3    H274063   1.870   3.771   1.234  0.4151  3.8572 -1.0149
17550TIP3   OH274064   1.823   0.571  11.683 -0.3896  0.0729 -0.3541
17550TIP3    H174065   1.903   0.612  11.716 -0.9359  0.5207  0.4615
17550TIP3    H274066   1.844   0.478  11.678  0.1920  0.1906 -0.1880
17551TIP3   OH274067   5.503   4.583   6.034  0.5349  0.5545 -0.0939
17551TIP3    H174068   5.464   4.630   6.108  0.1910 -2.4534  1.7875
17551TIP3    H274069   5.595   4.576   6.056  0.5624  0.2748 -0.2970
17552TIP3   OH274070   3.205   6.233   1.358 -0.8848 -0.4540  0.0412
17552TIP3    H174071   3.262   6.224   1.282  0.2905  0.7245  0.7405
17552TIP3    H274072   3.117   6.216   1.324 -0.4388  0.4305 -1.6685
17553TIP3   OH274073   4.522   2.758  16.442 -0.2576  0.2090 -0.4662
17553TIP3    H174074   4.604   2.806  16.436  1.2965 -2.2497 -0.3537
17553TIP3    H274075   4.502   2.732  16.352  0.4563 -1.2674 -0.2254
17554TIP3   OH274076   4.196   4.603  14.054 -0.3755  1.3048  0.3640
17554TIP3    H174077   4.160   4.586  13.967 -0.5662  0.9809  0.5027
17554TIP3    H274078   4.122   4.636  14.105 -0.9605 -0.9683  1.1349
17555TIP3   OH274079   0.618   2.948  13.806  0.0014 -0.2357 -0.3913
17555TIP3    H174080   0.712   2.941  13.823  0.0596  1.9124  0.5397
17555TIP3    H274081   0.578   2.878  13.858  0.9913 -0.3407  0.2498
17556TIP3   OH274082   6.590   5.239  17.189  0.8653 -0.2498 -0.0268
17556TIP3    H174083   6.499   5.229  17.219  1.5944 -0.7041  2.2187
17556TIP3    H274084   6.583   5.238  17.093 -2.0329  4.6613 -0.1997
17557TIP3   OH274085   0.915   2.459  14.004 -0.5038 -0.0948  0.1403
17557TIP3    H174086   1.011   2.467  14.009 -0.3202 -0.1817 -2.0626
17557TIP3    H274087   0.883   2.497  14.085  1.4368 -0.9522  1.3798
17558TIP3   OH274088   1.721   4.971   5.572 -0.1275 -0.3073 -0.5445
17558TIP3    H174089   1.790   5.030   5.602 -0.9096  0.7051 -0.6884
17558TIP3    H274090   1.655   5.028   5.534 -2.1566 -0.9966  1.6754
17559TIP3   OH274091   1.830   6.435  16.944  0.3298  0.0462  0.5359
17559TIP3    H174092   1.735   6.434  16.935  0.2030  1.4009  1.5170
17559TIP3    H274093   1.859   6.357  16.895 -1.1795  0.1753 -0.6523
17560TIP3   OH274094   1.059   6.505  11.573  0.0014 -0.3901 -0.4967
17560TIP3    H174095   1.061   6.537  11.664 -0.9434 -0.0024 -0.6009
17560TIP3    H274096   1.150   6.480  11.555  0.1061 -1.0257  0.7474
17561TIP3   OH274097   5.326   6.541  12.545  0.6081 -0.1089  0.0160
17561TIP3    H174098   5.359   6.466  12.595 -0.6344 -0.7885 -0.1383
17561TIP3    H274099   5.293   6.601  12.611  0.0707 -0.4605  0.0685
17562TIP3   OH274100   4.699   5.558   0.453 -0.1736  0.0708 -0.8175
17562TIP3    H174101   4.733   5.469   0.460 -0.6812  0.0083  1.6650
17562TIP3    H274102   4.640   5.568   0.528  1.0576  2.9741 -0.0633
17563TIP3   OH274103   3.156   3.537  12.152 -0.1843 -0.1500 -0.3589
17563TIP3    H174104   3.156   3.507  12.242  0.3440 -0.6862 -0.5293
17563TIP3    H274105   3.228   3.490  12.111 -1.6306 -1.4239 -1.5704
17564TIP3   OH274106   5.286   1.781   1.402  0.0463 -0.2761 -0.3407
17564TIP3    H174107   5.362   1.731   1.433 -0.1581 -1.3662 -1.4749
17564TIP3    H274108   5.231   1.715   1.359  0.4548  1.0962 -3.2189
17565TIP3   OH274109   6.176   3.062   1.724  0.1939 -0.2055  0.0200
17565TIP3    H174110   6.250   3.113   1.757  0.3126 -0.3941  0.0450
17565TIP3    H274111   6.199   3.043   1.633 -0.3231  0.6761 -0.3149
17566TIP3   OH274112   2.394   6.644   3.628  0.9188 -0.4601 -0.0302
17566TIP3    H174113   2.346   6.566   3.655 -1.2994  1.4708  2.1164
17566TIP3    H274114   2.328   6.700   3.587  1.7356  1.4418  1.1070
17567TIP3   OH274115   1.076   4.342  15.059  0.4895 -0.2860  0.6725
17567TIP3    H174116   0.988   4.329  15.095  0.1277  1.2276  0.3999
17567TIP3    H274117   1.093   4.263  15.008 -1.6036  0.2888 -1.0492
17568TIP3   OH274118   2.823   0.554  15.703 -0.3192 -0.1976  0.4098
17568TIP3    H174119   2.810   0.483  15.765  0.0779 -1.3762 -0.8168
17568TIP3    H274120   2.907   0.535  15.661 -0.6538  0.4721 -0.6118
17569TIP3   OH274121   5.414   5.137  10.792  0.0152  0.8124  0.0841
17569TIP3    H174122   5.462   5.208  10.835 -1.4523  1.0309  1.4527
17569TIP3    H274123   5.441   5.143  10.700  1.5063  1.7938  0.5426
17570TIP3   OH274124   2.863   1.701  13.834  0.8579  0.3212  0.4493
17570TIP3    H174125   2.952   1.685  13.864  0.9763 -1.2607 -0.6215
17570TIP3    H274126   2.806   1.667  13.903  1.0606  1.1436  1.0375
17571TIP3   OH274127   3.231   2.271   5.987 -0.0541  0.8784 -0.0186
17571TIP3    H174128   3.191   2.259   6.072 -1.8482 -0.3743 -0.9847
17571TIP3    H274129   3.196   2.354   5.955 -0.5310  0.6391 -0.1265
17572TIP3   OH274130   0.384   5.517  16.231 -0.2193 -0.1930 -0.1591
17572TIP3    H174131   0.453   5.559  16.282 -0.9468  0.0935  0.6070
17572TIP3    H274132   0.354   5.585  16.170 -1.8240  0.6569  1.4979
17573TIP3   OH274133   4.616   1.725  11.958  0.8560 -0.2505  0.1703
17573TIP3    H174134   4.554   1.797  11.963  1.5097  0.4423 -1.1993
17573TIP3    H274135   4.562   1.648  11.936  0.1614 -0.2093  1.6311
17574TIP3   OH274136   1.030   5.718   5.410  0.1783 -0.8561  0.0425
17574TIP3    H174137   1.000   5.726   5.501 -0.0645 -0.4097 -0.0710
17574TIP3    H274138   0.950   5.713   5.359  0.3178 -1.4310 -0.1240
17575TIP3   OH274139   5.921   3.483   3.697  0.1975 -0.1795 -0.3414
17575TIP3    H174140   5.867   3.437   3.761  1.1286 -1.6178 -0.5473
17575TIP3    H274141   5.865   3.492   3.620 -0.3305 -0.0322  0.0496
17576TIP3   OH274142   2.113   2.976  13.557 -0.1963  0.4574 -0.0088
17576TIP3    H174143   2.197   2.931  13.563  0.6848  2.1189  1.0719
17576TIP3    H274144   2.122   3.032  13.479 -0.3141  0.5911  0.0724
17577TIP3   OH274145   0.385   0.072  11.595 -0.2086  0.0261 -0.1821
17577TIP3    H174146   0.417   0.125  11.667 -0.6320 -0.7313  0.5809
17577TIP3    H274147   0.293   0.097  11.585 -0.3016 -0.2720 -0.0848
17578TIP3   OH274148   5.597   5.403   4.189 -0.4014  0.4364  0.7142
17578TIP3    H174149   5.627   5.410   4.099 -0.2687  3.9147  0.9076
17578TIP3    H274150   5.533   5.473   4.200 -0.5117  0.0647  3.2910
17579TIP3   OH274151   4.041   2.088   4.994 -0.1376  0.4595 -0.6951
17579TIP3    H174152   4.007   2.143   4.924  2.0690  1.1175 -1.3214
17579TIP3    H274153   4.068   2.008   4.950  0.6364  0.6093 -0.4968
17580TIP3   OH274154   6.048   0.978  14.176 -0.1338 -0.1029 -0.1896
17580TIP3    H174155   6.049   1.015  14.264  0.2098  2.0854 -1.0659
17580TIP3    H274156   6.133   0.934  14.168 -0.0315 -0.0341  0.4601
17581TIP3   OH274157   0.597   1.527  14.671 -0.6329  0.5909  0.5564
17581TIP3    H174158   0.553   1.448  14.640  0.4570  0.8584 -1.8805
17581TIP3    H274159   0.589   1.590  14.599 -0.0288  2.1447  1.7715
17582TIP3   OH274160   4.196   0.722   3.098  0.2027  0.5566 -0.0259
17582TIP3    H174161   4.185   0.641   3.047 -1.1015  0.4404  0.4082
17582TIP3    H274162   4.148   0.788   3.049  1.2330  1.0794 -0.3561
17583TIP3   OH274163   3.210   2.026  10.609 -0.6708  0.1127  0.7706
17583TIP3    H174164   3.186   1.933  10.607  1.1151 -0.4044 -1.5408
17583TIP3    H274165   3.300   2.028  10.574  0.1337  2.5310  2.6702
17584TIP3   OH274166   2.501   0.891   6.299  0.7914  0.3641  0.2454
17584TIP3    H174167   2.563   0.888   6.373 -0.9644  0.3626  1.7811
17584TIP3    H274168   2.460   0.977   6.305  0.2466  0.1573 -0.4045
17585TIP3   OH274169   3.959   0.349   1.134 -0.4290  0.5238 -0.1733
17585TIP3    H174170   3.917   0.431   1.161 -1.2706 -0.3348  1.2463
17585TIP3    H274171   3.948   0.290   1.208  0.8646 -0.6504 -0.8455
17586TIP3   OH274172   2.195   2.426   1.476  0.1973  0.5372  0.3213
17586TIP3    H174173   2.285   2.400   1.454 -0.0406  0.5744 -0.7327
17586TIP3    H274174   2.164   2.473   1.399 -0.6133  0.8330  0.8192
17587TIP3   OH274175   3.956   3.364   2.753  0.2360 -0.4233  0.2503
17587TIP3    H174176   4.040   3.389   2.715  0.1737 -0.6470 -0.0404
17587TIP3    H274177   3.979   3.317   2.833  0.3329  1.4862  1.4073
17588TIP3   OH274178   4.927   4.891  12.169  0.7116  0.4636  0.2899
17588TIP3    H174179   4.922   4.986  12.155 -0.6789  0.1871 -1.4945
17588TIP3    H274180   5.003   4.879  12.226  1.5676  2.5502 -0.3154
17589TIP3   OH274181   5.399   3.703   3.787  0.1848 -0.4938  0.1286
17589TIP3    H174182   5.320   3.649   3.784 -0.7005  0.7780  0.0586
17589TIP3    H274183   5.373   3.782   3.833  1.5622 -0.2627  0.5586
17590TIP3   OH274184   1.997   3.952  13.718 -0.4773 -0.4448 -0.5026
17590TIP3    H174185   2.005   3.877  13.659  1.9887  0.4973 -1.5024
17590TIP3    H274186   1.987   4.028  13.660 -0.5114  0.2433  0.3758
17591TIP3   OH274187   2.967   3.002  16.421  0.0828  0.0830 -0.0024
17591TIP3    H174188   3.027   2.989  16.347 -0.6734  0.4752 -0.6876
17591TIP3    H274189   2.986   2.928  16.479  0.1564 -0.6561 -0.9451
17592TIP3   OH274190   4.864   1.277   5.904 -0.6211  0.0048 -0.7320
17592TIP3    H174191   4.794   1.335   5.934  0.2641  1.2412 -0.9353
17592TIP3    H274192   4.918   1.333   5.847 -0.6085 -1.4730 -2.2487
17593TIP3   OH274193   5.676   4.060  15.535 -0.3261 -0.2490  0.4051
17593TIP3    H174194   5.672   4.003  15.612 -1.9190 -0.4138  0.2180
17593TIP3    H274195   5.603   4.121  15.545  0.1944  0.5350 -0.3682
17594TIP3   OH274196   0.933   0.803   2.847 -0.8497 -0.0144 -0.1340
17594TIP3    H174197   0.858   0.822   2.791  0.1079  0.7154 -1.2282
17594TIP3    H274198   1.009   0.819   2.791  0.1215 -1.2575  0.7809
17595TIP3   OH274199   3.449   4.207   0.554  0.1731 -0.0887  0.5799
17595TIP3    H174200   3.405   4.256   0.624 -0.4181  1.1558 -0.6200
17595TIP3    H274201   3.381   4.196   0.487  1.4184  1.1790 -0.9770
17596TIP3   OH274202   5.036   2.416  12.425 -0.6896  0.0866 -0.7099
17596TIP3    H174203   5.104   2.476  12.393 -1.7944  1.8349  0.0502
17596TIP3    H274204   4.965   2.424  12.360 -1.3376  0.6024  0.0364
17597TIP3   OH274205   0.395   3.391   1.269 -0.4328  0.3840  0.0094
17597TIP3    H174206   0.444   3.357   1.344 -2.0900 -1.3786  0.3642
17597TIP3    H274207   0.452   3.458   1.232  1.0188  0.3591  2.0270
17598TIP3   OH274208   3.332   2.437   4.562 -0.4923 -0.0741 -0.0154
17598TIP3    H174209   3.398   2.477   4.505  0.1041  1.2939  1.5640
17598TIP3    H274210   3.265   2.404   4.501  1.2616 -0.8589 -1.6142
17599TIP3   OH274211   5.162   3.374  11.342  0.0200  0.2097  0.0464
17599TIP3    H174212   5.139   3.350  11.252  0.5188  1.2911 -0.3750
17599TIP3    H274213   5.203   3.295  11.377 -0.8235 -0.4709 -0.4252
17600TIP3   OH274214   6.357   3.886   0.488 -0.2423  1.1686 -0.2785
17600TIP3    H174215   6.350   3.929   0.573 -1.4896 -0.7100  0.6224
17600TIP3    H274216   6.277   3.911   0.442 -2.3981 -2.1386  1.2938
17601TIP3   OH274217   4.100   3.896  13.971 -0.3913 -0.1588 -0.4922
17601TIP3    H174218   4.102   3.921  14.063  0.6195  1.4196 -0.9128
17601TIP3    H274219   4.156   3.819  13.965  0.6435  0.5516 -0.0067
17602TIP3   OH274220   3.623   0.909  13.615  0.2991 -0.1596 -0.3443
17602TIP3    H174221   3.709   0.908  13.572 -0.7996 -0.9693 -2.7262
17602TIP3    H274222   3.616   0.997  13.653  1.5488  0.4904 -1.5195
17603TIP3   OH274223   2.805   1.453   5.742 -0.0418  0.0537  0.1580
17603TIP3    H174224   2.832   1.377   5.794 -0.5233 -0.0833  0.2130
17603TIP3    H274225   2.825   1.529   5.797  1.4609  0.0438 -0.3335
17604TIP3   OH274226   2.816   2.068   4.388  0.0433 -0.1096 -0.2985
17604TIP3    H174227   2.773   2.110   4.462  0.4228 -0.7529  0.2996
17604TIP3    H274228   2.762   1.992   4.369  1.2856 -1.3689  0.9623
17605TIP3   OH274229   3.088   1.223  13.930  0.8554  0.2629 -0.3075
17605TIP3    H174230   3.066   1.314  13.949  0.0861 -0.0867  0.5637
17605TIP3    H274231   3.111   1.185  14.015 -0.4463 -0.7619 -0.3824
17606TIP3   OH274232   6.482   4.109  12.484 -0.5457 -1.0145 -0.0030
17606TIP3    H174233   6.568   4.074  12.507  0.4949  1.5719  0.3659
17606TIP3    H274234   6.437   4.119  12.568 -0.2375 -0.0762  0.0610
17607TIP3   OH274235   0.704   5.048  10.468 -0.0170  0.2744 -0.3214
17607TIP3    H174236   0.613   5.020  10.463  0.5769 -2.1929  1.2289
17607TIP3    H274237   0.740   5.030  10.381 -0.6914  0.2035 -0.5918
17608TIP3   OH274238   5.202   3.968  14.869  0.3705 -0.0795  0.3081
17608TIP3    H174239   5.202   4.043  14.809  2.2900  0.0610  0.4338
17608TIP3    H274240   5.169   4.004  14.952 -0.4060  0.1842 -0.1024
17609TIP3   OH274241   6.419   5.305  14.953  0.3354  0.4599  0.6423
17609TIP3    H174242   6.335   5.272  14.921 -0.3630  1.7038  1.1401
17609TIP3    H274243   6.405   5.322  15.046  0.7491  1.8427  0.4715
17610TIP3   OH274244   1.935   2.365   2.056  0.4218  0.2131 -0.1229
17610TIP3    H174245   2.010   2.390   2.110 -0.3490  1.1028  0.5677
17610TIP3    H274246   1.929   2.434   1.990  0.4540 -0.0693 -0.4191
17611TIP3   OH274247   1.112   0.069   1.534 -0.3053 -0.2403  0.1313
17611TIP3    H174248   1.195   0.074   1.583 -0.3972  1.9074  0.1444
17611TIP3    H274249   1.044   0.082   1.600 -0.5876 -0.4452 -0.1154
17612TIP3   OH274250   1.727   3.453   2.382  0.7066 -0.5437  0.2128
17612TIP3    H174251   1.675   3.410   2.449 -1.3512  2.3527  0.6317
17612TIP3    H274252   1.677   3.442   2.301  0.7172  0.1499  0.1119
17613TIP3   OH274253   3.217   4.139   0.424  0.7504 -0.5229  0.1270
17613TIP3    H174254   3.229   4.130   0.330  2.1733 -1.0881  0.3452
17613TIP3    H274255   3.161   4.066   0.449 -1.3081  0.7415 -0.5378
17614TIP3   OH274256   6.498   1.178  16.355  0.6406 -0.3576  0.1613
17614TIP3    H174257   6.582   1.206  16.391 -0.2308  1.1369  1.1800
17614TIP3    H274258   6.451   1.260  16.338 -2.4189 -0.9342  4.1473
17615TIP3   OH274259   1.698   5.762  13.446 -0.2502 -0.6294 -0.1865
17615TIP3    H174260   1.655   5.716  13.518  0.4509 -2.4326 -0.8581
17615TIP3    H274261   1.749   5.830  13.488 -5.1023  3.0701  0.6088
17616TIP3   OH274262   3.575   1.943   2.571 -0.3790  0.1993 -0.2438
17616TIP3    H174263   3.479   1.936   2.571 -0.4780  1.1330 -1.4664
17616TIP3    H274264   3.605   1.868   2.622 -1.7372 -0.5188 -0.4550
17617TIP3   OH274265   5.270   6.676   4.659  0.2735  0.2696 -0.5645
17617TIP3    H174266   5.325   6.734   4.712  1.3816  0.0735 -1.4746
17617TIP3    H274267   5.194   6.730   4.636 -0.1183  0.4222  1.0157
17618TIP3   OH274268   4.067   3.919   5.607 -0.5548  0.0029  0.1259
17618TIP3    H174269   4.067   3.838   5.658 -2.0411 -0.3394 -0.3610
17618TIP3    H274270   3.987   3.965   5.635  0.4133  1.4701  0.6175
17619TIP3   OH274271   6.761   4.847   1.612 -0.1258 -0.0934 -0.3487
17619TIP3    H174272   6.735   4.755   1.612 -0.2950 -0.0647 -1.9094
17619TIP3    H274273   6.800   4.861   1.526  0.7112  1.0860  0.1931
17620TIP3   OH274274   3.808   1.552   5.038 -0.1518  0.5711 -0.2559
17620TIP3    H174275   3.802   1.497   4.960  1.0416 -3.3163  2.1509
17620TIP3    H274276   3.898   1.585   5.037  0.7347 -1.6811  0.7344
17621TIP3   OH274277   6.316   2.734  12.457  0.0187 -0.6084 -0.0440
17621TIP3    H174278   6.379   2.728  12.385 -0.4251 -1.6837 -0.3568
17621TIP3    H274279   6.283   2.646  12.467 -0.2861 -0.3690  1.1783
17622TIP3   OH274280   3.832   4.605  16.480  0.2666  0.2186  0.5019
17622TIP3    H174281   3.847   4.567  16.566  0.6328 -0.8556 -0.0226
17622TIP3    H274282   3.897   4.563  16.423 -0.1509  0.7089 -0.3574
17623TIP3   OH274283   1.667   6.026   0.631  0.1736 -0.5694  0.0072
17623TIP3    H174284   1.727   5.953   0.613 -0.4837 -1.4269  1.1699
17623TIP3    H274285   1.591   5.985   0.673  0.0281  0.8520  1.2215
17624TIP3   OH274286   2.211   0.269  17.048 -0.0782 -0.3519  0.1711
17624TIP3    H174287   2.207   0.173  17.051  0.8115 -0.5089 -1.8605
17624TIP3    H274288   2.138   0.293  16.991  0.3144  0.0929 -0.1474
17625TIP3   OH274289   6.399   4.113   1.872 -0.1766  0.2390  0.1913
17625TIP3    H174290   6.325   4.171   1.860  0.4273  0.8598 -0.6166
17625TIP3    H274291   6.372   4.030   1.832 -0.3972  0.4905 -0.1767
17626TIP3   OH274292   0.951   2.283   5.008 -0.1685 -0.0709 -0.2680
17626TIP3    H174293   1.023   2.310   5.065  0.8654 -0.1504 -1.4982
17626TIP3    H274294   0.940   2.190   5.026  1.4710 -0.5588 -1.5441
17627TIP3   OH274295   2.206   5.800   4.326 -0.0842 -0.2291  0.5315
17627TIP3    H174296   2.218   5.790   4.232  0.2567  0.7622  0.4599
17627TIP3    H274297   2.133   5.862   4.334 -1.1957 -1.5495  0.9372
17628TIP3   OH274298   6.332   6.777  17.114 -0.6433  0.2894 -0.0179
17628TIP3    H174299   6.318   6.828  17.194  0.9752 -1.2722  1.3453
17628TIP3    H274300   6.249   6.783  17.067 -1.0177  2.8089  0.8468
17629TIP3   OH274301   0.634   3.937  12.200 -0.0217 -0.3095  0.4274
17629TIP3    H174302   0.592   3.852  12.193  1.5164 -0.9882 -0.8387
17629TIP3    H274303   0.594   3.990  12.131  0.1984 -0.5262  0.1319
17630TIP3   OH274304   0.174   5.944  14.957 -0.7156  0.0796 -0.2327
17630TIP3    H174305   0.241   5.875  14.960  1.9042  2.4085 -0.3166
17630TIP3    H274306   0.180   5.986  15.043 -2.2961  0.2087 -0.1654
17631TIP3   OH274307   3.652   1.451   4.733  0.2960  0.3520 -0.1171
17631TIP3    H174308   3.586   1.403   4.683  0.4626  1.3855 -1.3809
17631TIP3    H274309   3.601   1.507   4.792  0.0379  0.6889 -0.6496
17632TIP3   OH274310   5.569   6.788   4.954  0.2073 -0.0107  0.1758
17632TIP3    H174311   5.606   6.817   5.037 -0.4005  0.7280  0.1951
17632TIP3    H274312   5.490   6.840   4.943  1.2748  1.3400 -1.7919
17633TIP3   OH274313   2.276   6.034  10.509 -0.0012  0.7635 -0.1280
17633TIP3    H174314   2.237   5.947  10.519  1.9455 -0.2812 -1.1613
17633TIP3    H274315   2.203   6.090  10.482 -0.9661 -0.9415 -1.2361
17634TIP3   OH274316   6.323   3.822   1.242 -0.3219 -0.3780 -0.7351
17634TIP3    H174317   6.237   3.816   1.283 -0.5801  0.3514 -1.1339
17634TIP3    H274318   6.381   3.854   1.312 -0.0559 -2.1956 -0.0816
17635TIP3   OH274319   3.250   5.599   4.068 -0.3184 -0.3302  0.4076
17635TIP3    H174320   3.192   5.675   4.069 -1.5900 -1.2290  3.1335
17635TIP3    H274321   3.301   5.606   4.148  0.2489 -1.8472  0.2136
17636TIP3   OH274322   4.772   0.785   3.577 -0.0808  0.2578 -0.1113
17636TIP3    H174323   4.681   0.754   3.581 -0.5621  0.3781 -4.8532
17636TIP3    H274324   4.824   0.704   3.569  0.0133  0.2770  0.2799
17637TIP3   OH274325   5.418   0.178  12.057 -0.2223 -0.0488 -0.1108
17637TIP3    H174326   5.468   0.193  11.977 -0.2254 -0.4542 -0.1918
17637TIP3    H274327   5.370   0.097  12.040 -0.7250  0.2123  0.0549
17638TIP3   OH274328   4.983   0.615  14.307  0.2764  0.1289 -0.0634
17638TIP3    H174329   5.002   0.704  14.274  0.5654 -0.7316 -2.4170
17638TIP3    H274330   5.059   0.564  14.280 -1.4919 -1.6013 -2.1129
17639TIP3   OH274331   2.390   4.259   4.392  0.6990  0.8300  0.5970
17639TIP3    H174332   2.339   4.314   4.451 -0.2110  0.3915  0.2296
17639TIP3    H274333   2.472   4.243   4.439 -0.1195  0.2540  1.8715
17640TIP3   OH274334   3.876   4.132  14.118 -0.2038  0.4992 -0.1997
17640TIP3    H174335   3.964   4.106  14.146 -0.6840 -0.9120  0.1006
17640TIP3    H274336   3.872   4.226  14.136  0.4771  0.1903  1.9243
17641TIP3   OH274337   2.778   4.714   0.626  0.1660  0.0188 -0.1043
17641TIP3    H174338   2.810   4.629   0.655  0.8140  0.3015  0.0249
17641TIP3    H274339   2.690   4.697   0.594 -0.4862 -0.3763  1.7553
17642TIP3   OH274340   5.312   2.118   1.595  0.4132  0.5301  0.9602
17642TIP3    H174341   5.388   2.162   1.558 -0.2473 -0.2191 -1.5046
17642TIP3    H274342   5.332   2.025   1.589 -1.3514  0.1939 -1.6390
17643TIP3   OH274343   2.651   2.055   5.148 -0.0658 -0.7427  0.7423
17643TIP3    H174344   2.676   2.131   5.201  0.3776  0.9568 -1.7177
17643TIP3    H274345   2.567   2.080   5.109 -0.2834 -1.8441  0.4927
17644TIP3   OH274346   6.746   0.136   3.760 -0.2944 -0.1131 -0.2849
17644TIP3    H174347   6.749   0.042   3.778 -1.7280 -0.2119 -0.4127
17644TIP3    H274348   6.711   0.142   3.671 -1.0575  0.5410  0.0387
17645TIP3   OH274349   0.368   2.582   5.020  0.1649 -0.4696  0.5481
17645TIP3    H174350   0.453   2.576   5.064  0.6340  1.4409  0.0164
17645TIP3    H274351   0.308   2.532   5.076  1.8718 -3.0665  0.1906
17646TIP3   OH274352   1.748   3.457  15.136  0.1820 -0.4825  0.1687
17646TIP3    H174353   1.792   3.410  15.065 -0.4825  0.1468 -0.6835
17646TIP3    H274354   1.801   3.535  15.151  0.3809 -0.6687  0.4448
17647TIP3   OH274355   5.234   1.852   4.210  0.2870  0.8581 -0.0231
17647TIP3    H174356   5.204   1.913   4.278 -1.2327 -0.0170  0.1477
17647TIP3    H274357   5.176   1.868   4.136  0.2400  0.0400 -0.1760
17648TIP3   OH274358   4.121   6.430  10.586 -0.4651 -0.0142 -0.1269
17648TIP3    H174359   4.073   6.347  10.598 -2.1105  1.0835  1.4427
17648TIP3    H274360   4.054   6.492  10.559  0.8254  0.7619 -1.6670
17649TIP3   OH274361   5.486   2.375  15.756  0.2962 -0.4729  0.2341
17649TIP3    H174362   5.452   2.307  15.815 -0.9907  0.9627  1.2176
17649TIP3    H274363   5.484   2.334  15.670  2.2013 -2.6138  1.1049
17650TIP3   OH274364   0.516   4.706   2.903 -0.3963  0.1007  0.1996
17650TIP3    H174365   0.431   4.696   2.946  0.2962  2.0240  2.2463
17650TIP3    H274366   0.498   4.696   2.810 -2.7767  0.0029  0.6204
17651TIP3   OH274367   4.545   3.735  16.319 -0.0110 -0.4711  0.2197
17651TIP3    H174368   4.558   3.800  16.388 -0.3119  1.0770 -1.1184
17651TIP3    H274369   4.452   3.743  16.296  0.3339 -0.1039 -1.1458
17652TIP3   OH274370   3.667   6.670  13.828  0.0020  1.0467 -0.6747
17652TIP3    H174371   3.731   6.618  13.780  0.6699  1.2211 -0.0014
17652TIP3    H274372   3.646   6.743  13.769 -0.2488  0.5203 -1.2495
17653TIP3   OH274373   1.108   0.249   5.610 -0.1827  0.0821 -0.1416
17653TIP3    H174374   1.141   0.190   5.542 -0.9587 -2.7276  1.7545
17653TIP3    H274375   1.016   0.261   5.588 -0.5713 -1.2729  0.6346
17654TIP3   OH274376   5.436   5.974  16.624 -0.0358  0.0654 -0.1185
17654TIP3    H174377   5.442   6.058  16.579  1.7761 -0.6041 -1.2121
17654TIP3    H274378   5.413   5.911  16.556 -1.1613 -0.4026  0.6516
17655TIP3   OH274379   1.142   0.448  16.271 -0.3072  0.2275  0.1032
17655TIP3    H174380   1.089   0.432  16.350 -1.3246  1.8054 -0.1970
17655TIP3    H274381   1.148   0.363  16.228  0.2639 -0.6723  1.8613
17656TIP3   OH274382   2.055   4.101  10.456 -0.6502  0.7588 -0.4838
17656TIP3    H174383   1.960   4.111  10.451 -0.6511  0.6140 -0.7553
17656TIP3    H274384   2.070   4.067  10.545 -0.9136  0.1235 -0.6742
17657TIP3   OH274385   5.414   5.978  14.459  0.1759 -0.1893 -0.9010
17657TIP3    H174386   5.494   5.929  14.443  0.1945  0.0188 -1.4680
17657TIP3    H274387   5.434   6.067  14.431  0.4267  0.3655  0.9574
17658TIP3   OH274388   1.689   2.298   3.124  0.5866  0.3350  0.1411
17658TIP3    H174389   1.621   2.270   3.064 -0.1172  1.0536  0.5869
17658TIP3    H274390   1.646   2.303   3.209  1.2951  0.4117  0.5072
17659TIP3   OH274391   2.333   3.543  15.121  0.2059  0.0482  0.8229
17659TIP3    H174392   2.351   3.500  15.204  0.9565 -0.3091  0.4844
17659TIP3    H274393   2.415   3.538  15.072 -0.9209 -2.1807 -1.0318
17660TIP3   OH274394   5.433   6.134   3.163  0.1208  0.3222  0.5116
17660TIP3    H174395   5.504   6.133   3.100  1.5799 -0.4191  2.1025
17660TIP3    H274396   5.378   6.208   3.136  0.3184 -0.3655 -1.9612
17661TIP3   OH274397   5.928   4.984   3.827 -0.4561  0.2093 -0.1840
17661TIP3    H174398   5.905   5.061   3.775  0.2454 -0.3233 -1.3091
17661TIP3    H274399   5.882   4.912   3.785 -2.4804  0.1976  1.8452
17662TIP3   OH274400   4.314   4.634  11.082 -0.7596 -0.3954 -0.3006
17662TIP3    H174401   4.311   4.582  11.001 -0.5585 -0.4222 -0.2914
17662TIP3    H274402   4.244   4.597  11.136 -0.7411 -0.5333 -0.3690
17663TIP3   OH274403   5.863   0.513  16.493 -0.2002  0.9428  0.6467
17663TIP3    H174404   5.898   0.572  16.427  0.2243  1.7361  1.5537
17663TIP3    H274405   5.775   0.547  16.511  0.4906  2.0976  2.0557
17664TIP3   OH274406   2.618   6.220  11.136  0.1945  0.1248  0.3253
17664TIP3    H174407   2.649   6.152  11.076 -0.9937 -0.7879  0.6983
17664TIP3    H274408   2.663   6.203  11.218  1.2916  0.9485 -0.0741
17665TIP3   OH274409   4.472   0.444  15.310 -1.0727  0.4836  0.2858
17665TIP3    H174410   4.424   0.405  15.237 -0.6281  0.4646 -0.0031
17665TIP3    H274411   4.521   0.372  15.348  0.1830  0.8351 -0.5932
17666TIP3   OH274412   4.078   5.558   4.488 -0.5502  0.0135 -0.9163
17666TIP3    H174413   4.114   5.469   4.493 -1.0523 -0.2326 -1.6244
17666TIP3    H274414   4.124   5.599   4.415  1.4016  1.1499  0.8355
17667TIP3   OH274415   5.697   1.651  12.060 -0.5355 -0.3203  0.7182
17667TIP3    H174416   5.748   1.726  12.089  0.5415 -0.6615 -0.1911
17667TIP3    H274417   5.638   1.686  11.993 -1.2214  0.0057  1.4866
17668TIP3   OH274418   2.295   3.503   2.593  1.0023  0.5809  0.0096
17668TIP3    H174419   2.388   3.518   2.611  1.1958 -1.4651  0.9842
17668TIP3    H274420   2.274   3.564   2.522  3.5212 -0.0571 -1.4091
17669TIP3   OH274421   1.528   4.258  16.400  0.2611 -0.0454  0.3809
17669TIP3    H174422   1.449   4.208  16.379  0.2015  0.2258 -0.0606
17669TIP3    H274423   1.526   4.269  16.495 -0.8578  0.9924  0.2584
17670TIP3   OH274424   5.220   2.925  14.901 -0.1574  0.3129  0.3607
17670TIP3    H174425   5.227   3.019  14.884 -0.3957  0.0491 -1.3095
17670TIP3    H274426   5.158   2.892  14.836  0.5947 -1.1458  0.3292
17671TIP3   OH274427   4.432   1.019  13.244  0.1839 -0.2894  0.2802
17671TIP3    H174428   4.473   0.938  13.211 -2.2396 -2.4025  2.0269
17671TIP3    H274429   4.468   1.088  13.188  2.0713 -2.5985 -1.6184
17672TIP3   OH274430   1.823   3.780  11.119  0.0393 -0.1427 -0.3556
17672TIP3    H174431   1.731   3.804  11.109  0.1385  0.0444 -0.8612
17672TIP3    H274432   1.869   3.834  11.054  0.6866  0.8788  0.8963
17673TIP3   OH274433   3.939   4.930   5.542 -0.2226  0.0277  0.6549
17673TIP3    H174434   3.956   4.990   5.469 -0.3122 -0.5029  0.1990
17673TIP3    H274435   3.845   4.936   5.556 -0.3680 -0.6589  0.0335
17674TIP3   OH274436   1.514   3.921   0.333  0.3420 -0.1065  0.0069
17674TIP3    H174437   1.570   3.865   0.279  0.1192 -0.4114  0.0817
17674TIP3    H274438   1.559   4.005   0.338  2.0185 -1.0372  2.0534
17675TIP3   OH274439   4.874   5.824  12.431  0.2681  0.1094  0.7061
17675TIP3    H174440   4.944   5.794  12.490  0.3667  2.1250  1.6806
17675TIP3    H274441   4.921   5.860  12.356  0.2057 -0.2834  0.4752
17676TIP3   OH274442   5.523   3.017   3.356 -0.6281  0.2093  0.2927
17676TIP3    H174443   5.512   3.109   3.334 -2.1788  0.5916  2.3568
17676TIP3    H274444   5.436   2.978   3.342 -0.1992 -0.7726  0.2263
17677TIP3   OH274445   3.366   1.589  14.526 -0.2903 -0.2602  0.0908
17677TIP3    H174446   3.388   1.671  14.481 -2.9279 -0.0370 -0.9670
17677TIP3    H274447   3.437   1.576  14.588  2.1538  0.8592 -2.2655
17678TIP3   OH274448   5.597   3.635   3.036  0.4525 -0.7154  0.2088
17678TIP3    H174449   5.643   3.581   2.971 -0.6194 -1.7273  0.2632
17678TIP3    H274450   5.608   3.725   3.004 -1.1968 -1.2589 -2.1710
17679TIP3   OH274451   1.785   4.402  11.529  0.3993  0.2490 -0.8299
17679TIP3    H174452   1.729   4.342  11.578 -1.7284  0.9403 -2.2634
17679TIP3    H274453   1.787   4.366  11.440 -0.1666  1.7372 -1.4882
17680TIP3   OH274454   3.538   2.353   5.522 -0.4393 -0.3974  0.1205
17680TIP3    H174455   3.484   2.410   5.467  2.5635  2.0357 -0.5923
17680TIP3    H274456   3.601   2.313   5.462 -1.3027 -3.1596  0.9067
17681TIP3   OH274457   1.944   3.678  13.923 -0.0673 -0.4120  0.3696
17681TIP3    H174458   2.013   3.741  13.905  0.3846 -1.3171 -1.2580
17681TIP3    H274459   1.990   3.595  13.936 -0.8431 -1.3285 -2.1772
17682TIP3   OH274460   1.504   5.029  15.948  0.1574 -0.4421  0.2228
17682TIP3    H174461   1.525   4.938  15.967 -1.2351 -0.4176  2.1638
17682TIP3    H274462   1.413   5.028  15.919  0.1051  0.3259  0.3199
17683TIP3   OH274463   2.202   5.427  16.971 -0.3703  0.4760 -0.9529
17683TIP3    H174464   2.172   5.452  17.059  0.2623  1.3512 -0.9727
17683TIP3    H274465   2.134   5.461  16.913  0.5914  2.4905 -1.0010
17684TIP3   OH274466   4.924   1.354   1.502 -0.1265 -0.1293 -0.1024
17684TIP3    H174467   4.958   1.396   1.581  0.0637 -1.2265  0.4046
17684TIP3    H274468   4.830   1.346   1.518 -0.3407  1.0524 -0.6535
17685TIP3   OH274469   4.362   6.035   3.275  0.4242 -0.0329  0.0407
17685TIP3    H174470   4.441   6.042   3.221  0.4874 -1.7721 -0.1669
17685TIP3    H274471   4.308   5.969   3.230 -0.8857  0.6812  0.4981
17686TIP3   OH274472   5.595   2.427  12.116  0.7165 -0.5950 -0.5228
17686TIP3    H174473   5.561   2.391  12.034  1.3866 -2.6188  0.0277
17686TIP3    H274474   5.682   2.459  12.094  0.1761  0.6228 -0.9835
17687TIP3   OH274475   5.035   4.593   4.256  0.2485 -0.3342 -0.6138
17687TIP3    H174476   4.994   4.512   4.288  1.3475 -0.5713  0.2478
17687TIP3    H274477   5.081   4.567   4.177  1.5763 -0.8360  0.2941
17688TIP3   OH274478   4.980   4.069   1.290  0.2272 -0.3464 -0.6528
17688TIP3    H174479   4.900   4.030   1.326 -0.3160 -0.6930 -2.1719
17688TIP3    H274480   5.050   4.012   1.321  0.0406  0.4900  1.4879
17689TIP3   OH274481   6.021   3.819  16.428 -0.0243  0.8204  0.0810
17689TIP3    H174482   6.040   3.909  16.453 -0.0611  0.1056  3.0407
17689TIP3    H274483   6.107   3.776  16.426 -0.2284  0.2522  1.8542
17690TIP3   OH274484   3.034   4.698   1.699 -0.1050  0.6865 -0.3617
17690TIP3    H174485   3.001   4.702   1.610  0.6264  1.5259 -0.6177
17690TIP3    H274486   3.079   4.614   1.706 -0.6981  0.3539 -0.5898
17691TIP3   OH274487   0.436   0.210  11.821  0.1048 -0.3347  0.7367
17691TIP3    H174488   0.507   0.269  11.795  0.1780 -1.4715 -2.0637
17691TIP3    H274489   0.464   0.174  11.905  1.6837  1.0184  0.8462
17692TIP3   OH274490   1.730   5.219   5.065  0.5529 -0.4683  0.3562
17692TIP3    H174491   1.799   5.280   5.090 -1.8395  1.6992  2.2380
17692TIP3    H274492   1.705   5.246   4.977 -0.4423  1.4005  1.1423
17693TIP3   OH274493   2.003   0.860  10.959  0.1787 -0.1206 -0.2830
17693TIP3    H174494   2.075   0.882  10.900  1.0024  0.9488  1.0461
17693TIP3    H274495   1.967   0.779  10.924 -0.6775  1.4539 -3.3496
17694TIP3   OH274496   0.612   5.581  16.350  0.5303 -0.1282  0.5095
17694TIP3    H174497   0.638   5.672  16.334  1.4298  0.0295  2.5174
17694TIP3    H274498   0.689   5.530  16.327  0.2740 -0.3193  0.0702
17695TIP3   OH274499   5.069   4.970  15.268  0.1524 -0.1712  0.7376
17695TIP3    H174500   5.086   4.952  15.175  0.0806  2.2916  0.1529
17695TIP3    H274501   5.153   4.956  15.311  0.7013  0.4842 -0.0705
17696TIP3   OH274502   1.960   6.566  12.161  0.0876  0.0099  0.4458
17696TIP3    H174503   1.991   6.655  12.144 -0.4250 -0.1077 -1.3532
17696TIP3    H274504   1.919   6.539  12.079 -0.4617 -1.6099  1.2085
17697TIP3   OH274505   2.583   6.566  14.198  0.0050 -0.2306  0.6051
17697TIP3    H174506   2.600   6.626  14.270  3.3486 -0.6711  0.3488
17697TIP3    H274507   2.631   6.487  14.221 -0.5463 -1.1227 -1.1439
17698TIP3   OH274508   0.137   0.574  15.604 -0.1661  0.2182  0.4132
17698TIP3    H174509   0.132   0.668  15.585  1.2447  0.1374 -0.5912
17698TIP3    H274510   0.230   0.553  15.595 -0.3840 -1.1849  1.1301
17699TIP3   OH274511   0.169   3.926  12.009 -0.0261  0.1233  0.6875
17699TIP3    H174512   0.165   3.960  11.919  0.0219  0.4863  0.8235
17699TIP3    H274513   0.084   3.949  12.047  0.0212  0.1266  0.7920
17700TIP3   OH274514   1.913   2.428   6.452 -0.0680 -0.0180  0.1447
17700TIP3    H174515   1.823   2.460   6.449  0.4041  2.0717  3.2513
17700TIP3    H274516   1.905   2.333   6.444 -2.5829  0.1010  0.5995
17701TIP3   OH274517   3.556   6.686  15.375 -0.1584  0.2130 -0.1158
17701TIP3    H174518   3.627   6.624  15.391 -0.8647 -0.6894 -0.4116
17701TIP3    H274519   3.598   6.772  15.380  0.8914 -0.2901  0.0173
17702TIP3   OH274520   1.895   1.735   5.508  0.7381  0.1334  0.0421
17702TIP3    H174521   1.844   1.802   5.462  1.7849 -1.1533 -3.2839
17702TIP3    H274522   1.902   1.664   5.445  4.2608 -0.8833  1.3812
17703TIP3   OH274523   2.404   1.810  13.134 -0.5751 -0.2582  0.2786
17703TIP3    H174524   2.440   1.898  13.121  0.7508 -0.7469  0.4444
17703TIP3    H274525   2.399   1.772  13.046 -0.2734 -0.3324  0.2915
17704TIP3   OH274526   2.818   1.089   5.721 -0.1975 -0.6295 -0.5510
17704TIP3    H174527   2.837   1.175   5.759 -3.8423 -0.0116  0.2359
17704TIP3    H274528   2.847   1.026   5.787  0.1611  0.0814 -0.0216
17705TIP3   OH274529   0.345   1.744   0.518 -0.1628  0.1803 -0.2856
17705TIP3    H174530   0.357   1.777   0.607  2.7539 -1.4660  0.0383
17705TIP3    H274531   0.304   1.658   0.529 -0.6427  0.3548 -0.6353
17706TIP3   OH274532   0.298   5.243  13.487 -0.5063 -0.8993 -0.3246
17706TIP3    H174533   0.255   5.323  13.455 -0.5147  0.1916  2.1702
17706TIP3    H274534   0.278   5.241  13.580  4.0301 -0.8382  0.8669
17707TIP3   OH274535   0.938   1.267   5.784  0.3909 -0.0703  0.3068
17707TIP3    H174536   0.940   1.230   5.696 -0.5916  0.4371  0.0515
17707TIP3    H274537   0.911   1.194   5.840 -1.9862  0.2839 -0.2538
17708TIP3   OH274538   1.302   5.586   0.854  0.4293 -0.2550  0.0960
17708TIP3    H174539   1.262   5.602   0.939  0.8217  1.3084  0.0126
17708TIP3    H274540   1.384   5.636   0.856  0.6912 -0.6026 -1.0222
17709TIP3   OH274541   5.345   2.795   4.147  0.2773 -0.3490 -0.0366
17709TIP3    H174542   5.324   2.702   4.158  0.3560 -0.5146 -1.1213
17709TIP3    H274543   5.363   2.804   4.053 -2.0796  1.2233 -0.4251
17710TIP3   OH274544   5.263   1.002  15.177  0.8268  0.2021  0.0254
17710TIP3    H174545   5.291   0.921  15.219  4.1094  0.5100 -1.2795
17710TIP3    H274546   5.287   0.991  15.085  2.3239  2.9360 -0.0326
17711TIP3   OH274547   5.160   1.244   1.510 -0.1228  0.5432  0.3771
17711TIP3    H174548   5.151   1.210   1.599  0.4459 -0.1989  0.1587
17711TIP3    H274549   5.073   1.280   1.490 -1.2292 -2.0610  0.1073
17712TIP3   OH274550   5.280   3.731   1.595 -0.2707  0.0358  0.8959
17712TIP3    H174551   5.362   3.769   1.626  0.2447 -2.1577  2.4681
17712TIP3    H274552   5.297   3.637   1.591 -2.5001 -0.4150  0.5556
17713TIP3   OH274553   0.813   3.759  15.426  0.1436 -0.0225  0.2474
17713TIP3    H174554   0.746   3.691  15.431  2.1549 -1.9866  2.6474
17713TIP3    H274555   0.867   3.734  15.351  0.0772 -0.3206  0.2972
17714TIP3   OH274556   2.039   6.640   3.837 -0.1824 -0.2537  0.3347
17714TIP3    H174557   1.976   6.604   3.899 -0.7444 -2.2749 -1.3033
17714TIP3    H274558   2.109   6.575   3.832  1.1115  1.0576  0.6770
17715TIP3   OH274559   3.176   0.570   0.244  0.8955  0.0875  0.3991
17715TIP3    H174560   3.154   0.628   0.170  0.2990 -0.3396  0.2367
17715TIP3    H274561   3.102   0.579   0.304  1.2871  0.2796  0.8577
17716TIP3   OH274562   0.549   0.510   3.690  0.3694  0.1738 -0.2899
17716TIP3    H174563   0.625   0.552   3.730  0.0230  2.4758 -1.8226
17716TIP3    H274564   0.584   0.467   3.611  0.2813  0.1162 -0.2978
17717TIP3   OH274565   3.343   3.204  16.086  0.1430  0.0058  0.1960
17717TIP3    H174566   3.372   3.278  16.138  0.6862 -1.6209  2.3475
17717TIP3    H274567   3.408   3.135  16.103  0.0755 -0.7701 -2.3009
17718TIP3   OH274568   1.010   4.497   4.132 -0.1072  0.5993 -0.2841
17718TIP3    H174569   1.073   4.550   4.181 -0.7127  2.4819 -1.4555
17718TIP3    H274570   1.055   4.473   4.052 -0.2667  0.3519 -0.3041
17719TIP3   OH274571   2.472   4.328   4.149 -0.3994 -0.0753 -0.2399
17719TIP3    H174572   2.543   4.264   4.152  0.2534  0.6578  0.4483
17719TIP3    H274573   2.422   4.312   4.229 -0.3174  0.1735 -0.1378
17720TIP3   OH274574   1.188   0.091   3.976 -0.1845 -0.3331  0.3794
17720TIP3    H174575   1.146   0.143   3.908 -1.6408 -1.3234  0.4841
17720TIP3    H274576   1.203   0.006   3.936 -2.3776 -1.4138  1.6359
17721TIP3   OH274577   4.790   3.311   3.638  0.0993 -1.0395 -0.2461
17721TIP3    H174578   4.828   3.353   3.715 -0.4584 -1.6094  0.3555
17721TIP3    H274579   4.788   3.380   3.572 -1.7982  0.2358  1.0464
17722TIP3   OH274580   5.229   5.527  15.416 -0.2299  0.2785 -0.3953
17722TIP3    H174581   5.182   5.603  15.450  0.2271  1.4049 -2.1616
17722TIP3    H274582   5.160   5.463  15.397 -0.5568 -0.0696  1.7508
17723TIP3   OH274583   0.451   2.319   4.229 -0.0617 -0.0068 -0.2755
17723TIP3    H174584   0.412   2.242   4.188 -0.2639  0.7853 -1.6143
17723TIP3    H274585   0.531   2.335   4.179 -0.7772  1.5129 -1.0087
17724TIP3   OH274586   4.805   3.894   4.844 -0.6217 -0.1549  0.1570
17724TIP3    H174587   4.731   3.954   4.829 -0.5533 -0.2163 -0.4361
17724TIP3    H274588   4.764   3.812   4.870 -0.7911 -0.3644 -0.7582
17725TIP3   OH274589   4.278   5.451  13.444  0.0655 -0.3569 -0.0030
17725TIP3    H174590   4.330   5.378  13.476  1.6290  0.7882  0.2355
17725TIP3    H274591   4.190   5.416  13.432  0.3660 -1.8227  1.7149
17726TIP3   OH274592   2.478   5.094  10.383  0.6013  0.2182  0.5293
17726TIP3    H174593   2.543   5.133  10.325  0.2259 -0.2763 -0.2268
17726TIP3    H274594   2.396   5.098  10.334  0.4215 -0.8824  0.7264
17727TIP3   OH274595   3.132   3.351  14.676 -0.4023 -0.3971  0.0759
17727TIP3    H174596   3.114   3.303  14.595 -1.2917 -0.4202  0.2727
17727TIP3    H274597   3.168   3.285  14.735  0.2772 -0.3740 -0.3009
17728TIP3   OH274598   2.817   1.051  15.506  0.1457  1.0279  0.4417
17728TIP3    H174599   2.798   0.963  15.474 -0.5320  1.6131 -0.8911
17728TIP3    H274600   2.911   1.063  15.490  0.3268  0.3978  1.0323
17729TIP3   OH274601   3.564   0.159   6.559  0.0737 -0.1489  0.1030
17729TIP3    H174602   3.469   0.173   6.561 -0.1436 -1.5384  0.2243
17729TIP3    H274603   3.584   0.147   6.466 -0.4171 -3.0998  0.2946
17730TIP3   OH274604   4.356   5.942   6.061 -0.4141  0.1780  0.4520
17730TIP3    H174605   4.288   5.990   6.107 -0.2093  0.8065  0.1181
17730TIP3    H274606   4.356   5.979   5.973 -1.4570 -1.6748 -0.3686
17731TIP3   OH274607   0.551   5.969   0.739  0.1984  0.2006  0.1032
17731TIP3    H174608   0.610   5.910   0.692 -0.2778 -0.6386  0.5251
17731TIP3    H274609   0.605   6.044   0.762  1.0170 -0.3894  0.1691
17732TIP3   OH274610   6.154   4.152   0.456  0.6466  0.1952 -0.0743
17732TIP3    H174611   6.165   4.159   0.550 -0.4741 -1.5434  0.2401
17732TIP3    H274612   6.095   4.078   0.444  1.2016  0.0079 -2.1678
17733TIP3   OH274613   5.969   6.044   0.506 -0.4456 -0.3802 -0.7204
17733TIP3    H174614   5.963   5.971   0.444  3.6553 -2.6051  1.1150
17733TIP3    H274615   6.054   6.084   0.488 -0.2685  0.5292  1.7810
17734TIP3   OH274616   1.998   5.826  16.138 -0.4431 -0.1738  0.0974
17734TIP3    H174617   2.068   5.891  16.134 -1.2178  0.6500 -0.8076
17734TIP3    H274618   1.946   5.852  16.215  0.2984 -0.8668  0.8483
17735TIP3   OH274619   6.766   5.342  10.929 -0.2723  0.3849 -0.8773
17735TIP3    H174620   6.856   5.365  10.908 -0.1463  0.4905 -0.2475
17735TIP3    H274621   6.714   5.417  10.899 -0.0745  0.6279 -0.6198
17736TIP3   OH274622   2.992   6.271   2.531 -0.0222  0.7637  0.3039
17736TIP3    H174623   3.029   6.248   2.617  0.0504 -0.7786 -0.1109
17736TIP3    H274624   2.915   6.216   2.523 -1.2061  2.3600  0.2078
17737TIP3   OH274625   0.089   2.171   0.862 -0.2316 -0.2178 -0.6226
17737TIP3    H174626   0.059   2.224   0.936 -0.4030  0.8538 -1.4499
17737TIP3    H274627   0.102   2.084   0.900 -0.5649  0.2461  0.6146
17738TIP3   OH274628   2.490   0.970   4.803 -0.5286 -0.3278  0.1192
17738TIP3    H174629   2.489   1.049   4.858  0.8059 -1.0206  1.1747
17738TIP3    H274630   2.457   1.000   4.719 -0.1323  1.3526  0.5226
17739TIP3   OH274631   6.792   4.406   0.759 -0.2055  0.4322  0.2615
17739TIP3    H174632   6.814   4.474   0.823 -3.8095  1.7246  0.3243
17739TIP3    H274633   6.820   4.443   0.675  0.5085  0.6793  0.5980
17740TIP3   OH274634   1.216   1.488  13.569  1.0634  0.2702 -0.1270
17740TIP3    H174635   1.232   1.427  13.497  3.0243  0.6791 -0.0954
17740TIP3    H274636   1.257   1.447  13.645 -1.0025 -0.1680  0.8270
17741TIP3   OH274637   3.928   3.244  11.679 -0.3757 -0.3267  0.4002
17741TIP3    H174638   3.959   3.202  11.759 -0.1430  0.4063  0.7017
17741TIP3    H274639   3.968   3.193  11.608  1.4559  0.5243  0.7756
17742TIP3   OH274640   3.193   1.341   4.021 -0.4404 -0.2450 -0.0184
17742TIP3    H174641   3.126   1.275   4.042  0.3234 -1.2795 -0.7037
17742TIP3    H274642   3.237   1.358   4.104 -0.4632 -0.8222  0.1189
17743TIP3   OH274643   1.143   2.380   2.822  0.0085 -0.1011 -0.2415
17743TIP3    H174644   1.167   2.323   2.895 -0.4026  0.5585  0.4302
17743TIP3    H274645   1.052   2.357   2.804 -0.5820  1.1879  0.8860
17744TIP3   OH274646   1.412   1.294  14.608 -0.6057  0.0668 -0.4316
17744TIP3    H174647   1.390   1.210  14.568 -0.4125 -0.0105 -0.3759
17744TIP3    H274648   1.495   1.278  14.653 -1.0003  0.0573  0.3035
17745TIP3   OH274649   2.173   4.797  11.470  0.2044 -0.3965 -0.1217
17745TIP3    H174650   2.098   4.739  11.457  0.7893 -1.0666 -0.6041
17745TIP3    H274651   2.222   4.756  11.542 -0.5976  0.7930  1.1566
17746TIP3   OH274652   5.241   1.995  11.460 -0.1170  0.4561 -0.6126
17746TIP3    H174653   5.288   1.917  11.489  4.3332  3.2193  0.6331
17746TIP3    H274654   5.235   1.986  11.365  0.7548 -1.1732 -0.5450
17747TIP3   OH274655   5.033   0.508   3.411  0.4982 -0.1531  0.0224
17747TIP3    H174656   5.051   0.579   3.349  0.9552 -0.6367 -0.4079
17747TIP3    H274657   5.116   0.461   3.418  0.0098 -1.0715 -0.2423
17748TIP3   OH274658   2.446   2.720  11.888 -0.2759  0.0847 -0.0136
17748TIP3    H174659   2.462   2.688  11.977  0.0470 -1.6087 -0.6506
17748TIP3    H274660   2.532   2.722  11.846 -0.4908  0.3736 -0.4534
17749TIP3   OH274661   3.757   1.201   1.483 -0.6377 -0.3747  0.0543
17749TIP3    H174662   3.810   1.182   1.406  1.9780 -1.3258  1.9294
17749TIP3    H274663   3.671   1.165   1.462 -0.0315 -0.5688 -2.3945
17750TIP3   OH274664   4.724   2.184  16.578  0.6012 -0.2087 -0.1322
17750TIP3    H174665   4.706   2.266  16.624 -2.3841 -0.4016 -0.8054
17750TIP3    H274666   4.772   2.130  16.642  0.2049  1.0413  1.2598
17751TIP3   OH274667   0.573   4.287  15.264  0.0655 -0.2267 -0.2082
17751TIP3    H174668   0.574   4.380  15.288  0.5077 -0.2630 -0.0739
17751TIP3    H274669   0.483   4.270  15.239 -0.7632 -0.4770  2.6371
17752TIP3   OH274670   0.739   1.948   3.351  0.2785  0.5785 -0.4579
17752TIP3    H174671   0.740   2.024   3.409 -1.1821  0.3072 -0.0385
17752TIP3    H274672   0.648   1.918   3.351  0.5447 -0.3487 -1.7012
17753TIP3   OH274673   5.293   2.369  16.422  0.3682  0.1914  0.0995
17753TIP3    H174674   5.247   2.356  16.504 -1.8205 -0.6950 -1.1763
17753TIP3    H274675   5.317   2.462  16.422  1.0752  0.0423  2.0054
17754TIP3   OH274676   3.566   0.020   3.046  0.0283  0.3071 -0.2606
17754TIP3    H174677   3.521  -0.064   3.054 -0.3691  0.3464 -1.8310
17754TIP3    H274678   3.601   0.021   2.957  0.5396  1.5538 -0.0729
17755TIP3   OH274679   6.787   0.216   4.113 -0.5997  0.0694  0.1984
17755TIP3    H174680   6.726   0.254   4.051 -1.1564 -0.4749  0.3991
17755TIP3    H274681   6.737   0.209   4.195 -0.3635 -0.6257  0.2913
17756TIP3   OH274682   1.316   5.144  10.915 -0.0857 -1.0377 -0.1539
17756TIP3    H174683   1.410   5.129  10.910  0.1060  0.1214 -0.4212
17756TIP3    H274684   1.306   5.237  10.895 -1.4841 -1.5944 -2.4850
17757TIP3   OH274685   1.871   0.753  13.989 -0.1496 -0.2206 -0.1396
17757TIP3    H174686   1.786   0.758  14.033 -0.1801  2.7430 -0.3472
17757TIP3    H274687   1.934   0.774  14.057  0.1733  0.2710 -0.5902
17758TIP3   OH274688   5.581   4.317   6.722  0.6806  0.0300  0.4394
17758TIP3    H174689   5.510   4.373   6.754  0.1563  0.2823 -1.0888
17758TIP3    H274690   5.609   4.358   6.640  2.5248 -0.1333  0.9334
17759TIP3   OH274691   2.211   1.428   4.693  0.1562 -0.0640  0.9201
17759TIP3    H174692   2.258   1.511   4.694  2.2165 -1.1156 -0.5418
17759TIP3    H274693   2.120   1.452   4.676  0.5838  1.9216  1.2185
17760TIP3   OH274694   6.277   0.309  11.372  0.5589 -0.4967  0.3479
17760TIP3    H174695   6.278   0.347  11.284  0.7721  1.2377  1.0657
17760TIP3    H274696   6.184   0.305  11.395  0.5193 -0.7060  0.1604
17761TIP3   OH274697   3.202   6.232  11.977 -0.5835 -0.0200 -0.5338
17761TIP3    H174698   3.219   6.178  11.899 -0.5314  0.0700 -0.5849
17761TIP3    H274699   3.273   6.296  11.977 -0.5228 -0.0881 -0.3502
17762TIP3   OH274700   6.022   0.126  13.509 -0.2606 -0.5341  0.1430
17762TIP3    H174701   6.075   0.181  13.567  1.0646 -2.1152  0.4727
17762TIP3    H274702   5.935   0.127  13.550  0.4981 -1.1459  1.8790
17763TIP3   OH274703   5.037   5.642   6.028 -0.0542  0.2812 -0.3567
17763TIP3    H174704   5.018   5.556   6.064 -0.2233  0.4622 -0.0052
17763TIP3    H274705   4.958   5.694   6.045 -0.1036  0.4006 -0.9054
17764TIP3   OH274706   5.996   4.229  12.418 -0.1979  0.1174 -0.2433
17764TIP3    H174707   5.968   4.282  12.344 -1.1517 -0.4330 -0.2998
17764TIP3    H274708   5.932   4.157  12.421 -0.1410  0.0974  1.0609
17765TIP3   OH274709   4.242   1.258   3.513 -0.7404 -0.2701 -0.0341
17765TIP3    H174710   4.232   1.192   3.444  0.3367  0.2504 -0.7155
17765TIP3    H274711   4.322   1.305   3.489 -0.3086 -0.1241  1.6301
17766TIP3   OH274712   4.471   6.098   6.512  0.1905 -0.0404  0.0754
17766TIP3    H174713   4.533   6.062   6.575 -0.1386 -0.4904  0.1467
17766TIP3    H274714   4.495   6.190   6.504  0.8515 -0.2050  0.1196
17767TIP3   OH274715   6.557   4.043  16.662  0.4796  0.0491 -0.1218
17767TIP3    H174716   6.485   4.087  16.707 -0.0725 -0.7026 -0.2525
17767TIP3    H274717   6.556   4.079  16.574 -0.5135 -0.8231 -0.4797
17768TIP3   OH274718   6.341   4.876   5.920 -0.6920 -0.3358  0.3496
17768TIP3    H174719   6.436   4.877   5.931 -0.6703 -0.4702  0.1855
17768TIP3    H274720   6.309   4.827   5.996 -0.6231 -0.3571  0.3653
17769TIP3   OH274721   5.639   4.793  11.417 -0.2016  0.3267  0.2263
17769TIP3    H174722   5.584   4.715  11.426  0.5195 -0.1144  0.9615
17769TIP3    H274723   5.725   4.759  11.393 -0.4848  1.0924 -2.0802
17770TIP3   OH274724   6.430   0.296  14.095 -0.2965  0.1923  0.0046
17770TIP3    H174725   6.519   0.264  14.110 -0.0578  1.0923  0.5818
17770TIP3    H274726   6.415   0.282  14.002  0.5911  0.3795 -0.1790
17771TIP3   OH274727   5.232   1.891   3.576  0.0289 -0.0871 -0.1434
17771TIP3    H174728   5.166   1.851   3.632 -1.2537  2.3269  0.2081
17771TIP3    H274729   5.184   1.915   3.496  0.7137  0.6759 -0.3417
17772TIP3   OH274730   3.214   2.812   1.759  0.5631 -0.0877  0.0160
17772TIP3    H174731   3.164   2.867   1.699 -1.7134  1.6218  3.1994
17772TIP3    H274732   3.246   2.740   1.705 -1.1016  1.4243 -3.2247
17773TIP3   OH274733   3.528   0.385  11.494  0.6424 -0.0433  0.4625
17773TIP3    H174734   3.522   0.410  11.402  1.6294 -0.9125  0.1359
17773TIP3    H274735   3.479   0.453  11.541  0.8441  0.8839 -0.6229
17774TIP3   OH274736   3.862   5.626   2.104  0.4022  0.3725  0.0838
17774TIP3    H174737   3.895   5.712   2.128  0.3685  0.0167  1.5129
17774TIP3    H274738   3.835   5.587   2.187 -2.7553  0.2702 -0.8594
17775TIP3   OH274739   1.455   0.355  16.336  0.0697 -0.3150  0.2278
17775TIP3    H174740   1.479   0.431  16.388  1.1351  0.2942 -1.1034
17775TIP3    H274741   1.531   0.297  16.342  0.6872  0.2542 -1.4940
17776TIP3   OH274742   1.806   3.147   1.944  0.4758  0.1542 -0.1696
17776TIP3    H174743   1.726   3.107   1.978 -0.1776 -0.5148 -2.3730
17776TIP3    H274744   1.775   3.222   1.893  1.3291  0.4698 -0.2319
17777TIP3   OH274745   3.870   2.596  15.912  0.1148 -0.1960  0.2389
17777TIP3    H174746   3.865   2.621  16.005  0.1801  0.8815 -0.0295
17777TIP3    H274747   3.786   2.624  15.876 -1.0789 -3.1282  0.5170
17778TIP3   OH274748   4.370   6.477   0.577  0.1035  0.2557  0.2687
17778TIP3    H174749   4.426   6.439   0.509 -0.0592 -0.4743  0.5266
17778TIP3    H274750   4.343   6.561   0.542  0.7499  0.2865 -0.1855
17779TIP3   OH274751   0.719   3.777  11.302 -0.2382 -0.2272  0.2146
17779TIP3    H174752   0.625   3.788  11.283 -0.2052 -2.0419 -1.2208
17779TIP3    H274753   0.755   3.866  11.294 -1.4849  0.1893 -1.3866
17780TIP3   OH274754   3.345   2.644  12.335 -0.2506  0.0450 -0.2308
17780TIP3    H174755   3.297   2.714  12.292  0.4926  0.3477 -0.5898
17780TIP3    H274756   3.283   2.607  12.398 -0.3737  1.6807  0.6816
17781TIP3   OH274757   5.061   4.686  15.345 -0.3779 -0.8126 -0.1135
17781TIP3    H174758   5.068   4.619  15.278 -0.8092 -0.3918 -0.5903
17781TIP3    H274759   4.969   4.681  15.373  0.0672 -1.7906  1.3074
17782TIP3   OH274760   1.536   6.227  15.704 -0.3328 -0.4767 -0.2573
17782TIP3    H174761   1.593   6.304  15.712  1.3078 -1.5330 -1.2790
17782TIP3    H274762   1.455   6.253  15.749  0.2328  1.7652 -0.3983
17783TIP3   OH274763   0.930   0.287  12.886  0.0113 -0.5505 -0.2964
17783TIP3    H174764   0.928   0.192  12.880  0.5580 -0.5302 -0.8799
17783TIP3    H274765   1.006   0.313  12.834 -0.7341  0.2701 -1.0004
17784TIP3   OH274766   4.960   4.246   1.092 -0.3989 -0.1259 -0.3750
17784TIP3    H174767   4.970   4.177   1.158  0.2159  0.0908 -0.2332
17784TIP3    H274768   5.044   4.247   1.046 -0.4962  0.3577 -0.5446
17785TIP3   OH274769   4.998   0.463   1.551  0.3223  0.8846  0.1073
17785TIP3    H174770   4.967   0.553   1.549  1.3490  1.2714  1.0162
17785TIP3    H274771   5.029   0.446   1.462 -0.2833  1.2730 -0.1827
17786TIP3   OH274772   2.594   2.267  13.838  0.1737 -0.1204 -0.3548
17786TIP3    H174773   2.508   2.305  13.860  0.0761 -0.7106  0.3411
17786TIP3    H274774   2.572   2.189  13.787  0.3928  1.0715 -2.3635
17787TIP3   OH274775   2.463   5.154  15.270  0.2433 -0.7816 -0.2522
17787TIP3    H174776   2.451   5.200  15.187 -0.9783 -0.5710  0.0296
17787TIP3    H274777   2.383   5.104  15.282 -0.3431  0.4935  1.5986
17788TIP3   OH274778   0.206   0.849  14.160 -0.2297 -0.8714 -0.4165
17788TIP3    H174779   0.269   0.868  14.230 -1.2031  0.0816  0.2396
17788TIP3    H274780   0.153   0.929  14.154 -0.9641 -1.4114 -1.3867
17789TIP3   OH274781   3.411   0.259   3.252  0.7533  0.7068  0.0759
17789TIP3    H174782   3.490   0.232   3.205  1.0131 -0.9509  1.3576
17789TIP3    H274783   3.348   0.189   3.236  0.2228  1.0318  0.6874
17790TIP3   OH274784   6.365   0.063  15.574  0.0193  0.2712 -0.0888
17790TIP3    H174785   6.325   0.042  15.659 -1.0079  0.8083 -0.4277
17790TIP3    H274786   6.337   0.152  15.556  0.4943  0.2693 -0.8540
17791TIP3   OH274787   4.128   0.571   1.532 -0.6227  0.2898 -0.2696
17791TIP3    H174788   4.217   0.579   1.566 -1.1873  0.5169  1.2501
17791TIP3    H274789   4.101   0.482   1.556  0.0728 -0.7784 -3.0744
17792TIP3   OH274790   0.972   2.706  10.395 -0.1798  0.5295  0.7201
17792TIP3    H174791   0.904   2.653  10.437 -1.2351  1.6239  0.4573
17792TIP3    H274792   1.053   2.656  10.409 -1.2013 -1.4827 -0.1075
17793TIP3   OH274793   3.217   4.274   5.171 -0.2493 -0.4189 -0.4403
17793TIP3    H174794   3.287   4.212   5.191 -0.2351 -0.0670  0.6791
17793TIP3    H274795   3.207   4.269   5.076  0.2153 -1.6225 -0.4389
17794TIP3   OH274796   0.682   4.223   4.828  0.1464  0.2641  0.0313
17794TIP3    H174797   0.608   4.215   4.768  0.5946  0.2709 -0.5393
17794TIP3    H274798   0.742   4.153   4.800 -0.2883 -0.6887  1.4238
17795TIP3   OH274799   1.070   6.132   4.283 -0.5583  0.1962 -0.2902
17795TIP3    H174800   1.011   6.155   4.354 -0.8745 -0.0853 -0.4551
17795TIP3    H274801   1.070   6.036   4.282  0.1546  0.1845 -0.0850
17796TIP3   OH274802   3.677   2.578   0.586 -0.4429 -0.0054  0.3430
17796TIP3    H174803   3.722   2.511   0.639 -1.1302 -1.0513 -0.3488
17796TIP3    H274804   3.592   2.589   0.630 -0.3514  0.3665  0.4228
17797TIP3   OH274805   0.397   3.410   3.051  0.1238  0.7316  0.9829
17797TIP3    H174806   0.411   3.320   3.080  1.5460  0.3225 -0.7249
17797TIP3    H274807   0.485   3.446   3.041 -0.3146  1.4512 -0.7725
17798TIP3   OH274808   4.511   6.073   2.738  0.6786  0.3273 -0.1554
17798TIP3    H174809   4.494   6.075   2.644 -2.4345 -1.3409  0.2333
17798TIP3    H274810   4.493   6.163   2.767  0.2327  0.5146 -0.9657
17799TIP3   OH274811   5.264   2.646  16.437  0.8450 -0.1599 -0.7688
17799TIP3    H174812   5.188   2.702  16.424  0.8598 -0.0899 -0.5434
17799TIP3    H274813   5.261   2.621  16.529  1.6132  0.5896 -0.5359
17800TIP3   OH274814   6.576   0.955   2.285 -0.3598  0.1451  0.4515
17800TIP3    H174815   6.505   0.957   2.349 -0.1956 -0.5258  0.6694
17800TIP3    H274816   6.654   0.930   2.335  0.2388  1.7773  0.3873
17801TIP3   OH274817   4.949   3.539   1.261 -0.3584  0.1616  0.1597
17801TIP3    H174818   4.876   3.555   1.320 -0.6940 -1.5176  0.2635
17801TIP3    H274819   5.010   3.485   1.312  0.3172  0.4013 -0.3705
17802TIP3   OH274820   2.597   3.458   1.887 -0.2431 -0.1387 -0.8396
17802TIP3    H174821   2.626   3.549   1.877 -0.3163 -0.2619 -2.4103
17802TIP3    H274822   2.674   3.406   1.862 -0.0463 -0.5505  0.4958
17803TIP3   OH274823   4.039   2.366  16.671  0.2556 -0.1164 -0.3906
17803TIP3    H174824   4.106   2.393  16.734  0.3548 -0.7192 -0.2319
17803TIP3    H274825   4.079   2.382  16.586  0.4237 -0.0402 -0.2978
17804TIP3   OH274826   3.169   5.741  15.942  0.3517 -0.5827  0.0946
17804TIP3    H174827   3.245   5.798  15.952  0.2897 -0.7005  1.4569
17804TIP3    H274828   3.097   5.801  15.921  0.3738 -0.1880  1.0902
17805TIP3   OH274829   2.709   0.535  15.054  0.4684 -0.2294 -0.5226
17805TIP3    H174830   2.647   0.504  14.988 -0.4614  0.6984 -0.1131
17805TIP3    H274831   2.775   0.583  15.004  0.6823 -0.9419 -0.9310
17806TIP3   OH274832   3.403   1.296  15.426 -0.9235  0.0407  0.6108
17806TIP3    H174833   3.367   1.385  15.425 -0.0269  0.4298 -1.1912
17806TIP3    H274834   3.329   1.240  15.401 -0.4850  0.8288 -3.0423
17807TIP3   OH274835   0.683   4.776  11.731 -0.4436 -0.2988 -0.5433
17807TIP3    H174836   0.677   4.851  11.790  3.7186 -0.8722  0.9333
17807TIP3    H274837   0.614   4.716  11.760 -0.0669  0.4882  2.1744
17808TIP3   OH274838   4.275   1.295  16.171  0.5503 -0.1692  0.4418
17808TIP3    H174839   4.228   1.377  16.187  2.4129  0.9642  0.3933
17808TIP3    H274840   4.206   1.233  16.145 -0.9176  1.3516  0.4920
17809TIP3   OH274841   0.920   4.837  15.275  0.1014 -0.0393  0.2738
17809TIP3    H174842   0.866   4.778  15.222  0.5940 -0.5773  0.3635
17809TIP3    H274843   1.007   4.798  15.273  0.7036  1.2698 -0.5654
17810TIP3   OH274844   0.025   3.274   6.453 -0.0348 -0.0481  0.0938
17810TIP3    H174845  -0.018   3.320   6.381  1.0949  0.6267 -0.1728
17810TIP3    H274846   0.058   3.194   6.415  0.3089  0.1722 -0.0743
17811TIP3   OH274847   6.349   3.238  16.286  0.1697 -0.1377  0.4992
17811TIP3    H174848   6.343   3.208  16.195  0.9390 -1.8362  0.9666
17811TIP3    H274849   6.338   3.333  16.281  0.1778 -0.1995 -1.3571
17812TIP3   OH274850   4.536   4.668  15.653 -0.1025 -0.0318  0.6486
17812TIP3    H174851   4.529   4.578  15.621  1.7565 -0.2166  0.6487
17812TIP3    H274852   4.454   4.710  15.626  0.2313 -0.8998 -2.0270
17813TIP3   OH274853   1.683   1.536   4.130 -0.4427  0.1044 -0.5562
17813TIP3    H174854   1.622   1.462   4.122  1.1916 -1.1883 -2.1064
17813TIP3    H274855   1.697   1.564   4.040  1.5075  0.0974 -0.2889
17814TIP3   OH274856   6.401   6.731  13.408  0.0226 -0.8346 -0.5891
17814TIP3    H174857   6.345   6.654  13.409  0.3436 -1.0654  0.1760
17814TIP3    H274858   6.361   6.789  13.343 -1.6289 -0.6023  0.5704
17815TIP3   OH274859   3.540   1.915  15.648  0.1223  0.0087  0.0041
17815TIP3    H174860   3.626   1.887  15.679  0.5277  1.1698 -0.0139
17815TIP3    H274861   3.557   1.951  15.561 -0.5444 -0.5982 -0.3889
17816TIP3   OH274862   5.587   6.684   6.157 -0.6466  0.2009  0.4325
17816TIP3    H174863   5.580   6.622   6.230 -0.8014 -3.5040 -2.4293
17816TIP3    H274864   5.659   6.742   6.181  0.6679 -2.1466  2.6596
17817TIP3   OH274865   1.298   2.667  14.762  0.0585 -0.4004  0.6784
17817TIP3    H174866   1.323   2.695  14.674 -1.4039 -1.5333 -0.1522
17817TIP3    H274867   1.336   2.579  14.771 -1.3957 -1.0936  0.3811
17818TIP3   OH274868   2.161   3.220   2.925 -0.7786 -0.7410 -0.4957
17818TIP3    H174869   2.151   3.257   2.837  0.1129 -1.0266 -0.7302
17818TIP3    H274870   2.231   3.155   2.915  0.7716  0.6260  0.8371
17819TIP3   OH274871   3.569   2.634  10.831 -0.2459  0.3524 -0.3297
17819TIP3    H174872   3.495   2.578  10.855  0.7588 -0.7060  0.4051
17819TIP3    H274873   3.575   2.627  10.736 -0.1808 -0.7462 -0.2544
17820TIP3   OH274874   0.319   5.779   2.049 -0.0383 -0.3653 -0.1008
17820TIP3    H174875   0.283   5.865   2.028  0.9381  0.0632 -0.1128
17820TIP3    H274876   0.279   5.756   2.133 -0.1123  0.2220  0.0285
17821TIP3   OH274877   6.249   1.380  15.423 -0.2339  0.8039 -0.0033
17821TIP3    H174878   6.256   1.305  15.364  0.1921  0.2916  0.6742
17821TIP3    H274879   6.322   1.369  15.485 -0.3889  1.5753  0.3287
17822TIP3   OH274880   0.186   5.222   0.679  0.0196  0.4833  0.2766
17822TIP3    H174881   0.270   5.263   0.696  0.0991 -0.1048  1.4098
17822TIP3    H274882   0.139   5.284   0.622  0.7275  1.3849  0.6646
17823TIP3   OH274883   4.968   2.403  16.299  0.3420  0.2281 -0.3359
17823TIP3    H174884   4.935   2.318  16.326  1.5887  0.0191  0.6205
17823TIP3    H274885   5.041   2.383  16.240  1.8855  0.5478  1.3754
17824TIP3   OH274886   3.063   4.434   4.194 -0.2416 -0.0999  0.0649
17824TIP3    H174887   3.128   4.463   4.130 -0.5540  0.8513  0.1528
17824TIP3    H274888   2.980   4.468   4.160 -0.4817 -0.0369  0.6985
17825TIP3   OH274889   4.395   5.727  16.253  0.1264 -0.4175  0.0996
17825TIP3    H174890   4.366   5.773  16.331  0.5796 -0.3617  0.2367
17825TIP3    H274891   4.319   5.675  16.226 -0.6858  1.0601 -0.5657
17826TIP3   OH274892   5.127   5.396  13.226  0.4908 -0.2300  0.2162
17826TIP3    H174893   5.117   5.302  13.217 -0.9930  0.0640 -1.6812
17826TIP3    H274894   5.174   5.423  13.147 -0.4213  0.7778 -0.0081
17827TIP3   OH274895   4.990   6.753  12.329 -0.3182  0.1163  0.2344
17827TIP3    H174896   4.986   6.683  12.394 -1.3021 -0.9544 -0.9311
17827TIP3    H274897   5.082   6.756  12.303 -0.3947 -1.3462 -0.2946
17828TIP3   OH274898   1.003   0.637  16.057 -0.1106 -0.5127 -0.5029
17828TIP3    H174899   1.079   0.638  16.115 -1.8460  1.2975  1.9965
17828TIP3    H274900   0.929   0.620  16.116 -1.8124 -0.6157 -2.5583
17829TIP3   OH274901   4.690   6.429  14.854  0.2813  0.2828  0.6581
17829TIP3    H174902   4.685   6.515  14.896 -0.1431  1.6037 -1.8834
17829TIP3    H274903   4.621   6.431  14.787  1.2444 -1.4320 -0.4642
17830TIP3   OH274904   0.153   3.624  16.818 -0.1177 -0.0735  1.1695
17830TIP3    H174905   0.132   3.698  16.761 -1.6214 -1.2871  0.0559
17830TIP3    H274906   0.236   3.648  16.859 -1.1474  2.7864  1.8427
17831TIP3   OH274907   3.825   4.141  16.291  0.1841  0.5838 -0.3131
17831TIP3    H174908   3.888   4.078  16.326 -0.7441  0.2517  0.8411
17831TIP3    H274909   3.752   4.140  16.354 -0.8817  1.1094 -1.4806
17832TIP3   OH274910   1.261   4.119  16.402  0.3343  0.4048 -0.3251
17832TIP3    H174911   1.277   4.035  16.360  0.1185 -0.0954  0.5859
17832TIP3    H274912   1.167   4.135  16.387  0.1410 -0.0218  0.4035
17833TIP3   OH274913   0.068   5.149  11.782  0.5408 -0.4085 -0.1156
17833TIP3    H174914   0.097   5.096  11.708 -1.4340 -1.3521 -0.2859
17833TIP3    H274915   0.116   5.113  11.857  2.6430  0.6315 -0.8702
17834TIP3   OH274916   4.687   5.307   3.574 -0.9337 -0.5311  0.0979
17834TIP3    H174917   4.673   5.300   3.479  0.8092  0.5181 -0.2810
17834TIP3    H274918   4.699   5.217   3.603 -1.1105 -0.8363 -0.7574
17835TIP3   OH274919   3.001   5.077  15.088 -0.6804 -0.2113  0.5447
17835TIP3    H174920   3.073   5.127  15.127  0.6751 -3.2139  2.2462
17835TIP3    H274921   3.034   5.053  15.001 -0.4548  0.0744  0.5477
17836TIP3   OH274922   0.823   5.556   2.349 -0.0798 -0.2933  0.3577
17836TIP3    H174923   0.749   5.498   2.331 -0.4086  0.2770 -0.1641
17836TIP3    H274924   0.783   5.643   2.360  0.5806  0.1512 -0.6351
17837TIP3   OH274925   1.141   1.923   2.311 -0.7032  0.4655  0.1706
17837TIP3    H174926   1.090   1.995   2.349  0.2776  1.7223 -0.7947
17837TIP3    H274927   1.077   1.855   2.292 -1.6192  0.9537  1.3923
17838TIP3   OH274928   3.457   1.494   4.441 -0.1534 -1.0012 -0.4279
17838TIP3    H174929   3.548   1.506   4.413 -0.5433  1.8220 -0.7976
17838TIP3    H274930   3.463   1.455   4.528  1.4587 -0.1970 -0.1342
17839TIP3   OH274931   2.129   2.910  15.456 -0.4482  0.3602  0.1051
17839TIP3    H174932   2.136   2.823  15.417  0.6315  0.2805  0.4448
17839TIP3    H274933   2.052   2.905  15.512 -0.0769 -0.5648  0.5603
17840TIP3   OH274934   2.507   6.062   4.589  0.4129  0.2785  0.5149
17840TIP3    H174935   2.469   6.079   4.675 -0.1068 -0.1016  0.3639
17840TIP3    H274936   2.600   6.045   4.606  0.0700 -1.0412  1.1406
17841TIP3   OH274937   4.457   1.436   5.456 -0.3426 -0.4529 -0.1597
17841TIP3    H174938   4.426   1.401   5.373 -1.4791  1.0744 -0.4073
17841TIP3    H274939   4.549   1.409   5.461 -0.7592 -2.1469 -1.0135
17842TIP3   OH274940   4.792   0.932  15.189 -0.2498  0.2779 -0.1176
17842TIP3    H174941   4.707   0.920  15.231  1.0863  0.2541  2.8468
17842TIP3    H274942   4.848   0.865  15.228  1.2857  0.6479 -1.5627
17843TIP3   OH274943   2.728   2.136   1.514 -0.1748 -0.6265 -0.3191
17843TIP3    H174944   2.650   2.093   1.478  0.1225  0.4733 -2.4791
17843TIP3    H274945   2.695   2.215   1.556 -0.2906 -0.3064 -0.9876
17844TIP3   OH274946   3.933   1.038  14.346  0.1350 -0.0287 -0.0066
17844TIP3    H174947   3.910   0.985  14.270  2.3659  0.4712 -1.0913
17844TIP3    H274948   3.959   0.974  14.413 -0.1486 -0.3960 -0.2409
17845TIP3   OH274949   1.618   3.043  11.716  0.0639 -0.1241 -0.1391
17845TIP3    H174950   1.665   2.963  11.740  1.8830  0.4625 -1.5389
17845TIP3    H274951   1.674   3.114  11.744 -2.0715  0.8181  2.1680
17846TIP3   OH274952   3.271   5.816  11.640 -0.1217 -0.8664 -0.4956
17846TIP3    H174953   3.254   5.757  11.713 -0.4499 -0.9314 -0.6226
17846TIP3    H274954   3.287   5.758  11.565  1.3936 -0.8228 -0.2321
17847TIP3   OH274955   5.043   2.534   6.771  0.3122 -0.6060 -0.2687
17847TIP3    H174956   5.031   2.446   6.735  1.7409 -0.2010 -1.8818
17847TIP3    H274957   5.092   2.581   6.703  0.5627  1.1042  1.0267
17848TIP3   OH274958   2.057   6.488  16.459 -0.1315 -0.2600 -0.6720
17848TIP3    H174959   2.058   6.459  16.368  2.3363 -2.0627 -0.1795
17848TIP3    H274960   2.036   6.581  16.455 -1.7068 -0.6232 -2.9051
17849TIP3   OH274961   6.278   2.745  15.924  0.2539 -0.1080  0.0423
17849TIP3    H174962   6.373   2.758  15.916  0.2738  0.8662  1.4974
17849TIP3    H274963   6.240   2.816  15.872  0.3528  0.7330  1.0816
17850TIP3   OH274964   2.808   4.777  12.919 -0.1561  0.4959 -0.0546
17850TIP3    H174965   2.739   4.841  12.938  0.1617  0.6744  0.5083
17850TIP3    H274966   2.878   4.798  12.980 -0.0146 -0.3450  0.0785
17851TIP3   OH274967   1.713   0.011  10.472  0.5741 -0.3535 -0.2433
17851TIP3    H174968   1.634  -0.042  10.477 -0.0346  0.5719  3.7424
17851TIP3    H274969   1.769  -0.024  10.542  2.0340  1.4481 -0.4341
17852TIP3   OH274970   4.798   4.804  12.395 -0.5363  1.3714  0.2298
17852TIP3    H174971   4.873   4.836  12.345 -0.5442  0.1505 -0.6099
17852TIP3    H274972   4.802   4.709  12.387 -1.8260  1.2539  0.6702
17853TIP3   OH274973   1.985   0.233   3.503 -0.5706  0.0677  0.1984
17853TIP3    H174974   1.953   0.242   3.413  0.4071  0.3313 -0.1390
17853TIP3    H274975   1.971   0.320   3.541  0.0387  0.2833 -0.0562
17854TIP3   OH274976   3.121   2.487  10.722  0.6476 -0.0231  0.9394
17854TIP3    H174977   3.128   2.414  10.660 -2.3907  1.2428 -1.1209
17854TIP3    H274978   3.064   2.454  10.791 -1.6352  0.5874 -0.5450
17855TIP3   OH274979   3.238   5.937   1.389 -0.0018 -0.0365  0.0923
17855TIP3    H174980   3.166   5.973   1.338  0.9635  0.2938 -1.0936
17855TIP3    H274981   3.280   6.013   1.429 -0.2606 -0.2247  0.7454
17856TIP3   OH274982   6.517   5.729  11.435 -0.5645  0.0485  0.0901
17856TIP3    H174983   6.545   5.786  11.363  0.7564 -0.6152  0.0368
17856TIP3    H274984   6.546   5.642  11.409 -1.2628 -0.4210  0.8302
17857TIP3   OH274985   4.346   3.520  13.743 -0.1691 -0.1903  0.6290
17857TIP3    H174986   4.414   3.455  13.727 -0.5583 -0.4914  0.1827
17857TIP3    H274987   4.268   3.485  13.701 -0.8048 -0.2250  1.7997
17858TIP3   OH274988   6.409   5.809   0.589  0.0589  0.3471  0.4213
17858TIP3    H174989   6.340   5.746   0.609  0.2227  0.4105  1.2130
17858TIP3    H274990   6.490   5.761   0.606  0.2156  0.2785 -0.4842
17859TIP3   OH274991   6.575   3.471  11.891  0.1813  0.9604 -0.3414
17859TIP3    H174992   6.575   3.511  11.977 -1.0734  2.1373 -0.8605
17859TIP3    H274993   6.486   3.481  11.859  0.0395 -1.4456 -0.8931
17860TIP3   OH274994   3.701   5.363  15.617 -0.1499 -0.1692  0.1370
17860TIP3    H174995   3.727   5.327  15.702 -0.1951 -0.3970  0.0548
17860TIP3    H274996   3.767   5.430  15.598  0.5840 -0.9873 -0.2363
17861TIP3   OH274997   5.944   2.095   3.931 -0.0289 -0.0097 -0.2725
17861TIP3    H174998   5.926   2.101   4.025  1.7649  0.5257  0.0828
17861TIP3    H274999   5.947   2.001   3.913  0.9886 -0.1412  0.5185
17862TIP3   OH275000   1.045   0.008  17.100  0.2553 -0.0148  0.2782
17862TIP3    H175001   1.055  -0.059  17.032  3.0591  0.5488  0.0012
17862TIP3    H275002   1.016  -0.040  17.177 -2.6420 -0.7246 -1.1224
17863TIP3   OH275003   6.053   3.701  11.796 -0.6994 -0.1097  0.0431
17863TIP3    H175004   6.113   3.632  11.769  0.0388  0.6326 -0.2507
17863TIP3    H275005   6.027   3.744  11.714 -1.7143 -0.4866  0.1565
17864TIP3   OH275006   6.725   2.689   5.202  0.0751  0.1872  0.2749
17864TIP3    H175007   6.810   2.653   5.227  0.1035 -0.5371 -0.7877
17864TIP3    H275008   6.745   2.767   5.150  0.1427 -0.4466 -0.6868
17865TIP3   OH275009   0.663   6.308  11.213  0.3227  0.4830  0.1916
17865TIP3    H175010   0.605   6.233  11.224  0.8916  0.0339  0.1589
17865TIP3    H275011   0.604   6.383  11.207 -0.2757 -0.0099 -0.2580
17866TIP3   OH275012   2.957   3.283   5.109  0.3819 -0.1628  0.0700
17866TIP3    H175013   2.977   3.327   5.192 -0.8433  0.2295  0.1734
17866TIP3    H275014   2.939   3.355   5.048 -2.0344 -0.4572  0.3381
17867TIP3   OH275015   5.896   2.940   5.442 -0.1495 -0.0817  0.1100
17867TIP3    H175016   5.882   2.987   5.524  0.0733 -1.0697  0.7390
17867TIP3    H275017   5.983   2.900   5.452  0.6781  1.2084 -1.3413
17868TIP3   OH275018   6.153   6.353   6.985  0.4201  0.4291 -0.8012
17868TIP3    H175019   6.248   6.352   7.000  0.4533  0.8968 -0.9399
17868TIP3    H275020   6.140   6.425   6.923 -0.4389  3.1675  2.2417
17869TIP3   OH275021   4.345   6.127   0.949  0.3317 -0.2076  0.2513
17869TIP3    H175022   4.303   6.114   1.035 -0.5586 -0.0117 -0.1436
17869TIP3    H275023   4.318   6.215   0.922 -0.2718 -0.6704 -0.7047
17870TIP3   OH275024   5.881   1.284  13.429 -0.0355  0.3593  0.1186
17870TIP3    H175025   5.907   1.262  13.340 -1.9147 -1.3471 -0.0868
17870TIP3    H275026   5.792   1.320  13.419 -0.5116 -0.4210  1.3380
17871TIP3   OH275027   1.404   2.198   2.519 -0.0789  0.4900 -0.3516
17871TIP3    H175028   1.387   2.215   2.426 -1.6084  1.6780  0.0944
17871TIP3    H275029   1.431   2.282   2.555 -0.7868  0.3646  0.5247
17872TIP3   OH275030   6.794   4.485  10.553 -0.2822  0.2912  0.7241
17872TIP3    H175031   6.705   4.477  10.519 -0.5170  0.0161  1.3784
17872TIP3    H275032   6.849   4.452  10.482 -0.7194  0.2273  0.4050
17873TIP3   OH275033   2.540   4.834  12.404  0.1938 -0.5324  0.0544
17873TIP3    H175034   2.447   4.828  12.425  0.1230  1.1593  0.3573
17873TIP3    H275035   2.554   4.767  12.337 -1.4341 -0.2482 -0.6079
17874TIP3   OH275036   1.067   1.630   1.185  0.2158 -0.0499  0.0301
17874TIP3    H175037   1.125   1.554   1.195  0.0789 -0.1436  0.1144
17874TIP3    H275038   1.118   1.703   1.222 -0.2191 -0.3630  1.3171
17875TIP3   OH275039   1.380   3.313  10.728 -0.2194  0.2240  0.0310
17875TIP3    H175040   1.314   3.266  10.677 -0.7363  1.9866 -1.0191
17875TIP3    H275041   1.463   3.273  10.701 -0.7316 -1.0805  0.3171
17876TIP3   OH275042   3.031   2.399   4.661  0.2666 -0.5178 -0.3656
17876TIP3    H175043   3.041   2.370   4.571 -0.8285  1.8420 -1.3265
17876TIP3    H275044   2.939   2.426   4.668  0.7848  1.1331  0.8515
17877TIP3   OH275045   4.223   2.663   0.903 -0.0654  0.1567  0.2571
17877TIP3    H175046   4.299   2.607   0.914 -0.7117 -0.9101 -0.4139
17877TIP3    H275047   4.201   2.693   0.991  1.8913  1.5921  0.3252
17878TIP3   OH275048   1.708   3.565  16.499  0.0933  0.5199  0.2409
17878TIP3    H175049   1.653   3.605  16.431  1.0928 -1.9037 -2.1958
17878TIP3    H275050   1.648   3.509  16.548 -0.4647  1.5792  0.8109
17879TIP3   OH275051   3.764   5.333   5.186 -0.4599 -0.1681  0.1704
17879TIP3    H175052   3.697   5.287   5.236 -1.1093  0.4084 -0.1424
17879TIP3    H275053   3.719   5.410   5.151  0.1436 -0.2232 -0.7708
17880TIP3   OH275054   5.525   2.783  14.567  0.0673 -0.7288  0.5309
17880TIP3    H175055   5.462   2.752  14.632  0.9071  0.1837  1.8179
17880TIP3    H275056   5.609   2.748  14.597  0.2738 -1.5472 -0.9121
17881TIP3   OH275057   1.558   1.843   4.574 -0.0414 -0.1692 -0.0211
17881TIP3    H175058   1.564   1.885   4.660  0.0536  0.9792 -0.5711
17881TIP3    H275059   1.632   1.879   4.525 -0.5417 -0.2136 -0.8286
17882TIP3   OH275060   2.071   6.465  12.988 -0.0020  0.6712 -0.7338
17882TIP3    H175061   2.084   6.477  12.894 -0.2361  2.3195 -0.5746
17882TIP3    H275062   2.155   6.430  13.019  0.3642  0.9330 -1.4087
17883TIP3   OH275063   4.905   2.174   5.680 -0.4700  0.2092  0.2432
17883TIP3    H175064   4.958   2.170   5.760  0.3282  1.5574 -0.1822
17883TIP3    H275065   4.881   2.266   5.672  0.6016  0.3737 -1.7662
17884TIP3   OH275066   0.119   3.032   0.232  0.1355 -0.0735  0.1296
17884TIP3    H175067   0.085   3.028   0.143  0.2175  0.1833  0.0868
17884TIP3    H275068   0.098   3.120   0.262  0.6058  0.0269  0.1655
17885TIP3   OH275069   4.009   5.407   4.743  0.3909 -0.4757 -0.2117
17885TIP3    H175070   4.030   5.485   4.691 -0.3069  0.1822  0.4777
17885TIP3    H275071   4.083   5.396   4.802 -0.0501  0.4061  0.5357
17886TIP3   OH275072   4.128   0.088   2.810 -0.3287  0.4268  0.2038
17886TIP3    H175073   4.172   0.039   2.740 -0.5441  0.6882 -0.1171
17886TIP3    H275074   4.045   0.042   2.823 -0.1324  0.1619  0.5436
17887TIP3   OH275075   3.936   3.049  13.592  0.1690  0.1504 -0.0378
17887TIP3    H175076   3.908   3.049  13.683  0.8604 -0.1450  0.1857
17887TIP3    H275077   3.878   2.987  13.549 -1.1231  1.3738 -0.1215
17888TIP3   OH275078   5.724   5.064   2.552 -0.1813  0.2305  0.4716
17888TIP3    H175079   5.659   5.128   2.582  0.8899  0.4627  2.4392
17888TIP3    H275080   5.676   5.010   2.489 -1.6357  1.7784  0.1624
17889TIP3   OH275081   1.046   2.811  15.246  0.2793 -0.0241 -0.4943
17889TIP3    H175082   1.104   2.806  15.323 -1.1532  1.0827  0.7242
17889TIP3    H275083   0.996   2.729  15.250 -0.4084  0.4233  0.2894
17890TIP3   OH275084   5.142   3.889   1.392 -0.1442  0.3655  0.3202
17890TIP3    H175085   5.174   3.857   1.476  2.7755  1.6619 -0.1554
17890TIP3    H275086   5.163   3.820   1.329 -0.3616  0.2828  0.3377
17891TIP3   OH275087   3.389   2.090   2.807 -0.1774 -0.0727 -0.4159
17891TIP3    H175088   3.394   2.027   2.878  1.0169  0.2208 -0.2111
17891TIP3    H275089   3.383   2.037   2.728  0.3216 -0.4494 -0.2080
17892TIP3   OH275090   0.911   5.517   1.125  0.4697  0.2237 -0.0928
17892TIP3    H175091   0.832   5.559   1.092  1.0696  1.6642  0.2556
17892TIP3    H275092   0.879   5.455   1.191 -0.4567 -0.2374 -0.9474
17893TIP3   OH275093   5.252   0.578   4.374 -0.7259  0.4497 -0.1099
17893TIP3    H175094   5.305   0.527   4.435 -1.0206  1.7609  1.2807
17893TIP3    H275095   5.284   0.667   4.382 -1.7414  0.8947 -0.8042
17894TIP3   OH275096   1.500   0.745  13.732 -0.0549  0.2454  0.0941
17894TIP3    H175097   1.542   0.728  13.817 -1.8741 -1.4092  0.7346
17894TIP3    H275098   1.537   0.679  13.674  0.6066  0.8795 -0.2237
17895TIP3   OH275099   2.444   3.258   5.351  0.8701  0.3641  0.5531
17895TIP3    H175100   2.513   3.292   5.408  3.4293  0.9288 -2.5297
17895TIP3    H275101   2.478   3.174   5.320  0.2524  0.6680 -1.0618
17896TIP3   OH275102   2.704   2.788   6.185 -1.0572 -0.0770 -0.1000
17896TIP3    H175103   2.693   2.725   6.114 -0.0341 -0.0828 -0.2626
17896TIP3    H275104   2.785   2.762   6.229 -1.1114  0.5696  0.4064
17897TIP3   OH275105   4.846   3.179   4.104 -0.3649 -0.6651  0.0778
17897TIP3    H175106   4.911   3.231   4.152  0.3588 -0.1672 -1.4050
17897TIP3    H275107   4.804   3.127   4.172 -0.6770  1.3658  1.5554
17898TIP3   OH275108   2.989   0.902   1.232 -0.3318 -0.2422  0.1158
17898TIP3    H175109   2.936   0.977   1.207 -0.0463  0.4527  1.4928
17898TIP3    H275110   3.072   0.913   1.186  0.2596  1.1163  1.4080
17899TIP3   OH275111   5.838   6.634   3.643 -0.4462 -0.4718  0.0946
17899TIP3    H175112   5.768   6.654   3.582 -0.3294 -0.5138 -0.0539
17899TIP3    H275113   5.827   6.541   3.663 -0.1278 -0.6028 -0.3230
17900TIP3   OH275114   5.760   6.287   2.053 -0.5450 -0.7530 -0.2705
17900TIP3    H175115   5.820   6.350   2.093 -0.4357 -2.3723  2.2955
17900TIP3    H275116   5.673   6.320   2.073 -0.5321 -0.0786 -1.2410
17901TIP3   OH275117   2.826   5.269   4.930  0.2125 -0.7129  0.6672
17901TIP3    H175118   2.834   5.311   4.844  0.4951  1.1980  1.5781
17901TIP3    H275119   2.784   5.185   4.912 -0.0166 -0.2212 -1.2971
17902TIP3   OH275120   5.287   6.756  11.923 -0.2551 -0.5188 -0.5444
17902TIP3    H175121   5.210   6.701  11.909  0.9264 -2.8697  1.4915
17902TIP3    H275122   5.315   6.780  11.834 -2.4813 -0.7307 -1.3782
17903TIP3   OH275123   5.189   6.225   3.748  0.5138 -0.2081 -0.2931
17903TIP3    H175124   5.243   6.290   3.704 -0.8436  1.5183  0.4866
17903TIP3    H275125   5.227   6.217   3.835  0.1052  0.2458 -0.0760
17904TIP3   OH275126   3.676   5.628  13.559 -0.1914  0.3936 -0.3195
17904TIP3    H175127   3.622   5.605  13.635  0.1013  0.7736  0.0021
17904TIP3    H275128   3.714   5.545  13.531  1.8251  0.6167  1.5662
17905TIP3   OH275129   2.428   5.564   3.972 -0.5356  0.1147 -0.3329
17905TIP3    H175130   2.509   5.539   4.016 -0.8329 -2.3473 -1.0247
17905TIP3    H275131   2.454   5.632   3.910  0.8546 -0.1016 -0.0157
17906TIP3   OH275132   0.175   4.285  11.887  0.0246  0.5400  0.1922
17906TIP3    H175133   0.086   4.310  11.914 -0.0503 -1.7035  2.4059
17906TIP3    H275134   0.170   4.281  11.791 -2.0094  1.2501  0.2058
17907TIP3   OH275135   6.142   2.514   0.557 -0.2125 -0.2998  0.3649
17907TIP3    H175136   6.101   2.432   0.527  0.3498 -0.7038  0.6760
17907TIP3    H275137   6.236   2.494   0.559  0.0753  0.7833 -0.8712
17908TIP3   OH275138   6.695   1.040   2.017  0.2593  0.8525 -0.3640
17908TIP3    H175139   6.643   0.981   2.071  1.9669 -1.8838 -1.4787
17908TIP3    H275140   6.690   1.124   2.062 -3.2362  0.2384  0.7308
17909TIP3   OH275141   3.686   3.390  11.403  0.2166  0.1580  0.7585
17909TIP3    H175142   3.688   3.415  11.310  1.3007  2.0953  1.2508
17909TIP3    H275143   3.698   3.295  11.402  0.3208  0.1492 -1.0786
17910TIP3   OH275144   2.012   1.889   2.292  0.0748 -0.5692 -0.3361
17910TIP3    H175145   1.922   1.894   2.324  0.4242 -0.1093  0.6114
17910TIP3    H275146   2.020   1.963   2.232 -0.4886 -1.2407 -1.2587
17911TIP3   OH275147   4.870   1.229  16.522 -0.1053  0.3293 -0.9924
17911TIP3    H175148   4.863   1.315  16.564  0.2076  0.5136 -1.3137
17911TIP3    H275149   4.833   1.169  16.586  1.0014  0.5173 -0.1403
17912TIP3   OH275150   0.504   1.931  15.885  0.0209  0.0116 -0.1013
17912TIP3    H175151   0.486   1.970  15.971 -1.0814 -0.4296 -0.1149
17912TIP3    H275152   0.542   1.845  15.905  0.4956  0.2310 -0.0591
17913TIP3   OH275153   0.723   5.360   1.895 -0.1078  0.2320  0.5832
17913TIP3    H175154   0.760   5.432   1.844  1.5058  0.1750  1.6087
17913TIP3    H275155   0.704   5.292   1.831  0.2885  0.7975 -0.1448
17914TIP3   OH275156   3.682   0.256   3.154  0.7878  0.1161  0.0780
17914TIP3    H175157   3.727   0.287   3.075 -0.5595  0.3185 -0.6412
17914TIP3    H275158   3.643   0.172   3.128  2.7535 -1.3058  1.4195
17915TIP3   OH275159   5.149   3.282   2.904  0.0725  0.0739 -0.5055
17915TIP3    H175160   5.228   3.230   2.914  0.0491  0.1610  0.1915
17915TIP3    H275161   5.181   3.373   2.899 -0.0203  0.1786  0.5700
17916TIP3   OH275162   3.361   2.483  11.909 -0.1454  0.4384 -0.5224
17916TIP3    H175163   3.322   2.560  11.866 -1.2519  1.1204  1.5788
17916TIP3    H275164   3.290   2.447  11.962  0.7886 -1.1908 -0.3218
17917TIP3   OH275165   6.090   6.484  13.690  0.3198 -0.4670 -0.2611
17917TIP3    H175166   6.157   6.518  13.750  0.2127 -0.5369 -0.1021
17917TIP3    H275167   6.140   6.452  13.616  0.4203  0.1123 -0.4547
17918TIP3   OH275168   3.956   4.126  13.223 -0.1835 -0.8030 -0.0931
17918TIP3    H175169   3.865   4.107  13.242 -0.2284 -0.2271  0.3151
17918TIP3    H275170   3.954   4.175  13.141 -0.5114  1.4741  1.1738
17919TIP3   OH275171   2.749   3.671   3.203 -0.2942  0.1650  0.5134
17919TIP3    H175172   2.716   3.718   3.126  0.8370 -1.9092 -1.3644
17919TIP3    H275173   2.826   3.720   3.230  0.4195 -0.1067 -0.9303
17920TIP3   OH275174   6.316   5.522  14.267  0.1415  0.2224  0.1447
17920TIP3    H175175   6.253   5.505  14.337 -0.4605  2.5571  0.2414
17920TIP3    H275176   6.263   5.555  14.194  1.0192 -0.0176 -0.6331
17921TIP3   OH275177   1.442   2.539   1.343  0.5958 -0.0316  0.1339
17921TIP3    H175178   1.407   2.566   1.258  0.0158  0.4603  0.5169
17921TIP3    H275179   1.457   2.445   1.334 -1.1363 -0.3386  0.0365
17922TIP3   OH275180   0.031   5.184  16.587 -0.0134 -0.1983  0.4203
17922TIP3    H175181   0.085   5.255  16.620  1.1213 -0.8201 -0.0664
17922TIP3    H275182  -0.030   5.227  16.527  0.3466  0.4289  0.4962
17923TIP3   OH275183   0.646   6.066  11.472 -0.7160  0.0901 -0.4777
17923TIP3    H175184   0.683   5.998  11.528  0.0837  1.1881  0.3896
17923TIP3    H275185   0.627   6.022  11.389  1.1239 -0.8792 -0.4401
17924TIP3   OH275186   2.723   2.425   2.477 -0.0741 -0.3500 -0.0916
17924TIP3    H175187   2.807   2.380   2.489  0.0202  0.1850  1.4096
17924TIP3    H275188   2.744   2.517   2.493 -0.9902 -0.2355  0.4648
17925TIP3   OH275189   2.989   6.147  11.331  0.2944 -0.0007  0.8828
17925TIP3    H175190   3.064   6.177  11.279 -1.2317  0.4046 -1.2151
17925TIP3    H275191   3.013   6.169  11.421  2.6567  0.1544  0.2964
17926TIP3   OH275192   2.107   5.483  15.744  0.3738  0.0100 -0.7662
17926TIP3    H175193   2.105   5.562  15.798 -1.1870 -1.7960  2.0428
17926TIP3    H275194   2.194   5.447  15.757  0.2602 -0.0123 -0.0250
17927TIP3   OH275195   2.299   0.701  11.909  0.3971  0.6826 -0.4088
17927TIP3    H175196   2.214   0.721  11.947  1.1067  1.0372  1.0678
17927TIP3    H275197   2.357   0.769  11.943  0.8756  1.7504 -3.0836
17928TIP3   OH275198   1.815   4.713   4.501 -0.5184 -0.0674  0.8220
17928TIP3    H175199   1.902   4.673   4.508 -0.8571 -1.2553 -1.0333
17928TIP3    H275200   1.772   4.692   4.584 -0.0668 -2.1518  0.5899
17929TIP3   OH275201   0.166   5.545  13.462 -0.5561  0.0870  0.1472
17929TIP3    H175202   0.088   5.600  13.471  0.0323  0.8604  0.6562
17929TIP3    H275203   0.196   5.561  13.372 -1.1658 -0.4776 -0.1667
17930TIP3   OH275204   2.739   1.437  15.805 -0.1309 -0.3818 -0.3931
17930TIP3    H175205   2.807   1.405  15.865  2.0883  1.0589 -1.9570
17930TIP3    H275206   2.691   1.358  15.779 -0.6044 -1.1433  2.5192
17931TIP3   OH275207   2.056   0.596   6.059 -0.9108 -0.5347 -0.0608
17931TIP3    H175208   2.113   0.571   6.131 -0.2187  0.2362 -0.3204
17931TIP3    H275209   1.975   0.625   6.101 -0.6316 -0.4018  0.3896
17932TIP3   OH275210   6.011   2.242   4.810  0.6511 -0.2257 -0.1556
17932TIP3    H175211   6.062   2.237   4.891  1.6495  1.9220 -0.5677
17932TIP3    H275212   5.990   2.335   4.800 -0.0268 -0.5228 -2.0083
17933TIP3   OH275213   5.836   6.605   1.714  0.1142 -0.9847 -0.3701
17933TIP3    H175214   5.840   6.656   1.795 -0.4943 -0.3739 -0.7161
17933TIP3    H275215   5.886   6.526   1.733  0.9369 -0.3385  0.2332
17934TIP3   OH275216   1.668   2.372   2.138 -0.5030  0.7012  0.0355
17934TIP3    H175217   1.645   2.328   2.219  0.6181  1.4310  0.7804
17934TIP3    H275218   1.760   2.349   2.123  0.0958  2.6706  0.4126
17935TIP3   OH275219   2.896   0.751   3.591  0.1336 -0.4010  0.2940
17935TIP3    H175220   2.933   0.793   3.668  3.0828  0.2996 -1.3414
17935TIP3    H275221   2.891   0.658   3.614  3.7393 -0.7027  0.5381
17936TIP3   OH275222   2.849   0.091  12.871  0.6533  0.4734 -0.3477
17936TIP3    H175223   2.839   0.019  12.808  0.1750  0.7058 -0.5398
17936TIP3    H275224   2.760   0.126  12.882  0.7533  0.5113  0.3647
17937TIP3   OH275225   3.554   1.391  15.966 -0.7600 -0.3836 -0.4035
17937TIP3    H175226   3.588   1.401  16.055 -1.9424 -0.1285  0.0313
17937TIP3    H275227   3.493   1.318  15.972 -0.3728 -0.7780 -1.1582
17938TIP3   OH275228   3.034   0.476   0.478 -0.1590  0.1470 -0.3160
17938TIP3    H175229   3.091   0.461   0.554 -0.3206  1.1600  0.0293
17938TIP3    H275230   3.018   0.389   0.442  1.5823 -0.1610 -0.4029
17939TIP3   OH275231   2.376   5.439  13.710 -0.3321 -0.0875  0.2149
17939TIP3    H175232   2.397   5.471  13.798 -0.1673 -0.7767  0.4336
17939TIP3    H275233   2.416   5.352  13.706  1.0160  0.5530 -1.1063
17940TIP3   OH275234   0.349   1.800  13.898  0.0597  0.8007 -0.0552
17940TIP3    H175235   0.269   1.823  13.851  0.3516 -0.8260 -1.4622
17940TIP3    H275236   0.323   1.728  13.955  0.6945 -0.5070 -1.3463
17941TIP3   OH275237   4.009   1.752   0.900 -0.4669  0.2382 -0.4391
17941TIP3    H175238   4.087   1.786   0.856 -0.8329  0.1498 -1.1711
17941TIP3    H275239   3.947   1.734   0.829 -0.2396 -2.0905 -0.1396
17942TIP3   OH275240   3.809   2.517  15.432  0.1245 -0.0970 -0.4031
17942TIP3    H175241   3.749   2.515  15.507 -1.1796 -0.2472 -1.4052
17942TIP3    H275242   3.879   2.456  15.455 -0.1875 -0.0520  0.7343
17943TIP3   OH275243   2.869   6.113   5.555 -0.4936 -0.2255  0.7026
17943TIP3    H175244   2.835   6.200   5.535  0.4935  0.2255  0.9334
17943TIP3    H275245   2.963   6.126   5.572 -0.3447 -1.3127  0.8445
17944TIP3   OH275246   6.234   6.668   0.638 -0.1660  0.3295  0.1586
17944TIP3    H175247   6.154   6.682   0.688 -0.3759 -2.3666  0.7246
17944TIP3    H275248   6.284   6.604   0.689  1.8841  1.1291 -0.7181
17945TIP3   OH275249   4.936   5.835  13.157 -0.5195 -0.4670  0.7800
17945TIP3    H175250   4.898   5.763  13.207 -1.8403  0.4619  1.1704
17945TIP3    H275251   4.876   5.847  13.083  0.6959 -0.9605 -0.3243
17946TIP3   OH275252   2.885   1.165   3.045 -0.0381  0.4989  0.2239
17946TIP3    H175253   2.976   1.163   3.015 -0.9456 -0.0894 -2.9019
17946TIP3    H275254   2.862   1.073   3.060 -0.9850  0.2211 -2.3699
17947TIP3   OH275255   0.947   1.264   1.189  0.2115  0.2333  0.2772
17947TIP3    H175256   0.900   1.184   1.211 -0.6242  0.5490 -0.3151
17947TIP3    H275257   0.992   1.244   1.107  1.5950 -0.2447  1.1072
17948TIP3   OH275258   4.742   3.622   0.885  0.2217 -0.2043  0.0659
17948TIP3    H175259   4.730   3.647   0.794 -0.9213 -2.2227 -0.4001
17948TIP3    H275260   4.804   3.548   0.881 -0.7598 -1.0904  0.7695
17949TIP3   OH275261   5.795   0.571   2.141 -0.0524 -0.1989 -0.3836
17949TIP3    H175262   5.886   0.552   2.162  0.3578  1.4720 -0.4757
17949TIP3    H275263   5.760   0.611   2.221 -0.2888  0.4303 -0.7890
17950TIP3   OH275264   5.724   1.541  12.354 -0.0257  0.2166  0.3761
17950TIP3    H175265   5.740   1.608  12.288 -0.4051 -0.0787 -0.0174
17950TIP3    H275266   5.669   1.476  12.310  0.4081 -0.3946  0.7235
17951TIP3   OH275267   6.144   5.518   3.842  0.1042  0.0701 -0.3192
17951TIP3    H175268   6.058   5.513   3.884  0.0219 -0.6402 -0.5669
17951TIP3    H275269   6.194   5.448   3.883  1.1449  1.5428  1.0936
17952TIP3   OH275270   0.772   1.157  15.067  0.1483 -0.0778 -0.0891
17952TIP3    H175271   0.755   1.249  15.091 -1.2626 -0.3727  0.1198
17952TIP3    H275272   0.691   1.111  15.090  0.0645 -1.0198 -2.1017
17953TIP3   OH275273   6.108   4.707  12.786  0.0009  0.1287 -0.4153
17953TIP3    H175274   6.137   4.626  12.744  0.6685  0.7159 -1.1088
17953TIP3    H275275   6.189   4.750  12.813 -0.4196 -0.5610  2.1665
17954TIP3   OH275276   3.729   0.640  12.200 -0.2265 -0.1529  0.1813
17954TIP3    H175277   3.799   0.599  12.251 -0.2438  0.1010  0.4162
17954TIP3    H275278   3.658   0.653  12.263 -0.6626 -0.8275 -0.1640
17955TIP3   OH275279   3.098   3.995   6.203  0.0770  0.0203  0.3652
17955TIP3    H175280   3.149   4.060   6.251  0.0425 -0.1517  0.6363
17955TIP3    H275281   3.011   3.999   6.243 -0.1853  0.4635 -0.2365
17956TIP3   OH275282   5.115   1.005  14.584 -0.1224  0.4630 -0.1242
17956TIP3    H175283   5.160   1.010  14.500  1.6250  0.5300  0.7797
17956TIP3    H275284   5.128   1.092  14.623 -3.3386  1.4237 -0.9169
17957TIP3   OH275285   3.426   5.968   5.960  0.1632  0.1661 -0.9065
17957TIP3    H175286   3.346   6.019   5.960  0.6882  1.0320  0.0290
17957TIP3    H275287   3.397   5.876   5.958 -0.8241  0.4731 -1.0418
17958TIP3   OH275288   3.736   5.729   3.630  0.1333  0.3408 -0.5847
17958TIP3    H175289   3.712   5.789   3.701  1.3593  1.3819 -1.0052
17958TIP3    H275290   3.807   5.774   3.584 -1.0469 -0.0309 -2.8749
17959TIP3   OH275291   6.197   1.162   0.618  0.3954 -1.1255 -0.5377
17959TIP3    H175292   6.154   1.247   0.622  0.5062 -0.8771 -2.8523
17959TIP3    H275293   6.152   1.109   0.683  0.0910  0.5780  0.7096
17960TIP3   OH275294   0.448   3.962   4.103 -0.1183 -0.0014 -0.0124
17960TIP3    H175295   0.523   3.925   4.055  0.4146  2.0342 -0.8398
17960TIP3    H275296   0.375   3.956   4.041 -0.3438 -0.7617  0.3115
17961TIP3   OH275297   6.415   0.487  14.802  0.2161 -0.3249 -0.3366
17961TIP3    H175298   6.424   0.467  14.709 -1.5009 -1.3118 -0.3374
17961TIP3    H275299   6.324   0.513  14.813  0.1581 -1.0017  1.1866
17962TIP3   OH275300   5.678   2.425   5.433 -0.1113 -0.2572  0.1511
17962TIP3    H175301   5.662   2.452   5.523 -1.5048  0.0604 -0.1688
17962TIP3    H275302   5.652   2.501   5.380 -1.9167 -1.3810 -0.6522
17963TIP3   OH275303   2.446   0.596   3.306  0.5539 -0.0063 -0.2456
17963TIP3    H175304   2.447   0.515   3.358  0.5565  0.6930  0.8706
17963TIP3    H275305   2.355   0.627   3.312  0.6134  0.2127 -0.4632
17964TIP3   OH275306   4.221   3.095   0.138  0.2398 -0.2700 -0.0617
17964TIP3    H175307   4.173   3.121   0.060  1.4717  1.0035 -0.4322
17964TIP3    H275308   4.186   3.151   0.208 -0.6221 -1.1721  0.2548
17965TIP3   OH275309   5.866   6.054  12.269  0.0193 -0.3162  0.2980
17965TIP3    H175310   5.918   5.974  12.272 -0.5651 -0.8543 -1.8276
17965TIP3    H275311   5.870   6.082  12.177 -0.8324  1.3947  0.7249
17966TIP3   OH275312   0.725   3.429   1.835 -0.0719  0.7296  1.0145
17966TIP3    H175313   0.806   3.400   1.877 -0.5287 -1.6812  0.3854
17966TIP3    H275314   0.739   3.411   1.742 -1.2945  0.3135  0.8919
17967TIP3   OH275315   1.748   4.904   2.083  0.0958 -0.1809 -0.4286
17967TIP3    H175316   1.756   4.892   2.178 -1.1671 -0.5855 -0.3457
17967TIP3    H275317   1.828   4.866   2.047  0.1909 -0.8444  0.4294
17968TIP3   OH275318   2.567   1.061  13.700  0.2001  0.4206  0.5845
17968TIP3    H175319   2.538   0.996  13.766 -1.0415  0.9599  0.6029
17968TIP3    H275320   2.575   1.142  13.750  2.4683  0.1714  0.7104
17969TIP3   OH275321   0.983   6.230   6.891 -0.1452 -0.1745  0.1869
17969TIP3    H175322   1.024   6.143   6.890 -1.1518 -0.6624 -0.7733
17969TIP3    H275323   0.892   6.214   6.867 -0.1733  1.2300 -0.8131
17970TIP3   OH275324   1.464   1.995  13.312 -0.0177 -0.4188  0.6554
17970TIP3    H175325   1.541   2.022  13.261 -0.2675  0.1522  0.5720
17970TIP3    H275326   1.487   1.909  13.346 -0.4187 -1.5105 -1.6493
17971TIP3   OH275327   6.454   1.434   4.994 -0.0933  0.3145  0.2022
17971TIP3    H175328   6.477   1.422   4.902 -0.3054 -0.7338  0.2734
17971TIP3    H275329   6.471   1.527   5.011 -2.4291  1.1771 -1.5817
17972TIP3   OH275330   4.344   5.563   0.269  0.2356 -0.2159 -0.1035
17972TIP3    H175331   4.250   5.576   0.256  0.2137 -0.9190 -0.7170
17972TIP3    H275332   4.363   5.479   0.227  0.9354 -0.6206  0.9675
17973TIP3   OH275333   4.739   3.681  12.603  0.2185 -0.0462  0.4382
17973TIP3    H175334   4.653   3.717  12.582 -0.0832 -2.1275 -2.4215
17973TIP3    H275335   4.724   3.587  12.610  2.0138 -0.2877  1.5733
17974TIP3   OH275336   6.075   1.209  12.698 -0.2240 -0.1738  0.2361
17974TIP3    H175337   6.105   1.287  12.652 -0.8012  0.1794  0.4489
17974TIP3    H275338   6.007   1.173  12.640 -1.4026  0.6212  1.0837
17975TIP3   OH275339   1.432   3.991   3.235  0.1388 -0.0702  0.8350
17975TIP3    H175340   1.447   4.034   3.319 -0.6294 -0.1503  1.0188
17975TIP3    H275341   1.377   4.052   3.186  0.4590 -0.0902  0.4409
17976TIP3   OH275342   2.795   1.711   4.876  0.0370  0.6595 -0.0130
17976TIP3    H175343   2.748   1.790   4.847 -2.8598 -1.2315 -0.9322
17976TIP3    H275344   2.859   1.695   4.807 -0.8261  1.0617 -0.9463
17977TIP3   OH275345   3.522   4.905   2.067  0.3650  0.5612 -0.4928
17977TIP3    H175346   3.606   4.878   2.029  1.1074  1.6525  0.2867
17977TIP3    H275347   3.486   4.968   2.004  1.0399  1.4947  0.0301
17978TIP3   OH275348   6.537   2.649   2.794 -0.5337  0.2769  0.3900
17978TIP3    H175349   6.554   2.697   2.875  2.7303  0.7569 -0.3960
17978TIP3    H275350   6.561   2.559   2.814  1.4777  0.6139 -0.2598
17979TIP3   OH275351   5.890   4.243   4.312  0.8236  0.0095  0.0135
17979TIP3    H175352   5.875   4.317   4.253 -0.6666 -0.9699 -0.9069
17979TIP3    H275353   5.942   4.182   4.262 -0.6237 -0.9202 -0.4335
17980TIP3   OH275354   3.574   1.415  17.119  0.0992 -0.4299  0.5987
17980TIP3    H175355   3.628   1.426  17.197  0.1101 -0.2299  0.5631
17980TIP3    H275356   3.559   1.504  17.087 -0.5166 -0.4645  0.7847
17981TIP3   OH275357   0.457   2.039   3.460 -0.4038 -0.4325  0.4124
17981TIP3    H175358   0.403   1.987   3.400  1.2229 -1.4109 -0.2813
17981TIP3    H275359   0.488   2.112   3.406  0.6190 -1.0178  0.1727
17982TIP3   OH275360   6.300   4.163  16.765  0.0970 -0.0834 -1.0029
17982TIP3    H175361   6.290   4.258  16.758 -1.2469 -0.0861  0.3240
17982TIP3    H275362   6.227   4.127  16.715 -0.0026 -0.3898 -0.6434
17983TIP3   OH275363   2.682   4.766  15.131 -0.1046  0.1046  0.5380
17983TIP3    H175364   2.614   4.791  15.194  1.3190  0.6192  1.9170
17983TIP3    H275365   2.730   4.847  15.115 -0.5483  0.0334 -1.3978
17984TIP3   OH275366   5.901   6.766  15.251 -0.0594  0.4961 -0.0760
17984TIP3    H175367   5.929   6.757  15.342  0.4108  0.1936 -0.2399
17984TIP3    H275368   5.970   6.818  15.210  0.3246 -0.3176 -0.5044
17985TIP3   OH275369   0.547   4.290  14.463  0.2244 -0.1967 -0.0396
17985TIP3    H175370   0.498   4.334  14.533 -0.4766 -1.8062  0.5333
17985TIP3    H275371   0.639   4.313  14.480 -0.1536  1.7158 -0.2984
17986TIP3   OH275372   0.915   3.835   1.341  0.1610 -0.3845 -0.2075
17986TIP3    H175373   0.854   3.845   1.267  2.4999 -0.9639 -2.3517
17986TIP3    H275374   0.952   3.923   1.352 -1.0093 -0.0179  1.1407
17987TIP3   OH275375   3.273   6.706  13.422 -0.3938  0.2525  0.2905
17987TIP3    H175376   3.204   6.685  13.359 -0.4077  0.3985  0.2557
17987TIP3    H275377   3.276   6.802  13.423  0.2096  0.2473 -0.1489
17988TIP3   OH275378   1.219   4.091  15.085  0.2829  0.4832  0.1900
17988TIP3    H175379   1.277   4.126  15.153  0.2219  1.9341 -0.4656
17988TIP3    H275380   1.194   4.005  15.117  1.5077  0.4900  1.2606
17989TIP3   OH275381   4.778   0.127   3.372 -0.5409 -0.3848 -0.1875
17989TIP3    H175382   4.730   0.167   3.444 -0.1227 -0.1769 -0.0214
17989TIP3    H275383   4.724   0.052   3.346 -1.4883  0.4445 -0.6963
17990TIP3   OH275384   4.652   6.378   4.891  0.2843  0.1149  0.3078
17990TIP3    H175385   4.577   6.430   4.919 -0.6888 -1.3289  0.4770
17990TIP3    H275386   4.616   6.292   4.872  2.1036 -1.0569  1.7928
17991TIP3   OH275387   0.585   5.462  12.666 -0.3642 -0.1975 -0.1049
17991TIP3    H175388   0.652   5.507  12.613  1.4589 -1.9086  0.6042
17991TIP3    H275389   0.595   5.369  12.642 -0.3419 -0.8707  2.2501
17992TIP3   OH275390   6.456   1.769  15.645  0.3431  0.2021  0.6273
17992TIP3    H175391   6.470   1.676  15.661 -3.1010 -0.3300  1.2865
17992TIP3    H275392   6.468   1.779  15.550  1.5605 -0.6705  0.6610
17993TIP3   OH275393   6.577   6.367  14.057 -0.2064 -0.3272  0.5515
17993TIP3    H175394   6.628   6.400  14.132  0.8856  0.6772 -0.5935
17993TIP3    H275395   6.487   6.388  14.079  0.0351 -0.4841  1.7979
17994TIP3   OH275396   3.017   6.381  12.106  0.3753  0.4428 -0.1224
17994TIP3    H175397   3.098   6.349  12.065  0.2193  1.3938 -1.2215
17994TIP3    H275398   3.036   6.381  12.200  0.8238 -1.5933 -0.1668
17995TIP3   OH275399   4.473   1.894   0.526 -0.4845 -0.0172  0.2339
17995TIP3    H175400   4.432   1.979   0.515 -1.5920 -0.2624  2.0692
17995TIP3    H275401   4.500   1.868   0.438  1.5590  2.9999 -0.1661
17996TIP3   OH275402   1.857   2.674  15.195 -0.5073 -0.4664 -0.3131
17996TIP3    H175403   1.780   2.721  15.227 -0.6839 -0.0099 -1.3763
17996TIP3    H275404   1.831   2.639  15.110 -0.0932 -1.7861  0.0830
17997TIP3   OH275405   6.189   5.140  13.240 -0.4489 -0.4731  0.1151
17997TIP3    H175406   6.173   5.048  13.262  0.7609 -0.6733  0.2072
17997TIP3    H275407   6.108   5.185  13.266 -1.7441 -1.7468 -1.5337
17998TIP3   OH275408   4.065   2.540   5.559 -0.2785  0.6342 -0.2291
17998TIP3    H175409   4.021   2.536   5.645 -2.6076  1.5249 -1.2902
17998TIP3    H275410   4.103   2.627   5.556 -1.2414  1.0609 -0.5335
17999TIP3   OH275411   5.296   3.535  13.036  0.0607 -0.5284 -0.1645
17999TIP3    H175412   5.287   3.573  13.124  0.0300  0.6494 -0.6592
17999TIP3    H275413   5.383   3.563  13.007 -0.6797  0.7732 -1.2593
18000TIP3   OH275414   4.914   6.240  13.529  0.2389  0.2947 -0.2687
18000TIP3    H175415   4.912   6.188  13.449 -0.5312 -1.1670  0.6581
18000TIP3    H275416   4.932   6.330  13.500  0.2743 -0.2648 -2.0289
18001TIP3   OH275417   0.341   2.467   3.816 -0.4524 -0.5656  0.0808
18001TIP3    H175418   0.306   2.412   3.886  1.6141 -1.0406  0.7885
18001TIP3    H275419   0.351   2.553   3.857  0.3626 -0.7389  0.2461
18002TIP3   OH275420   0.810   2.005  16.469 -0.1785  0.1298  0.0275
18002TIP3    H175421   0.837   1.916  16.488 -0.0389 -0.0157 -0.8472
18002TIP3    H275422   0.737   2.021  16.529  1.0119  0.1054  1.5324
18003TIP3   OH275423   3.758   3.435   5.808  0.7502  0.1686 -0.3675
18003TIP3    H175424   3.752   3.500   5.878 -0.0564  0.4068 -0.6443
18003TIP3    H275425   3.697   3.366   5.834  2.4896 -1.1062  0.5370
18004TIP3   OH275426   4.393   5.762  14.059 -0.1252  0.2819  0.3382
18004TIP3    H175427   4.379   5.760  13.964 -0.8590  0.8466  0.4272
18004TIP3    H275428   4.334   5.830  14.090  0.5632  0.5293  1.1329
18005TIP3   OH275429   5.912   6.594  16.837 -0.0820  0.4735 -0.6211
18005TIP3    H175430   5.999   6.570  16.868 -1.0582 -1.8510  0.5987
18005TIP3    H275431   5.892   6.676  16.881  0.8370  0.1406  0.4462
18006TIP3   OH275432   3.418   2.158   0.090 -0.2662 -0.5767 -0.2740
18006TIP3    H175433   3.505   2.195   0.080  0.1063 -1.2965  0.2148
18006TIP3    H275434   3.411   2.138   0.183  0.9002 -4.8598 -0.8802
18007TIP3   OH275435   2.211   3.061   1.378 -0.6083 -0.0158  0.2756
18007TIP3    H175436   2.128   3.094   1.412 -0.1338  2.0927 -0.4609
18007TIP3    H275437   2.196   3.053   1.284 -0.0917  0.0855  0.1824
18008TIP3   OH275438   2.207   4.285   3.947 -0.0317  0.5267  0.1632
18008TIP3    H175439   2.227   4.195   3.922 -0.7648  0.6624 -0.9931
18008TIP3    H275440   2.272   4.338   3.901 -1.2171  0.7589 -1.3038
18009TIP3   OH275441   4.708   2.727  15.837 -0.3997 -0.4053 -0.0366
18009TIP3    H175442   4.746   2.671  15.904  1.0440 -1.5647 -1.7411
18009TIP3    H275443   4.783   2.769  15.795 -1.1535 -0.6116 -1.6865
18010TIP3   OH275444   2.096   4.959   1.138 -0.2010 -0.0330  0.1798
18010TIP3    H175445   2.029   4.898   1.107 -0.2258 -0.3903  0.9246
18010TIP3    H275446   2.102   5.026   1.069 -1.3440  0.0238  0.1284
18011TIP3   OH275447   2.615   5.151  13.997 -0.6236 -0.5036 -0.5110
18011TIP3    H175448   2.697   5.107  13.978  0.2208  0.3621  1.0265
18011TIP3    H275449   2.612   5.158  14.092 -1.5481  1.1889 -0.6264
18012TIP3   OH275450   0.273   4.290   2.907 -0.0211  0.9200 -0.7803
18012TIP3    H175451   0.249   4.199   2.891 -1.5282  1.2374 -0.4585
18012TIP3    H275452   0.320   4.289   2.990  2.1198  0.1452 -1.9244
18013TIP3   OH275453   6.457   3.055   0.545 -0.9162  0.3427 -0.4120
18013TIP3    H175454   6.484   3.010   0.465 -0.3433 -0.3974  0.1855
18013TIP3    H275455   6.363   3.039   0.551 -1.1736  1.2947 -1.4816
18014TIP3   OH275456   5.374   2.318   3.935 -0.4943 -0.2245 -0.0934
18014TIP3    H175457   5.459   2.277   3.948  0.4452  1.3471 -0.8613
18014TIP3    H275458   5.310   2.251   3.960  0.9487 -0.7188  2.6578
18015TIP3   OH275459   5.835   2.646   3.142 -0.6868 -0.1918 -0.0180
18015TIP3    H175460   5.805   2.700   3.215  0.2492 -1.4579  1.3532
18015TIP3    H275461   5.812   2.557   3.167 -2.1252 -0.5309 -2.1948
18016TIP3   OH275462   1.567   3.329   6.061 -0.4617 -0.4971 -0.0819
18016TIP3    H175463   1.537   3.245   6.027  0.6879 -0.8116 -0.3646
18016TIP3    H275464   1.641   3.306   6.117 -2.5208 -0.0831  3.1241
18017TIP3   OH275465   1.079   1.676   3.920 -1.1346  0.0450  0.4671
18017TIP3    H175466   1.001   1.659   3.867 -0.7273  1.2061 -0.5645
18017TIP3    H275467   1.137   1.726   3.861 -0.7479  1.5808  2.0702
18018TIP3   OH275468   6.321   3.717   2.370 -0.3943 -0.0576  0.1153
18018TIP3    H175469   6.285   3.697   2.456  1.2973 -1.2941  0.6057
18018TIP3    H275470   6.247   3.750   2.319 -2.1025 -2.0794  1.1401
18019TIP3   OH275471   5.447   3.524  11.632  0.3673 -0.0941 -0.2643
18019TIP3    H175472   5.415   3.562  11.551 -1.3194  0.6493  0.6897
18019TIP3    H275473   5.367   3.500  11.680  1.3403 -1.3947  0.7634
18020TIP3   OH275474   5.162   3.362  14.953  0.0031 -0.4446 -0.5335
18020TIP3    H175475   5.179   3.383  15.045 -3.1555  0.3196  0.0001
18020TIP3    H275476   5.072   3.391  14.938 -0.4154 -2.6768 -3.2239
18021TIP3   OH275477   3.076   2.007  11.769  0.2640  0.3302  0.0916
18021TIP3    H175478   3.105   2.096  11.791  0.4320  0.0509  1.0590
18021TIP3    H275479   3.135   1.979  11.699 -1.3812  1.8932 -2.0389
18022TIP3   OH275480   3.959   4.804  13.679 -0.1440 -0.5725  0.7367
18022TIP3    H175481   4.046   4.800  13.639  0.1898  1.4161  1.1543
18022TIP3    H275482   3.921   4.718  13.661  1.5611 -1.1937 -0.2125
18023TIP3   OH275483   5.861   0.913   4.683  0.2152 -0.7405  0.0051
18023TIP3    H175484   5.909   0.853   4.739 -0.4176 -2.5912 -1.3192
18023TIP3    H275485   5.889   0.891   4.594  1.4844  2.3631 -0.4853
18024TIP3   OH275486   5.980   5.611   0.094  0.6781 -0.2041 -0.0976
18024TIP3    H175487   5.896   5.584   0.056  0.5033  0.5809 -0.2875
18024TIP3    H275488   6.031   5.642   0.020  0.3517  1.2987  0.2813
18025TIP3   OH275489   5.598   1.148  16.295  0.2626  0.0899 -0.4904
18025TIP3    H175490   5.651   1.221  16.326  2.1374 -1.5243  0.2879
18025TIP3    H275491   5.661   1.085  16.260 -1.2954 -1.1250 -1.2755
18026TIP3   OH275492   2.296   6.378   5.432  0.1133  0.2900 -0.3420
18026TIP3    H175493   2.283   6.294   5.388  1.8202  0.1058 -0.5557
18026TIP3    H275494   2.328   6.436   5.363 -1.7876  1.3809 -0.3804
18027TIP3   OH275495   5.324   5.140  12.977  0.3874 -0.7995  0.1171
18027TIP3    H175496   5.407   5.176  13.008  0.8297 -1.7846  0.1147
18027TIP3    H275497   5.259   5.208  12.998  1.3277  0.4416 -0.8171
18028TIP3   OH275498   1.539   0.041   5.272  0.1381 -0.2024 -0.5336
18028TIP3    H175499   1.461  -0.003   5.306 -0.0687  1.0812  0.7270
18028TIP3    H275500   1.548   0.119   5.326  2.8248 -0.7476 -0.0818
18029TIP3   OH275501   4.490   1.591  15.511  0.6786 -0.3227  0.2031
18029TIP3    H175502   4.428   1.518  15.522 -0.0591  0.2565 -0.0541
18029TIP3    H275503   4.519   1.611  15.600  0.8026 -0.8485  0.2889
18030TIP3   OH275504   3.917   4.532   4.175 -0.1663  0.5253 -0.1695
18030TIP3    H175505   3.917   4.520   4.080  3.3936  0.9720 -0.3901
18030TIP3    H275506   3.949   4.622   4.188  0.3353  0.1540  1.4190
18031TIP3   OH275507   3.670   1.547  10.426 -0.2177 -0.4199  0.2664
18031TIP3    H175508   3.596   1.496  10.393 -0.4365  0.1232 -0.1029
18031TIP3    H275509   3.648   1.638  10.404  1.0206 -0.3473 -0.7243
18032TIP3   OH275510   1.312   3.485   4.861 -0.2042 -0.0518 -0.5378
18032TIP3    H175511   1.354   3.402   4.837 -2.7240 -2.0349  1.3348
18032TIP3    H275512   1.250   3.461   4.930  0.5281  3.8077  1.7680
18033TIP3   OH275513   2.699   2.586  16.622  0.9017  0.5241 -0.0065
18033TIP3    H175514   2.621   2.578  16.568  1.3263 -1.0647 -0.4435
18033TIP3    H275515   2.769   2.547  16.569  1.9589  1.7034  0.4665
18034TIP3   OH275516   1.046   1.331  15.326  0.3937  0.2226 -1.0138
18034TIP3    H175517   1.133   1.292  15.315  0.6786  1.1630 -2.3036
18034TIP3    H275518   1.051   1.415  15.281 -0.5674  1.2459  0.6888
18035TIP3   OH275519   6.018   0.730  14.434 -0.7093  0.3811 -0.2638
18035TIP3    H175520   6.101   0.711  14.388 -0.4735 -0.7794  0.5888
18035TIP3    H275521   6.040   0.802  14.493  0.6551 -1.9849  2.3284
18036TIP3   OH275522   6.730   1.098   4.359 -0.2476 -0.0407  0.0278
18036TIP3    H175523   6.760   1.068   4.273  1.8366  1.4617  0.1382
18036TIP3    H275524   6.751   1.026   4.418  3.5895  0.8854  0.0990
18037TIP3   OH275525   5.203   1.960  15.324 -0.2394 -0.0041  0.2370
18037TIP3    H175526   5.182   1.897  15.256 -0.9413  0.1902  0.2687
18037TIP3    H275527   5.227   1.907  15.400  0.9711 -0.2212 -0.2734
18038TIP3   OH275528   4.410   6.194   4.918 -0.2167 -0.4669  0.5060
18038TIP3    H175529   4.374   6.106   4.904 -1.4848 -0.0344  0.8488
18038TIP3    H275530   4.402   6.237   4.833 -1.7420  0.0230  0.8518
18039TIP3   OH275531   5.390   6.356  12.726 -0.4178  0.2551  0.0606
18039TIP3    H175532   5.478   6.387  12.751  0.0986 -0.4316 -0.8383
18039TIP3    H275533   5.401   6.261  12.716 -1.4323  0.0739  0.5684
18040TIP3   OH275534   6.482   6.762  16.454 -0.4660  0.7750 -0.3753
18040TIP3    H175535   6.555   6.768  16.393  0.6190  0.6796  0.8739
18040TIP3    H275536   6.507   6.691  16.514  0.0471  2.9375  2.1233
18041TIP3   OH275537   5.465   5.060  16.369 -0.5021  0.1260  0.1809
18041TIP3    H175538   5.549   5.086  16.332  0.0738  0.2348  1.5266
18041TIP3    H275539   5.443   5.129  16.432 -0.7929 -0.7185  1.0396
18042TIP3   OH275540   6.547   0.643   5.736 -0.7251  0.3750 -0.3750
18042TIP3    H175541   6.615   0.704   5.765 -0.0387 -0.5316 -0.0448
18042TIP3    H275542   6.477   0.653   5.801 -0.4367  0.4978 -0.0798
18043TIP3   OH275543   3.378   6.795  13.860  0.0723 -0.0464 -0.2696
18043TIP3    H175544   3.432   6.854  13.807  0.5430 -0.4475 -0.2478
18043TIP3    H275545   3.428   6.714  13.863 -0.8380 -0.6474 -0.7931
18044TIP3   OH275546   4.091   3.077  16.191 -0.5510  0.0406 -0.4262
18044TIP3    H175547   4.177   3.036  16.193  0.6239  2.2814  2.5892
18044TIP3    H275548   4.031   3.005  16.172  1.6231 -2.4825  1.3802
18045TIP3   OH275549   3.375   4.173   2.074  0.5765  0.2388  0.5695
18045TIP3    H175550   3.469   4.180   2.089  0.8122  0.6506 -0.9602
18045TIP3    H275551   3.352   4.087   2.109  1.9346 -0.7913 -0.9198
18046TIP3   OH275552   0.662   3.581  13.061  0.3927 -0.2224 -0.2067
18046TIP3    H175553   0.734   3.553  13.119  0.3478 -0.4922 -0.2821
18046TIP3    H275554   0.587   3.529  13.090  0.6742 -1.3012 -1.3392
18047TIP3   OH275555   3.875   4.540   4.594  0.5686  0.1400 -0.0974
18047TIP3    H175556   3.947   4.502   4.644 -0.8515  0.6657  2.5462
18047TIP3    H275557   3.884   4.634   4.608 -0.1798  0.2581 -0.3828
18048TIP3   OH275558   1.625   6.381  12.346  0.1655  0.2958  0.1552
18048TIP3    H175559   1.623   6.464  12.298  2.8358 -0.7880 -2.1028
18048TIP3    H275560   1.710   6.381  12.390 -0.4966 -0.5686  1.4976
18049TIP3   OH275561   5.090   1.267  11.017  0.8538  0.4705  0.0489
18049TIP3    H175562   5.000   1.299  11.009  1.0904  1.1976  0.2369
18049TIP3    H275563   5.144   1.345  11.005  1.4170  0.3652  1.7329
18050TIP3   OH275564   5.871   0.082  16.285  0.3315  0.2709 -0.0589
18050TIP3    H175565   5.915  -0.002  16.275  0.7597  0.4944 -0.1101
18050TIP3    H275566   5.943   0.145  16.298 -0.0118  0.5432  0.5637
18051TIP3   OH275567   4.674   1.550  16.378 -0.2557  0.3331  0.0333
18051TIP3    H175568   4.722   1.613  16.433  0.4204  0.5007 -0.7225
18051TIP3    H275569   4.634   1.604  16.310 -1.4634  0.1774  0.6107
18052TIP3   OH275570   2.975   0.378   0.070 -0.5415 -0.8319 -0.1302
18052TIP3    H175571   3.069   0.371   0.085 -0.7920  0.0336  2.2477
18052TIP3    H275572   2.948   0.291   0.041  0.5482 -1.9624  2.0477
18053TIP3   OH275573   2.380   4.627   4.207 -0.8147  0.1940 -0.1236
18053TIP3    H175574   2.463   4.585   4.182 -0.5733 -0.9199  2.2244
18053TIP3    H275575   2.315   4.558   4.201 -1.1125  0.4306  0.3034
18054TIP3   OH275576   6.022   4.523  16.764 -0.5425  0.0143 -0.1533
18054TIP3    H175577   5.942   4.554  16.805  0.4109  0.2817  1.6241
18054TIP3    H275578   6.085   4.594  16.777  0.3766 -0.7525 -0.2449
18055TIP3   OH275579   2.489   0.627   0.960 -0.2992 -0.4894  0.1648
18055TIP3    H175580   2.532   0.698   0.911  0.4995  0.9967  2.8292
18055TIP3    H275581   2.404   0.662   0.985 -0.4461 -0.9963  0.3970
18056TIP3   OH275582   0.887   5.481  14.462  0.1821 -0.6363 -0.3407
18056TIP3    H175583   0.807   5.513  14.504  0.9225  1.0258 -0.0710
18056TIP3    H275584   0.893   5.389  14.487 -0.8713 -0.3983  0.8906
18057TIP3   OH275585   4.394   2.728   0.661 -0.3365 -0.5051  0.3475
18057TIP3    H175586   4.454   2.685   0.600  0.5460  1.8169 -0.5220
18057TIP3    H275587   4.397   2.673   0.740  4.2393  0.2588  0.9717
18058TIP3   OH275588   2.387   4.913   0.806 -0.3475  0.0617  0.8450
18058TIP3    H175589   2.382   4.837   0.863 -0.9544  1.0252  2.1109
18058TIP3    H275590   2.319   4.972   0.838 -1.6997  0.0579 -1.7855
18059TIP3   OH275591   3.782   0.342   4.615 -0.1255  0.1680  0.2812
18059TIP3    H175592   3.876   0.337   4.598 -0.1519  1.0949 -0.1869
18059TIP3    H275593   3.742   0.293   4.543 -0.0333  0.3608  0.0985
18060TIP3   OH275594   3.071   0.339   2.999  0.2483 -0.2297 -0.4677
18060TIP3    H175595   3.061   0.267   3.061 -0.9492  0.6355  0.3703
18060TIP3    H275596   3.127   0.303   2.930  1.5245 -1.2327  1.0393
18061TIP3   OH275597   0.266   3.386  13.399 -0.0469  0.0461  0.0204
18061TIP3    H175598   0.275   3.391  13.494 -0.4168  0.8959  0.0224
18061TIP3    H275599   0.229   3.299  13.383 -2.3345  0.7856  0.8724
18062TIP3   OH275600   5.992   3.591   5.669 -0.1976 -0.6246 -0.0874
18062TIP3    H175601   5.975   3.682   5.645 -1.4390 -1.1956 -1.5216
18062TIP3    H275602   6.044   3.597   5.749  0.0948  1.3390 -0.3689
18063TIP3   OH275603   5.617   4.235  13.118  0.2689  0.3663 -0.3958
18063TIP3    H175604   5.639   4.204  13.206 -0.9420 -0.1470 -0.2420
18063TIP3    H275605   5.678   4.189  13.060  1.2212  0.8758  0.1870
18064TIP3   OH275606   5.005   3.334   4.262  0.1682  0.0990 -0.2375
18064TIP3    H175607   4.939   3.369   4.321 -0.1028 -1.2285  0.3001
18064TIP3    H275608   5.069   3.293   4.319  2.3215  2.6548 -0.6675
18065TIP3   OH275609   3.928   6.619  11.886  0.5289 -0.4303  0.2202
18065TIP3    H175610   4.018   6.650  11.877  0.1413  1.2974  1.6016
18065TIP3    H275611   3.876   6.685  11.841 -0.1922 -0.0583  1.5320
18066TIP3   OH275612   6.216   3.996  11.834  0.0322 -0.2580  0.1407
18066TIP3    H175613   6.143   4.030  11.886  1.1633  3.1185 -0.2372
18066TIP3    H275614   6.182   3.995  11.744  0.7314  2.8518 -0.2896
18067TIP3   OH275615   3.051   2.721   3.686  0.6358  0.1882  0.2086
18067TIP3    H175616   3.013   2.711   3.599  0.7065  1.3590  0.0305
18067TIP3    H275617   3.144   2.736   3.670  1.2096 -2.4149  0.6309
18068TIP3   OH275618   4.819   1.945   2.993  0.4274 -0.1209 -0.3146
18068TIP3    H175619   4.729   1.970   2.971  0.3246 -0.5274 -0.3604
18068TIP3    H275620   4.827   1.855   2.962 -0.2000 -1.2898  2.6286
18069TIP3   OH275621   0.822   6.604  15.326  0.3979 -0.3844 -0.4287
18069TIP3    H175622   0.856   6.525  15.367 -2.6519 -0.1653  3.0630
18069TIP3    H275623   0.786   6.574  15.243 -0.2292 -2.6031  0.5712
18070TIP3   OH275624   3.267   1.676  12.060 -0.5166 -0.2569 -0.0048
18070TIP3    H175625   3.286   1.620  12.135 -1.5392  2.2064  2.2359
18070TIP3    H275626   3.204   1.625  12.008 -0.3813 -1.7152  1.1880
18071TIP3   OH275627   3.987   3.337   1.463  0.0805 -0.3307 -0.0786
18071TIP3    H175628   3.978   3.432   1.473  1.7270 -0.0799 -0.6558
18071TIP3    H275629   3.901   3.308   1.433 -0.7502  0.8232  1.0553
18072TIP3   OH275630   1.619   0.219   4.988  0.2474  0.2219 -0.0781
18072TIP3    H175631   1.664   0.229   5.072  1.4261  2.5871 -0.8778
18072TIP3    H275632   1.530   0.249   5.004 -0.5131 -2.3667  1.0014
18073TIP3   OH275633   2.668   4.351  14.500  0.1201  0.2363  0.5494
18073TIP3    H175634   2.612   4.327  14.574 -0.6238  0.0417 -0.0784
18073TIP3    H275635   2.634   4.302  14.426  2.9773 -2.3631  0.7370
18074TIP3   OH275636   6.076   1.842  14.939  0.0455  0.0282  0.0130
18074TIP3    H175637   6.012   1.773  14.926 -0.9052  0.3845  2.3536
18074TIP3    H275638   6.060   1.874  15.028  4.0866 -0.5143  1.1569
18075TIP3   OH275639   2.507   1.263   3.937 -0.5413 -0.0323 -0.9714
18075TIP3    H175640   2.472   1.207   3.869  0.5413 -1.0109 -0.7552
18075TIP3    H275641   2.598   1.235   3.947 -0.7035  0.0097  0.9548
18076TIP3   OH275642   2.889   4.454  11.605  0.2276  0.7307  0.5822
18076TIP3    H175643   2.801   4.463  11.640 -0.0049  0.8515 -0.0227
18076TIP3    H275644   2.931   4.538  11.623 -0.3522  1.3070 -0.6840
18077TIP3   OH275645   3.809   5.809   0.715  0.1198 -0.1066 -0.1265
18077TIP3    H175646   3.790   5.832   0.807 -0.4575  0.0577 -0.2813
18077TIP3    H275647   3.896   5.770   0.718  0.3124  0.3364  0.4290
18078TIP3   OH275648   6.722   2.127   3.861 -1.0145 -0.0890  0.1774
18078TIP3    H175649   6.817   2.139   3.851 -0.4474 -2.0054  2.4341
18078TIP3    H275650   6.689   2.215   3.880  0.7982  0.2458  2.1681
18079TIP3   OH275651   2.219   3.631  13.487  0.1312  0.1806  0.1779
18079TIP3    H175652   2.191   3.602  13.400  0.2358 -2.6341  1.0025
18079TIP3    H275653   2.290   3.693  13.470 -0.2563  0.1589 -1.7262
18080TIP3   OH275654   2.133   0.531   0.008 -0.0287  0.0108 -0.3322
18080TIP3    H175655   2.158   0.439  -0.002  2.9213  0.8109 -1.3827
18080TIP3    H275656   2.128   0.564  -0.082 -3.1900  0.4536 -0.0795
18081TIP3   OH275657   1.802   3.917   0.295 -0.6040  0.4076 -0.3028
18081TIP3    H175658   1.838   3.950   0.378 -1.5473 -0.5571  0.5145
18081TIP3    H275659   1.878   3.901   0.241  0.0885  0.2546  0.6864
18082TIP3   OH275660   6.047   0.694   5.528  0.0770  0.3685 -0.3096
18082TIP3    H175661   6.116   0.643   5.571  0.2358  2.0900  1.5891
18082TIP3    H275662   6.084   0.781   5.518 -1.9619  1.5032  1.2878
18083TIP3   OH275663   6.479   6.181  15.737  0.1642  0.8896  0.3867
18083TIP3    H175664   6.573   6.193  15.722  0.2344 -0.8459 -0.8744
18083TIP3    H275665   6.442   6.172  15.649 -0.8375 -0.6136  0.9203
18084TIP3   OH275666   4.576   1.998   5.882  0.2280 -0.1021  0.2991
18084TIP3    H175667   4.565   2.063   5.812 -0.6754  0.1620  0.6655
18084TIP3    H275668   4.527   1.922   5.852 -0.3624  0.0982  0.7462
18085TIP3   OH275669   3.613   0.012   6.037  0.5973  0.1800  0.2943
18085TIP3    H175670   3.538  -0.038   6.006  0.4002  0.9580 -0.5269
18085TIP3    H275671   3.689  -0.034   6.000  0.4179  0.4584 -0.4497
18086TIP3   OH275672   1.879   1.026   4.496  0.4053 -0.0851 -0.4409
18086TIP3    H175673   1.951   0.965   4.485 -0.1707 -1.3081  1.8260
18086TIP3    H275674   1.915   1.112   4.473  1.9144 -0.9591 -1.4285
18087TIP3   OH275675   4.727   3.558  13.811  0.5290 -0.5293 -0.2501
18087TIP3    H175676   4.742   3.464  13.805  2.0604 -0.5311  2.0378
18087TIP3    H275677   4.807   3.597  13.777  1.2023 -0.2068  1.5508
18088TIP3   OH275678   6.081   4.205  11.126  0.3639  0.0787  0.2615
18088TIP3    H175679   6.064   4.299  11.120 -1.8408 -0.3549 -1.0361
18088TIP3    H275680   6.140   4.197  11.202  2.6371  2.6911 -1.0423
18089TIP3   OH275681   6.410   6.789  14.726 -0.0543 -0.2737 -0.1568
18089TIP3    H175682   6.431   6.763  14.815 -0.9524  0.5349  0.3192
18089TIP3    H275683   6.489   6.770  14.676  0.7469 -0.0158  0.9657
18090TIP3   OH275684   5.553   3.095  16.911  0.2172  0.3758  0.3005
18090TIP3    H175685   5.524   3.163  16.972  1.4916 -0.2944  1.7233
18090TIP3    H275686   5.647   3.084  16.931  0.0216 -1.8594  0.1977
18091TIP3   OH275687   3.786   6.233  13.956 -0.5548 -0.3377  0.3120
18091TIP3    H175688   3.692   6.228  13.973 -0.6410 -2.8743 -0.4775
18091TIP3    H275689   3.795   6.210  13.864  0.6445  3.5344 -0.6982
18092TIP3   OH275690   2.002   1.435   4.126  0.0711  0.4755 -0.2373
18092TIP3    H175691   1.917   1.414   4.088  0.4193  0.3814 -0.9761
18092TIP3    H275692   2.047   1.351   4.136 -0.9747  0.1356  2.8553
18093TIP3   OH275693   1.042   2.608  11.186 -0.5731  0.6280  0.5131
18093TIP3    H175694   1.002   2.594  11.100 -1.1608  0.7866  0.7516
18093TIP3    H275695   1.086   2.525  11.205  1.5844  1.3623 -0.9588
18094TIP3   OH275696   4.317   1.210  14.677  0.4465 -0.3691 -0.2786
18094TIP3    H175697   4.268   1.166  14.747 -0.2868 -0.2478 -0.7018
18094TIP3    H275698   4.402   1.168  14.677  0.7603  0.1767  1.2380
18095TIP3   OH275699   0.997   0.872   0.891  0.7151  0.0915  0.4558
18095TIP3    H175700   0.946   0.798   0.925  0.6274 -0.4031 -0.7049
18095TIP3    H275701   0.955   0.894   0.809  1.6972  0.4026  0.0218
18096TIP3   OH275702   6.082   6.687   3.391 -0.1073 -0.2652 -0.2782
18096TIP3    H175703   6.093   6.599   3.426  5.2274 -0.6972 -2.0416
18096TIP3    H275704   6.109   6.745   3.463 -0.0055 -0.3309 -0.2638
18097TIP3   OH275705   5.333   3.589  11.395 -0.3401  0.2003 -0.3775
18097TIP3    H175706   5.318   3.667  11.342 -1.3566  0.6824  0.5706
18097TIP3    H275707   5.274   3.523  11.357 -0.9415  0.4930  0.0383
18098TIP3   OH275708   5.904   2.768   2.076 -0.4028 -0.0834 -0.2465
18098TIP3    H175709   5.887   2.837   2.013 -0.6894  0.9819  0.9532
18098TIP3    H275710   5.969   2.805   2.136 -0.0123 -1.1224  0.0106
18099TIP3   OH275711   0.142   5.002  11.536  0.3548 -0.0372  0.3216
18099TIP3    H175712   0.236   4.982  11.535  0.3956  0.1575  0.2796
18099TIP3    H275713   0.104   4.937  11.476  0.4216 -0.3100  0.5698
18100TIP3   OH275714   5.396   2.957  11.587 -0.1729 -0.4357  0.2688
18100TIP3    H175715   5.479   2.909  11.586 -0.1601 -0.4504 -1.4058
18100TIP3    H275716   5.420   3.047  11.565 -0.7315 -0.7853 -2.0321
18101TIP3   OH275717   0.701   4.807  12.831 -0.2368 -0.2640 -0.1770
18101TIP3    H175718   0.617   4.780  12.869 -0.4431 -1.1019 -1.1929
18101TIP3    H275719   0.760   4.735  12.850  0.6960  0.9406  1.8192
18102TIP3   OH275720   0.851   4.047  12.845  0.7103  0.7704 -0.5959
18102TIP3    H175721   0.915   4.059  12.775  1.9262 -2.5845 -0.2325
18102TIP3    H275722   0.902   4.049  12.926  0.0345  0.1260 -0.1389
18103TIP3   OH275723   3.941   3.612  11.430 -0.0516 -0.2163 -0.5319
18103TIP3    H175724   4.005   3.559  11.383  0.4458  1.2095 -1.5105
18103TIP3    H275725   3.886   3.650  11.361  0.1458  1.2119  0.0721
18104TIP3   OH275726   6.590   3.862  13.398 -0.2638  0.5347  0.1332
18104TIP3    H175727   6.684   3.842  13.400 -0.4821 -0.4916  0.6149
18104TIP3    H275728   6.551   3.800  13.459 -1.1482  1.6009  0.6938
18105TIP3   OH275729   1.437   1.696  11.873  0.0633  0.2869 -0.1037
18105TIP3    H175730   1.373   1.716  11.942  0.6407  0.3269  0.4355
18105TIP3    H275731   1.422   1.604  11.853 -0.2366  0.3246 -0.0588
18106TIP3   OH275732   0.684   2.762   6.467 -0.7366  0.3938 -0.0123
18106TIP3    H175733   0.656   2.671   6.471 -3.7123  1.2172  3.0924
18106TIP3    H275734   0.603   2.812   6.482  0.6361  3.6339 -2.1967
18107TIP3   OH275735   6.276   3.864  11.219  0.1129 -0.3665 -0.1781
18107TIP3    H175736   6.356   3.916  11.228  0.3739 -1.0039  1.7804
18107TIP3    H275737   6.273   3.810  11.299 -2.9939  0.6319  0.5272
18108TIP3   OH275738   0.879   4.184  13.515  0.3031  0.0383 -0.3796
18108TIP3    H175739   0.908   4.268  13.549  0.0078  0.1228 -0.3299
18108TIP3    H275740   0.939   4.165  13.443  0.5118  0.1821 -0.2432
18109TIP3   OH275741   2.865   6.499   6.214  0.3803 -0.1733 -0.0839
18109TIP3    H175742   2.851   6.565   6.146  0.0147 -0.2907 -0.1291
18109TIP3    H275743   2.776   6.471   6.238  0.4678  0.4873  1.0491
18110TIP3   OH275744   5.048   3.343   0.233 -0.0236 -1.0966  0.5182
18110TIP3    H175745   5.071   3.347   0.325  0.5399  0.9398  0.3315
18110TIP3    H275746   4.957   3.374   0.230 -0.4537 -2.2853  0.4761
18111TIP3   OH275747   5.887   4.891  16.766  0.3948  0.0856 -0.8892
18111TIP3    H175748   5.845   4.806  16.757  0.4950  0.1769 -2.4174
18111TIP3    H275749   5.917   4.913  16.678  0.7354  1.5151 -0.4478
18112TIP3   OH275750   5.197   3.388  16.874  0.4890 -0.0064  0.3055
18112TIP3    H175751   5.185   3.460  16.811 -2.0757 -1.2587 -0.7933
18112TIP3    H275752   5.254   3.326  16.829  1.1371  0.4680  0.4684
18113TIP3   OH275753   0.650   0.798  16.330 -0.6851 -0.4635  0.1353
18113TIP3    H175754   0.617   0.880  16.366  1.3498  0.2318  0.5324
18113TIP3    H275755   0.622   0.799  16.238 -0.0486  1.0680 -0.0682
18114TIP3   OH275756   1.187   1.974   5.125  0.0686  1.0061  0.4047
18114TIP3    H175757   1.091   1.982   5.124 -0.0302  0.1597 -1.1708
18114TIP3    H275758   1.205   1.897   5.070  1.6667  1.2720  0.5029
18115TIP3   OH275759   2.764   1.159   3.990 -1.0455 -0.3523  0.1180
18115TIP3    H175760   2.740   1.168   3.897 -0.5267 -1.3969 -0.1352
18115TIP3    H275761   2.800   1.244   4.014 -0.8680 -0.1760 -0.7402
18116TIP3   OH275762   3.527   4.617  16.632 -0.0544  0.0634  0.3205
18116TIP3    H175763   3.612   4.625  16.589  0.2706  0.1658  0.9786
18116TIP3    H275764   3.504   4.706  16.658 -0.2049 -0.0135  0.4547
18117TIP3   OH275765   0.604   2.314  12.840  0.1864 -0.1854 -0.2620
18117TIP3    H175766   0.643   2.390  12.882 -1.2885  0.2528  0.3798
18117TIP3    H275767   0.651   2.239  12.876 -0.2435  0.2553  1.2601
18118TIP3   OH275768   4.233   6.780   0.419  0.0416  0.3564  0.3478
18118TIP3    H175769   4.178   6.851   0.386  1.6796  0.7515 -1.7944
18118TIP3    H275770   4.189   6.700   0.392 -0.4806  0.6140  0.4297
18119TIP3   OH275771   0.592   3.989  14.128 -0.7219  0.2388 -0.5115
18119TIP3    H175772   0.613   4.065  14.073  0.8018 -0.4260 -0.8776
18119TIP3    H275773   0.668   3.931  14.120 -0.4316  0.1040  2.3211
18120TIP3   OH275774   1.849   5.332  15.804  0.1650  0.0552  0.0160
18120TIP3    H175775   1.909   5.380  15.747  1.7231  1.7110  2.8146
18120TIP3    H275776   1.900   5.314  15.883 -2.2187 -1.0155  1.4434
18121TIP3   OH275777   4.065   0.299  11.622  0.3134 -0.1873  0.6503
18121TIP3    H175778   3.974   0.328  11.623  0.5798  0.6569  1.4152
18121TIP3    H275779   4.103   0.338  11.544  0.2166  0.0938  0.7436
18122TIP3   OH275780   2.493   5.643   0.570 -0.0916 -0.5845  0.3338
18122TIP3    H175781   2.583   5.610   0.575 -0.5359 -2.1745 -0.9666
18122TIP3    H275782   2.442   5.567   0.541 -1.9400  0.1604  1.4472
18123TIP3   OH275783   4.631   4.698   0.413 -0.4332 -0.7949 -0.0178
18123TIP3    H175784   4.680   4.741   0.342  0.9203 -1.2875  0.5952
18123TIP3    H275785   4.695   4.640   0.454 -1.8424 -2.2979  0.1128
18124TIP3   OH275786   1.651   4.634   1.239 -0.0767 -0.7285  0.3273
18124TIP3    H175787   1.577   4.650   1.182 -1.0023 -0.4419  1.5640
18124TIP3    H275788   1.617   4.578   1.309  0.8971 -0.7239  0.8305
18125TIP3   OH275789   0.259   1.457  15.005  0.1157  0.4651  0.0152
18125TIP3    H175790   0.250   1.372  15.048  2.0460  0.6720  0.9162
18125TIP3    H275791   0.178   1.467  14.955 -0.9845 -1.0399  1.3931
18126TIP3   OH275792   5.629   4.118  16.872 -0.4595 -0.2463  0.4426
18126TIP3    H175793   5.591   4.066  16.801 -0.9944  0.0077  0.5385
18126TIP3    H275794   5.653   4.053  16.938  0.4341 -0.5318 -0.1261
18127TIP3   OH275795   2.501   3.670  13.797  0.0643  0.4660  0.1542
18127TIP3    H175796   2.553   3.591  13.806 -0.3968 -0.0489 -1.4372
18127TIP3    H275797   2.459   3.681  13.882 -0.2225 -1.2580  0.2607
18128TIP3   OH275798   6.307   0.616   2.345  0.3511  0.2461 -0.4416
18128TIP3    H175799   6.272   0.685   2.288 -1.3116  0.1649  0.4029
18128TIP3    H275800   6.328   0.661   2.426 -0.5195 -0.1651  0.0327
18129TIP3   OH275801   2.308   1.803  14.811  0.1286 -0.1570 -0.0237
18129TIP3    H175802   2.382   1.797  14.872  0.5846  0.3768 -0.5082
18129TIP3    H275803   2.338   1.863  14.743 -0.5850 -0.2992 -0.4772
18130TIP3   OH275804   1.261   2.460   2.465 -0.7562  0.2123  0.2634
18130TIP3    H175805   1.171   2.429   2.479 -0.6954 -0.0417  0.0981
18130TIP3    H275806   1.255   2.518   2.389 -0.8733  0.6258  0.5837
18131TIP3   OH275807   2.359   0.604   4.558 -0.5301  0.4578  0.4019
18131TIP3    H175808   2.325   0.523   4.521 -0.2613  0.2403  0.6330
18131TIP3    H275809   2.409   0.644   4.486 -1.2789  0.7905  0.0538
18132TIP3   OH275810   2.556   5.749  11.354 -0.0522 -0.1848 -0.2286
18132TIP3    H175811   2.610   5.707  11.286 -1.1236  0.1578 -1.3356
18132TIP3    H275812   2.510   5.819  11.307 -1.5733 -0.5678  0.6444
18133TIP3   OH275813   6.324   6.058   2.072  0.3117 -0.4434 -0.2023
18133TIP3    H175814   6.327   5.989   2.138  0.9493 -0.7320 -0.5270
18133TIP3    H275815   6.378   6.128   2.108 -1.2617  0.3961  0.6632
18134TIP3   OH275816   2.684   0.751  16.300  0.2258  0.2705 -0.2947
18134TIP3    H175817   2.743   0.685  16.336  1.0539  0.7208 -0.8086
18134TIP3    H275818   2.690   0.824  16.362  0.0564  0.2452 -0.2467
18135TIP3   OH275819   4.154   3.797  16.396 -0.4286  0.0621  0.1996
18135TIP3    H175820   4.161   3.711  16.354  0.1141 -0.9319  2.2142
18135TIP3    H275821   4.207   3.790  16.475 -1.6388  1.7299  1.2341
18136TIP3   OH275822   1.669   0.650   3.920 -0.1017  0.5597  0.2142
18136TIP3    H175823   1.681   0.559   3.945 -1.4460  0.2034 -0.3977
18136TIP3    H275824   1.707   0.657   3.833  2.0504  1.1558  1.1185
18137TIP3   OH275825   3.742   4.498   2.050 -0.3059  0.2811 -0.3010
18137TIP3    H175826   3.809   4.517   1.985  0.3926  0.2426  0.3957
18137TIP3    H275827   3.790   4.467   2.126 -1.2194 -1.2923 -0.3307
18138TIP3   OH275828   1.134   4.850   0.352 -0.6441 -0.2192 -0.5495
18138TIP3    H175829   1.148   4.855   0.257  2.2007 -0.2868 -0.2138
18138TIP3    H275830   1.156   4.937   0.384  0.7752 -0.8412  0.2506
18139TIP3   OH275831   4.437   1.982  11.006 -0.0890  0.6686  0.3691
18139TIP3    H175832   4.476   1.933  11.078 -0.8452  0.2508  0.5090
18139TIP3    H275833   4.511   2.020  10.959  0.5461 -0.8868  0.0534
18140TIP3   OH275834   3.591   0.599   3.177  0.4201  0.2047 -0.3703
18140TIP3    H175835   3.639   0.517   3.168  0.3561  0.2164 -0.8127
18140TIP3    H275836   3.644   0.651   3.238  2.1108  1.0417 -2.4350
18141TIP3   OH275837   1.500   5.333  14.029 -0.0425 -0.0202 -0.3745
18141TIP3    H175838   1.460   5.310  13.945 -0.4103  0.6980 -0.3972
18141TIP3    H275839   1.566   5.265  14.042 -0.0732 -0.2183 -1.1752
18142TIP3   OH275840   3.090   6.424   1.613  0.7856 -0.2183  0.1619
18142TIP3    H175841   3.120   6.483   1.682  0.5941  1.2661 -0.9769
18142TIP3    H275842   3.169   6.404   1.563  0.7993 -0.7187  0.3768
18143TIP3   OH275843   4.176   1.098  11.515  0.0266 -0.1096  0.3441
18143TIP3    H175844   4.245   1.032  11.503  1.0194  0.8359  0.7565
18143TIP3    H275845   4.113   1.078  11.445 -0.0519 -1.9184  0.8627
18144TIP3   OH275846   6.420   0.749   2.555  0.1860 -0.1029  0.1217
18144TIP3    H175847   6.424   0.831   2.605  0.7550  0.8992 -1.5072
18144TIP3    H275848   6.443   0.681   2.619 -1.5680  0.8142  1.8377
18145TIP3   OH275849   0.622   1.868  13.924 -0.4138  1.0063  0.0768
18145TIP3    H175850   0.530   1.843  13.920  0.1089 -1.0504 -0.5264
18145TIP3    H275851   0.667   1.800  13.874  1.4846  1.6787  0.7880
18146TIP3   OH275852   1.356   4.729  11.705  0.4253  0.5371  0.4691
18146TIP3    H175853   1.275   4.722  11.653  0.3004 -0.0225  0.7244
18146TIP3    H275854   1.425   4.702  11.645  0.1810 -0.9982  0.8231
18147TIP3   OH275855   6.599   2.718   3.062  0.2547 -0.0290 -0.2778
18147TIP3    H175856   6.576   2.650   3.125  0.1938  0.4041  0.1739
18147TIP3    H275857   6.684   2.691   3.028  1.0139  0.5082  1.1152
18148TIP3   OH275858   0.961   0.227  12.416  0.1583  0.2190 -0.1205
18148TIP3    H175859   1.056   0.237  12.418  0.2831 -0.9039  1.5599
18148TIP3    H275860   0.941   0.209  12.324  1.6349 -0.1237 -0.3969
18149TIP3   OH275861   6.560   3.374   2.678 -0.4746  0.9127 -0.3146
18149TIP3    H175862   6.505   3.328   2.741  0.2068 -0.0728 -0.4019
18149TIP3    H275863   6.580   3.308   2.611  1.7276  0.8650  0.3077
18150TIP3   OH275864   5.739   4.420  16.655  0.6208 -0.1201 -0.3967
18150TIP3    H175865   5.758   4.466  16.573  0.5929  0.4447 -0.0889
18150TIP3    H275866   5.809   4.447  16.715  1.4504 -1.6105 -0.6366
18151TIP3   OH275867   1.213   3.992   0.261 -0.8085 -0.5250  0.7973
18151TIP3    H175868   1.213   3.941   0.342  0.7371  0.3457  1.3934
18151TIP3    H275869   1.135   4.047   0.267 -1.7197 -1.7782  0.8005
18152TIP3   OH275870   3.105   2.830   5.501  0.3823  0.5160  0.0976
18152TIP3    H175871   3.031   2.892   5.504  0.6119  0.8166 -0.2935
18152TIP3    H275872   3.097   2.780   5.582  1.1005  2.1179  1.2286
18153TIP3   OH275873   1.638   3.746   0.147 -0.1921 -0.6221 -0.1022
18153TIP3    H175874   1.723   3.709   0.171  0.8120  0.5574 -1.6009
18153TIP3    H275875   1.651   3.780   0.058 -1.8351  0.7727  0.1295
18154TIP3   OH275876   0.609   0.147  10.576  0.1793 -0.4637  0.5398
18154TIP3    H175877   0.634   0.064  10.617  0.7482 -1.3425 -1.4466
18154TIP3    H275878   0.675   0.160  10.508 -1.2082  0.4524 -0.6810
18155TIP3   OH275879   5.984   0.423  14.212  0.5729  0.1169 -0.4666
18155TIP3    H175880   5.956   0.454  14.297  0.6543  0.7981 -0.6843
18155TIP3    H275881   6.069   0.382  14.228  1.0662  1.1434 -0.3808
18156TIP3   OH275882   2.588   3.484   0.479 -0.4372 -0.1453 -0.3179
18156TIP3    H175883   2.585   3.406   0.424 -1.7088  0.8156 -1.7284
18156TIP3    H275884   2.649   3.543   0.434  2.6762 -1.2026  2.1474
18157TIP3   OH275885   0.792   6.571  14.116 -0.2802  0.2369 -0.0586
18157TIP3    H175886   0.876   6.532  14.141  0.3813  0.7419 -1.4136
18157TIP3    H275887   0.790   6.655  14.163 -0.1191  0.1331  0.1366
18158TIP3   OH275888   2.686   2.144   4.657  0.1583  0.4187  0.3184
18158TIP3    H175889   2.655   2.221   4.610 -2.5413  0.2120  1.5773
18158TIP3    H275890   2.708   2.176   4.744  0.8809  0.0675  0.2745
18159TIP3   OH275891   4.522   1.953   2.995 -0.3153  0.4046  0.4689
18159TIP3    H175892   4.474   1.963   3.077 -2.4007 -0.9889 -0.4899
18159TIP3    H275893   4.474   1.885   2.948  2.5344 -0.9427 -0.6930
18160TIP3   OH275894   1.413   1.203  16.371  0.0350 -0.2374 -0.0794
18160TIP3    H175895   1.377   1.119  16.402 -0.8714  0.2155  0.1298
18160TIP3    H275896   1.498   1.210  16.414 -0.3644 -0.5377  0.7879
18161TIP3   OH275897   3.940   2.213  11.829 -0.2941 -0.0152 -0.5985
18161TIP3    H175898   3.977   2.301  11.826 -1.4629  0.5231  0.1189
18161TIP3    H275899   3.879   2.210  11.755 -1.7664  0.5164  0.5419
18162TIP3   OH275900   1.243   6.235  16.738  0.0563  0.3562 -0.2980
18162TIP3    H175901   1.200   6.259  16.819  1.5886  1.9248  0.1205
18162TIP3    H275902   1.317   6.295  16.731 -1.2087  1.7659 -3.9293
18163TIP3   OH275903   0.968   3.450   6.119  0.4443  0.1613  0.1987
18163TIP3    H175904   0.909   3.389   6.163  0.0812  0.5336  0.2356
18163TIP3    H275905   0.923   3.534   6.124 -0.0549  0.0632 -1.6768
18164TIP3   OH275906   2.896   5.687   5.701 -0.2176  0.2102  0.6671
18164TIP3    H175907   2.822   5.629   5.718  0.7541 -0.8691  1.3708
18164TIP3    H275908   2.935   5.653   5.620  0.4618 -0.2533  1.1783
18165TIP3   OH275909   3.676   5.568  12.632 -0.5323 -0.0771 -0.3557
18165TIP3    H175910   3.733   5.640  12.606 -0.2013 -0.4158 -0.5928
18165TIP3    H275911   3.613   5.607  12.692 -0.1136  0.3281 -0.1721
18166TIP3   OH275912   5.523   3.998   5.582  0.2860 -0.0183 -0.6151
18166TIP3    H175913   5.540   3.989   5.676 -0.3087  1.0432 -0.3927
18166TIP3    H275914   5.603   4.037   5.547  0.3815 -0.1011 -0.4900
18167TIP3   OH275915   1.596   1.510  12.323  0.8469  0.3724 -0.4684
18167TIP3    H175916   1.602   1.439  12.386  1.0929  0.5820 -0.2551
18167TIP3    H275917   1.672   1.499  12.266 -0.3872 -0.9890 -1.9718
18168TIP3   OH275918   1.961   4.612   2.839 -0.5646  0.4087  0.6737
18168TIP3    H175919   1.991   4.527   2.869 -2.0206 -0.8704 -1.2725
18168TIP3    H275920   2.020   4.634   2.767 -0.0789  1.1874  1.2832
18169TIP3   OH275921   4.546   5.532   5.082  0.2450 -0.1191  0.0346
18169TIP3    H175922   4.614   5.571   5.027  0.4097 -0.7748 -0.2504
18169TIP3    H275923   4.511   5.604   5.134  0.9515  0.2788 -0.0364
18170TIP3   OH275924   0.479   4.614  11.833 -0.4148  0.4590 -0.0279
18170TIP3    H175925   0.448   4.688  11.885  0.4099  0.1782  0.8773
18170TIP3    H275926   0.472   4.539  11.891  1.8527  0.3627  0.2231
18171TIP3   OH275927   3.572   6.363   2.547 -0.0504  0.3482  0.3232
18171TIP3    H175928   3.477   6.351   2.551 -0.1447  0.8201 -0.4301
18171TIP3    H275929   3.607   6.274   2.545 -0.5781  0.1534 -1.4297
18172TIP3   OH275930   3.146   0.189   0.187 -0.4844  0.0795 -0.5246
18172TIP3    H175931   3.174   0.114   0.135  0.8112  0.5442 -0.5502
18172TIP3    H275932   3.227   0.222   0.225 -1.2516  0.5115  0.7681
18173TIP3   OH275933   4.827   6.101  17.044 -0.2217  0.1786 -0.2715
18173TIP3    H175934   4.858   6.066  17.127  1.2834 -0.0965 -0.9126
18173TIP3    H275935   4.780   6.028  17.004 -0.0715 -0.0145 -0.0983
18174TIP3   OH275936   1.925   1.463   5.859 -0.0438 -0.4584  0.1548
18174TIP3    H175937   1.989   1.462   5.929  1.3336 -1.3416 -1.0693
18174TIP3    H275938   1.843   1.438   5.902  0.8315 -1.3430  1.3813
18175TIP3   OH275939   6.553   0.334   5.730  0.0973  0.0735 -0.0493
18175TIP3    H175940   6.646   0.358   5.724  0.0303  0.5690  0.7255
18175TIP3    H275941   6.543   0.263   5.667  0.4999  1.4682 -1.7660
18176TIP3   OH275942   6.186   0.782  11.181 -0.5558  0.1451  0.3490
18176TIP3    H175943   6.231   0.703  11.209 -0.5455 -0.4563 -1.3060
18176TIP3    H275944   6.247   0.853  11.204  0.0778 -0.4342  0.4999
18177TIP3   OH275945   2.508   3.809   3.107  0.8531  0.2047 -0.2500
18177TIP3    H175946   2.500   3.737   3.045  1.1776  0.3526 -0.4690
18177TIP3    H275947   2.485   3.887   3.056 -1.8788  0.0506  0.5716
18178TIP3   OH275948   1.171   4.637   5.964  0.8142 -0.0922  0.0319
18178TIP3    H175949   1.248   4.644   5.907  1.6179  1.3152  1.1996
18178TIP3    H275950   1.115   4.710   5.937  0.6187 -0.1691  0.2256
18179TIP3   OH275951   5.430   4.597  12.940  0.9712  0.0687  0.3733
18179TIP3    H175952   5.444   4.688  12.915  1.2092  0.0564  0.4589
18179TIP3    H275953   5.335   4.590  12.951  0.8314 -0.0037 -0.7833
18180TIP3   OH275954   1.174   6.205   5.163  0.2117  0.0584 -0.1773
18180TIP3    H175955   1.167   6.299   5.146 -0.4364  0.1920  0.7398
18180TIP3    H275956   1.131   6.163   5.088  0.0899  0.5071 -0.3614
18181TIP3   OH275957   5.433   6.701   6.640  0.2932 -0.2961 -0.3520
18181TIP3    H175958   5.368   6.631   6.636 -0.2263  0.0096  1.7459
18181TIP3    H275959   5.515   6.656   6.659  0.1939 -0.4403 -0.2637
18182TIP3   OH275960   1.710   5.255  16.308  0.0140 -0.4792  0.1117
18182TIP3    H175961   1.648   5.192  16.272 -1.0747  1.1684 -1.0735
18182TIP3    H275962   1.772   5.271  16.236  0.2352 -0.1422  0.3721
18183TIP3   OH275963   3.712   5.423   4.415 -0.5332  0.2998 -0.1912
18183TIP3    H175964   3.708   5.390   4.326  0.2565  0.5707 -0.3312
18183TIP3    H275965   3.776   5.367   4.459 -1.5403 -0.3848  0.4548
18184TIP3   OH275966   5.499   3.878  13.285  0.2830 -0.3943 -0.1237
18184TIP3    H175967   5.469   3.907  13.371  0.4888  0.3832 -0.3090
18184TIP3    H275968   5.584   3.837  13.302  0.3292 -0.2304  0.0423
18185TIP3   OH275969   1.508   1.956  15.007  0.5526 -0.0132 -0.1459
18185TIP3    H175970   1.507   1.867  15.042 -0.2444 -1.0086 -2.4758
18185TIP3    H275971   1.416   1.982  15.005  0.6784  0.4137 -0.5068
18186TIP3   OH275972   2.763   2.725   0.024 -0.0614 -0.5387  0.4835
18186TIP3    H175973   2.830   2.788  -0.002  0.4710 -1.0652  0.5388
18186TIP3    H275974   2.804   2.640   0.011 -0.1050 -0.8520  2.0953
18187TIP3   OH275975   3.557   4.134   6.780  0.7303 -0.6101 -0.2577
18187TIP3    H175976   3.518   4.047   6.777  0.3689 -0.4357 -0.7025
18187TIP3    H275977   3.512   4.183   6.712  1.2048 -0.1857 -0.2731
18188TIP3   OH275978   5.986   6.391   1.493 -0.0791  0.0289  0.1826
18188TIP3    H175979   6.072   6.355   1.515  0.5163  0.8094 -0.7662
18188TIP3    H275980   5.947   6.326   1.435  0.9497  0.7846 -1.4385
18189TIP3   OH275981   1.398   6.241   4.907  0.0935 -0.1180 -0.3105
18189TIP3    H175982   1.446   6.319   4.935  0.9514 -1.2713  1.7308
18189TIP3    H275983   1.449   6.206   4.834  1.9025 -0.7774  1.1956
18190TIP3   OH275984   4.075   4.083  16.599  0.6523 -0.6840  0.3183
18190TIP3    H175985   4.012   4.024  16.557 -0.0451  0.3538 -0.1471
18190TIP3    H275986   4.141   4.098  16.532  0.5154 -0.4880  0.2234
18191TIP3   OH275987   2.585   2.991  12.613 -0.0863 -0.2318  0.3248
18191TIP3    H175988   2.521   3.030  12.673 -0.1321 -0.7578  0.6183
18191TIP3    H275989   2.660   3.051  12.616 -0.1586 -0.1577  0.7731
18192TIP3   OH275990   1.069   5.530  13.272 -0.1483 -0.1639 -0.1755
18192TIP3    H175991   1.070   5.579  13.190  0.9908  0.9399  0.4727
18192TIP3    H275992   1.112   5.447  13.251  1.1287  0.5564 -0.4402
18193TIP3   OH275993   5.674   5.632  15.736 -0.4402  0.3059 -0.2777
18193TIP3    H175994   5.645   5.704  15.791 -0.3728  0.1761 -0.0706
18193TIP3    H275995   5.593   5.585  15.713 -0.4342  0.1746 -0.0271
18194TIP3   OH275996   3.741   4.738  14.321 -0.0051  0.1425  0.3640
18194TIP3    H175997   3.817   4.741  14.378  1.3810  0.2018 -1.3894
18194TIP3    H275998   3.695   4.658  14.346  0.3497  0.3524  1.7599
18195TIP3   OH275999   3.169   3.169  15.881  0.8667  0.6995 -0.2389
18195TIP3    H176000   3.234   3.189  15.948  1.2326 -1.1867  0.0336
18195TIP3    H276001   3.201   3.214  15.803  2.5416 -0.1616 -0.1058
18196TIP3   OH276002   6.184   5.633   5.506  0.5612  0.0432  0.2525
18196TIP3    H176003   6.275   5.616   5.531  0.7790 -0.4169 -0.7898
18196TIP3    H276004   6.190   5.671   5.419 -0.1488  2.0639  1.0152
18197TIP3   OH276005   5.266   4.534  16.150 -0.8165  0.1838 -0.6012
18197TIP3    H176006   5.322   4.593  16.201 -1.1872  1.6016 -1.7672
18197TIP3    H276007   5.178   4.550  16.183 -0.7059 -1.2443  0.4730
18198TIP3   OH276008   5.440   0.029   2.183  0.1478  0.2097 -0.3072
18198TIP3    H176009   5.462   0.032   2.090 -0.9521 -1.7139 -0.6853
18198TIP3    H276010   5.347   0.004   2.185  0.5120 -1.1901  1.2946
18199TIP3   OH276011   4.697   5.354   4.694  0.5539 -0.2993  0.3842
18199TIP3    H176012   4.670   5.333   4.784 -0.9518 -1.9272 -0.3756
18199TIP3    H276013   4.776   5.303   4.680  1.0075  0.2537  0.9009
18200TIP3   OH276014   2.078   2.184   1.509  0.4227 -0.0176  0.0678
18200TIP3    H176015   1.989   2.206   1.538 -0.0107 -0.2514 -1.0158
18200TIP3    H276016   2.115   2.268   1.480 -0.0805 -0.1801 -1.0902
18201TIP3   OH276017   3.307   1.263  16.019 -0.2526 -0.1184  0.5630
18201TIP3    H176018   3.307   1.177  15.977 -0.0627  0.6769 -1.1257
18201TIP3    H276019   3.249   1.253  16.094 -1.6257 -1.2686 -0.6002
18202TIP3   OH276020   4.722   6.499  11.593 -0.2739 -0.2718 -0.6358
18202TIP3    H176021   4.817   6.490  11.598 -0.0676 -0.6722 -3.5460
18202TIP3    H276022   4.705   6.585  11.632  1.5240  0.5666 -1.5344
18203TIP3   OH276023   3.804   1.699  15.418  0.4817 -0.4001  0.3544
18203TIP3    H176024   3.826   1.608  15.434  3.6661 -0.0439 -1.1403
18203TIP3    H276025   3.806   1.740  15.504  2.9784 -1.1051  0.7303
18204TIP3   OH276026   2.282   6.583   2.378  0.1645  0.2419 -0.0513
18204TIP3    H176027   2.281   6.674   2.348 -1.6121  0.2349 -0.1201
18204TIP3    H276028   2.214   6.540   2.326 -0.4609 -0.6364  1.4320
18205TIP3   OH276029   1.711   6.184   1.431 -0.1586  0.0003  0.5942
18205TIP3    H176030   1.631   6.134   1.418  0.9893 -1.7508 -0.1517
18205TIP3    H276031   1.736   6.212   1.343 -0.0482  0.7160  0.8460
18206TIP3   OH276032   6.145   1.623  15.863 -0.0769  0.6040 -0.5390
18206TIP3    H176033   6.059   1.644  15.900  1.1493  0.7688  2.4672
18206TIP3    H276034   6.140   1.529  15.846 -1.5513  0.9868 -2.6081
18207TIP3   OH276035   1.993   5.772   1.885  0.5723 -0.6076  0.0864
18207TIP3    H176036   2.076   5.818   1.872  0.8636 -0.6747  1.5492
18207TIP3    H276037   1.989   5.756   1.979 -1.4702  0.0889  0.1676
18208TIP3   OH276038   0.610   3.114   0.611 -0.0628  0.2158 -0.5588
18208TIP3    H176039   0.520   3.106   0.643  0.0697  0.3687 -0.1358
18208TIP3    H276040   0.601   3.132   0.518 -0.4694  0.1254 -0.5388
18209TIP3   OH276041   2.917   5.068   2.972 -0.3280 -0.1404 -0.0084
18209TIP3    H176042   2.863   5.054   3.050 -0.8336 -0.1812 -0.3624
18209TIP3    H276043   2.938   4.980   2.941 -1.0624 -0.1283 -0.5562
18210TIP3   OH276044   3.026   2.358  12.284  0.0522 -0.2201 -0.4883
18210TIP3    H176045   2.939   2.334  12.254  0.8174 -1.1127 -2.0731
18210TIP3    H276046   3.016   2.448  12.317 -1.0390  0.4742 -2.5878
18211TIP3   OH276047   5.952   5.465  14.613 -0.2831 -0.2738 -0.1207
18211TIP3    H176048   6.037   5.495  14.645 -0.3579 -1.4586  1.2722
18211TIP3    H276049   5.970   5.382  14.569 -0.7750 -0.8122  0.6669
18212TIP3   OH276050   6.095   4.113   1.599  0.9521 -0.3089 -0.3290
18212TIP3    H176051   6.131   4.162   1.525 -0.3456  1.2535  0.0245
18212TIP3    H276052   6.088   4.177   1.669  1.1740 -1.5198  0.8263
18213TIP3   OH276053   2.037   1.115  14.067 -0.5034  0.2950 -0.1769
18213TIP3    H176054   2.060   1.048  14.131  0.1486  1.2597  0.6328
18213TIP3    H276055   2.087   1.092  13.989 -2.7102 -1.9666 -1.0608
18214TIP3   OH276056   4.925   4.876  11.722 -0.4883 -0.1246  0.2314
18214TIP3    H176057   4.961   4.937  11.657 -0.1191  0.3717  0.8882
18214TIP3    H276058   4.993   4.810  11.732 -0.7460 -0.4661 -0.2312
18215TIP3   OH276059   5.181   0.060  16.310  0.2535  0.1313  0.3022
18215TIP3    H176060   5.156  -0.025  16.344 -3.4391  0.6257 -0.7543
18215TIP3    H276061   5.141   0.123  16.370  1.5405  1.1464  0.1471
18216TIP3   OH276062   5.037   2.574  15.989 -0.1782  0.4972  0.1288
18216TIP3    H176063   5.069   2.497  16.036 -0.9235  0.4771  0.6136
18216TIP3    H276064   5.117   2.621  15.964  0.2589  0.8832  2.0431
18217TIP3   OH276065   2.354   5.490   3.670 -0.2154 -0.0478 -0.1351
18217TIP3    H176066   2.281   5.475   3.731  0.5081  1.6738  1.2581
18217TIP3    H276067   2.424   5.523   3.725  1.4896 -1.1574 -1.5254
18218TIP3   OH276068   5.802   2.290   0.707  0.2264 -0.0926  0.1072
18218TIP3    H176069   5.863   2.229   0.748  1.8281  1.2581 -0.1647
18218TIP3    H276070   5.838   2.305   0.620  0.2418  1.6828  0.3853
18219TIP3   OH276071   2.529   4.618  14.910  0.2243 -0.3192 -0.4158
18219TIP3    H176072   2.606   4.611  14.853 -0.2005  3.6487 -1.8180
18219TIP3    H276073   2.547   4.695  14.964 -1.6038 -1.0060  1.2706
18220TIP3   OH276074   5.745   5.955  11.772 -0.3836  0.5450  0.5742
18220TIP3    H176075   5.746   5.881  11.712 -0.7719  0.6137  0.4818
18220TIP3    H276076   5.785   6.027  11.722 -1.0903  0.7151  0.2478
18221TIP3   OH276077   3.605   6.383  16.017  0.0340  0.1977 -0.3572
18221TIP3    H176078   3.583   6.360  16.107  0.5414  1.2798  0.0617
18221TIP3    H276079   3.590   6.303  15.967  2.7887 -1.4177  1.1774
18222TIP3   OH276080   5.734   3.352  14.178  0.3952  0.1488  0.0454
18222TIP3    H176081   5.768   3.437  14.150  1.5513 -0.4348 -0.3815
18222TIP3    H276082   5.796   3.289  14.142 -2.4604 -1.1879 -3.0740
18223TIP3   OH276083   1.585   0.907  14.133  0.2804 -0.3603 -0.1797
18223TIP3    H176084   1.511   0.968  14.125  0.7376  0.4178  1.3008
18223TIP3    H276085   1.656   0.959  14.170  0.2710 -2.0601  2.4953
18224TIP3   OH276086   0.377   3.155  13.627  0.3389  0.9572 -0.3523
18224TIP3    H176087   0.410   3.160  13.537 -0.2471  4.2490 -0.5011
18224TIP3    H276088   0.313   3.084  13.624  0.9617  0.4012 -2.3145
18225TIP3   OH276089   5.598   0.845  16.543  0.6139 -0.0543  0.1719
18225TIP3    H176090   5.656   0.806  16.478  1.2340  3.4815 -1.6679
18225TIP3    H276091   5.510   0.820  16.513  0.9265  0.8131 -1.6576
18226TIP3   OH276092   6.128   0.874   0.507 -0.0252  0.2871  0.0578
18226TIP3    H176093   6.098   0.794   0.551 -1.0319 -0.9341 -2.6673
18226TIP3    H276094   6.223   0.872   0.517 -0.0025 -1.4184 -0.1765
18227TIP3   OH276095   4.612   5.914  16.946 -0.3691 -0.3137 -0.6302
18227TIP3    H176096   4.593   5.827  16.911  0.5687 -1.3308  1.2529
18227TIP3    H276097   4.528   5.943  16.984 -0.4076 -0.8745 -0.2872
18228TIP3   OH276098   0.904   0.971  15.566  0.1252  0.1240 -0.0986
18228TIP3    H176099   0.871   0.893  15.522  0.1937 -0.3923  0.7341
18228TIP3    H276100   0.992   0.946  15.595 -1.4389 -1.2142  4.2262
18229TIP3   OH276101   5.449   5.177  15.530  0.1050  0.1391 -0.2903
18229TIP3    H176102   5.366   5.152  15.570  0.1895 -0.2543 -0.3517
18229TIP3    H276103   5.447   5.137  15.443  0.5299 -0.2178 -0.1397
18230TIP3   OH276104   6.138   6.693   5.258 -0.7631 -0.0617 -0.3785
18230TIP3    H176105   6.211   6.746   5.225 -0.0223 -0.0441  1.2304
18230TIP3    H276106   6.175   6.607   5.273 -0.3170  0.5537  2.8330
18231TIP3   OH276107   1.435   3.529  14.733 -0.3515 -0.1474  0.3835
18231TIP3    H176108   1.378   3.580  14.675  1.5348  1.1937 -0.3845
18231TIP3    H276109   1.481   3.469  14.674  0.2616 -0.0449  0.7519
18232TIP3   OH276110   5.853   1.051  16.257 -0.0165  0.1543 -0.1942
18232TIP3    H176111   5.922   0.994  16.291 -1.0615 -0.7738  0.4015
18232TIP3    H276112   5.881   1.070  16.167  1.8522  1.1596  0.5288
18233TIP3   OH276113   6.432   4.569  13.028  0.0872  0.2012 -0.5904
18233TIP3    H176114   6.337   4.575  13.021  0.0544  0.0272 -0.2922
18233TIP3    H276115   6.465   4.624  12.956 -0.2459 -0.6620 -1.4293
18234TIP3   OH276116   4.421   5.642  14.413 -1.0004 -0.2188  0.3792
18234TIP3    H176117   4.441   5.588  14.490  1.3968  1.6390  1.2019
18234TIP3    H276118   4.412   5.730  14.448 -1.5082  0.4202 -1.3004
18235TIP3   OH276119   2.412   1.764  14.107 -0.0548 -0.0420 -0.2231
18235TIP3    H176120   2.358   1.709  14.050  0.1691 -1.3090  0.7658
18235TIP3    H276121   2.414   1.719  14.191 -0.3698  1.7865  0.8378
18236TIP3   OH276122   3.385   2.572  16.048  0.0336  0.0902 -0.5633
18236TIP3    H176123   3.344   2.486  16.054 -0.9220  0.6425  2.5127
18236TIP3    H276124   3.471   2.560  16.087 -0.0123  0.4539 -0.3441
18237TIP3   OH276125   5.553   1.433   2.980  0.7001  0.1755  0.3699
18237TIP3    H176126   5.602   1.463   3.056  0.6260  2.0176 -0.2568
18237TIP3    H276127   5.585   1.344   2.964  1.2037  0.0077  2.1117
18238TIP3   OH276128   6.476   1.057   5.507 -0.6741 -0.0194  0.1263
18238TIP3    H176129   6.476   1.149   5.481 -2.0773 -0.4433 -1.5504
18238TIP3    H276130   6.428   1.012   5.437 -1.1380 -1.8488  1.5442
18239TIP3   OH276131   5.157   6.291   5.744 -0.1827  0.4112  0.1530
18239TIP3    H176132   5.084   6.229   5.745  0.1345 -0.0044 -1.1999
18239TIP3    H276133   5.118   6.373   5.715 -0.4055  0.6094  0.9780
18240TIP3   OH276134   1.204   6.642  11.778  0.2041 -0.3206 -0.3083
18240TIP3    H176135   1.231   6.707  11.843  0.3073 -0.1975 -0.4731
18240TIP3    H276136   1.279   6.634  11.719  0.5321 -1.2405  0.2176
18241TIP3   OH276137   5.961   3.211  14.543 -0.0277  0.1026  0.6505
18241TIP3    H176138   5.871   3.189  14.518  0.1562 -0.1281  0.1618
18241TIP3    H276139   5.960   3.215  14.638 -0.3361 -0.8644  0.6906
18242TIP3   OH276140   6.035   0.307  16.357 -0.5057 -0.4597  0.0025
18242TIP3    H176141   6.001   0.369  16.423  1.0755 -0.1473  0.5637
18242TIP3    H276142   6.121   0.281  16.391 -0.4387 -1.7013 -1.0627
18243TIP3   OH276143   3.392   0.655  10.860  0.1760 -0.3585 -0.4879
18243TIP3    H176144   3.454   0.716  10.899 -0.6374  0.5924 -0.6346
18243TIP3    H276145   3.423   0.644  10.770  0.2539 -0.0539 -0.4998
18244TIP3   OH276146   3.277   0.372  15.698  0.6017 -0.3883  0.6571
18244TIP3    H176147   3.208   0.334  15.753  1.0368 -0.1870  1.3594
18244TIP3    H276148   3.272   0.466  15.717 -0.8863  0.0425 -1.5303
18245TIP3   OH276149   2.523   2.419  16.250 -0.2548  0.5145 -0.1108
18245TIP3    H176150   2.449   2.476  16.268 -0.0419  0.0712  2.6865
18245TIP3    H276151   2.596   2.478  16.234 -0.9971  0.9529 -2.0919
18246TIP3   OH276152   1.860   4.093   2.393 -0.0422 -0.2521 -0.1857
18246TIP3    H176153   1.857   4.143   2.474  0.3188  0.2108 -0.4523
18246TIP3    H276154   1.862   4.159   2.324  0.0939 -0.6356 -0.5542
18247TIP3   OH276155   1.927   5.115  12.790  0.0354  0.4609  0.2704
18247TIP3    H176156   1.845   5.146  12.752  1.0137  2.5459 -0.2795
18247TIP3    H276157   1.912   5.119  12.885 -0.3293  1.4365  0.1901
18248TIP3   OH276158   1.945   4.602  17.164 -0.3645  0.0486  0.1823
18248TIP3    H176159   1.879   4.663  17.133 -1.0509 -0.5871  0.3835
18248TIP3    H276160   2.027   4.653  17.163 -1.0431  1.2261  1.1070
18249TIP3   OH276161   5.009   5.231  16.167  0.7010  0.4421  0.9835
18249TIP3    H176162   5.104   5.218  16.161  0.6682  0.8123 -0.9890
18249TIP3    H276163   4.972   5.145  16.145  0.5970  0.9921 -1.2337
18250TIP3   OH276164   1.992   3.582  10.907  0.0441 -0.1961 -0.0230
18250TIP3    H176165   1.906   3.567  10.946 -1.8219  2.3487 -2.7868
18250TIP3    H276166   1.994   3.676  10.889  3.6715 -0.0557  0.3644
18251TIP3   OH276167   4.783   5.750  10.824  0.5463 -0.2593 -0.1232
18251TIP3    H176168   4.711   5.751  10.760  1.9951 -0.3526 -1.8433
18251TIP3    H276169   4.833   5.829  10.805  1.7934 -1.0054 -0.0553
18252TIP3   OH276170   3.746   3.248  15.194  0.5574  0.2131  0.3476
18252TIP3    H176171   3.789   3.163  15.182  0.9968  0.4541  0.2023
18252TIP3    H276172   3.806   3.311  15.155 -1.2257  0.2785 -2.6183
18253TIP3   OH276173   2.476   3.051   4.589 -0.5871 -0.0775 -0.2869
18253TIP3    H176174   2.525   3.040   4.670 -2.4427 -1.0453  0.7695
18253TIP3    H276175   2.498   3.140   4.560  0.8612 -0.0729  0.7258
18254TIP3   OH276176   1.976   6.356  11.635 -0.2646 -0.2263  0.0864
18254TIP3    H176177   2.027   6.398  11.704  0.0166 -0.9453  0.3244
18254TIP3    H276178   1.905   6.312  11.681 -0.9667  0.5585 -0.2223
18255TIP3   OH276179   4.493   0.319   5.389 -0.3683  0.1316 -0.5215
18255TIP3    H176180   4.498   0.262   5.312 -0.3374 -0.8580  0.1959
18255TIP3    H276181   4.568   0.378   5.379 -0.3379 -0.0148 -1.2272
18256TIP3   OH276182   2.526   0.107   0.637 -0.1299 -0.0044 -0.5599
18256TIP3    H176183   2.499   0.197   0.657  0.6339  0.6612 -2.3010
18256TIP3    H276184   2.622   0.109   0.645 -0.0981 -0.6275 -0.7691
18257TIP3   OH276185   1.882   0.769  14.463 -0.2744 -0.1255 -0.1014
18257TIP3    H176186   1.897   0.688  14.415  1.3876 -1.4777  2.4421
18257TIP3    H276187   1.788   0.768  14.483 -1.1214  0.7071 -3.4413
18258TIP3   OH276188   5.283   1.215  12.435  0.4047 -0.3626  0.2193
18258TIP3    H176189   5.244   1.164  12.365  2.7638  1.2258 -2.4469
18258TIP3    H276190   5.233   1.297  12.437 -1.2898 -1.3652  2.2598
18259TIP3   OH276191   2.423   3.625   1.433 -0.1727  0.2632 -0.2761
18259TIP3    H176192   2.394   3.685   1.364 -1.5677  1.1676  1.0219
18259TIP3    H276193   2.341   3.589   1.468  0.5025 -0.0535  1.0081
18260TIP3   OH276194   2.861   5.936  14.651  0.2268 -0.0305  0.3551
18260TIP3    H176195   2.886   6.003  14.715 -0.7352 -0.7938  1.5914
18260TIP3    H276196   2.783   5.971  14.609  0.1976 -0.0236  0.4153
18261TIP3   OH276197   1.549   4.496   1.460  0.2712  0.2692  0.1929
18261TIP3    H176198   1.589   4.426   1.511 -1.7285 -1.1590 -0.0972
18261TIP3    H276199   1.480   4.530   1.517 -0.3795  0.3199 -0.6067
18262TIP3   OH276200   1.022   5.315   5.759  0.0529  0.3294  0.3493
18262TIP3    H176201   1.070   5.310   5.676  2.9356  2.2756  1.7493
18262TIP3    H276202   1.065   5.251   5.815 -2.6632 -1.8779  0.1671
18263TIP3   OH276203   4.460   5.484  10.988  0.1352 -0.0062  0.2333
18263TIP3    H176204   4.461   5.549  10.917  1.2912 -1.1665 -0.8481
18263TIP3    H276205   4.425   5.532  11.063 -0.1261  1.5516 -0.8355
18264TIP3   OH276206   6.208   6.071   3.949  0.5086  0.1897  0.3843
18264TIP3    H176207   6.171   6.034   4.030  0.9542 -1.5689 -0.1626
18264TIP3    H276208   6.263   6.001   3.915  0.0075  0.7417 -1.6629
18265TIP3   OH276209   1.169   1.583   5.410  0.0123 -0.3290 -0.2330
18265TIP3    H176210   1.162   1.526   5.486 -0.0670 -0.2163 -0.1554
18265TIP3    H276211   1.241   1.546   5.358 -1.1859 -1.5444 -1.0933
18266TIP3   OH276212   2.959   0.649  11.718 -0.6108  0.1154  0.2140
18266TIP3    H176213   2.895   0.604  11.773  0.1278 -0.7068  0.4270
18266TIP3    H276214   3.037   0.595  11.723 -0.0710  0.8018 -0.4951
18267TIP3   OH276215   3.542   5.110  17.105  0.0070  0.1459  0.0763
18267TIP3    H176216   3.580   5.107  17.018  1.6057  0.9652  0.6994
18267TIP3    H276217   3.540   5.018  17.133  0.4535 -0.0197 -0.4177
18268TIP3   OH276218   0.832   2.555  14.228  0.6410  0.2850 -0.1200
18268TIP3    H176219   0.748   2.515  14.252  1.1586 -1.8962 -1.6126
18268TIP3    H276220   0.883   2.553  14.309 -0.3870  0.7057  0.5596
18269TIP3   OH276221   5.687   4.094   0.110 -0.3391  0.0098  0.3309
18269TIP3    H176222   5.722   4.105   0.199  0.8439  0.7751 -0.2142
18269TIP3    H276223   5.683   3.999   0.098  0.5536 -0.0998  0.7930
18270TIP3   OH276224   2.927   0.889   5.838  0.1456 -0.1569  0.1744
18270TIP3    H176225   2.969   0.814   5.880  2.5617  0.8178 -0.2982
18270TIP3    H276226   2.987   0.913   5.767 -0.5657  2.1578  0.2830
18271TIP3   OH276227   3.880   0.225   1.370  0.0577  0.4828  0.7026
18271TIP3    H176228   3.798   0.197   1.411  0.5003 -0.0324  1.2596
18271TIP3    H276229   3.934   0.253   1.444  1.2575 -1.4464  0.6257
18272TIP3   OH276230   1.090   2.732  15.749  0.1679 -0.3910 -0.0665
18272TIP3    H176231   1.086   2.759  15.841  3.3881  0.7738 -0.1289
18272TIP3    H276232   1.099   2.637  15.752  0.3836 -0.3482  0.8429
18273TIP3   OH276233   2.511   0.086  15.457  0.3605 -0.5313  0.0306
18273TIP3    H176234   2.453   0.032  15.511  0.0959  0.7842  1.1149
18273TIP3    H276235   2.472   0.084  15.370 -0.5801 -0.7269  0.4482
18274TIP3   OH276236   0.631   5.091   2.146  0.2055  0.2384 -0.9971
18274TIP3    H176237   0.544   5.113   2.112  1.1698  1.1633 -3.0683
18274TIP3    H276238   0.628   5.116   2.239 -1.7225  0.2476 -1.0319
18275TIP3   OH276239   2.438   1.097   3.057 -0.4067 -0.2413 -0.1503
18275TIP3    H176240   2.405   1.101   3.147 -2.4618 -0.3745 -0.8542
18275TIP3    H276241   2.499   1.023   3.058  0.0740  0.1412  1.2598
18276TIP3   OH276242   0.706   1.402  15.993 -0.9289 -0.2970 -0.1808
18276TIP3    H176243   0.705   1.424  15.900  1.1044 -0.1190 -0.2218
18276TIP3    H276244   0.683   1.485  16.037  0.4329  0.2753 -0.4952
18277TIP3   OH276245   4.495   2.757  13.718  0.0048  0.1616  0.6010
18277TIP3    H176246   4.419   2.700  13.712  0.8557 -1.0318  0.6337
18277TIP3    H276247   4.509   2.768  13.812 -1.7699  2.7561  0.6737
18278TIP3   OH276248   5.971   3.888   1.693 -0.1922  0.3996 -0.0501
18278TIP3    H176249   5.952   3.922   1.781  1.2262  1.0263  0.0529
18278TIP3    H276250   6.016   3.961   1.649 -0.2717 -0.1472 -1.0621
18279TIP3   OH276251   4.604   2.899   1.250 -0.0756 -0.1189 -0.0857
18279TIP3    H176252   4.641   2.875   1.336 -3.1875  0.2374  1.4864
18279TIP3    H276253   4.633   2.989   1.236 -0.8203  0.3892  1.4158
18280TIP3   OH276254   6.492   1.859  11.931  0.6283 -0.5347 -0.2788
18280TIP3    H176255   6.572   1.886  11.886  0.7456 -0.8313 -0.2470
18280TIP3    H276256   6.424   1.865  11.864  0.4375  0.9049 -0.0062
18281TIP3   OH276257   5.690   3.852  16.968  0.1890  0.4146 -0.6314
18281TIP3    H176258   5.782   3.878  16.956  1.8620 -4.2048 -0.0590
18281TIP3    H276259   5.680   3.846  17.063  0.3982 -1.9433 -0.6991
18282TIP3   OH276260   6.726   6.222   6.467  0.5869 -0.3368 -0.0412
18282TIP3    H176261   6.716   6.298   6.524  1.2472 -0.4588  0.2429
18282TIP3    H276262   6.642   6.176   6.474  0.7984 -0.5755  1.1769
18283TIP3   OH276263   2.651   6.034   4.872 -0.7590  0.2746  0.6648
18283TIP3    H176264   2.698   6.084   4.939 -1.3055  1.2248  0.3661
18283TIP3    H276265   2.575   6.089   4.851  0.4678  1.0520 -2.2135
18284TIP3   OH276266   2.976   4.556   5.763  0.7661 -0.2895 -0.0013
18284TIP3    H176267   2.918   4.602   5.703  0.2279 -1.2143 -0.2026
18284TIP3    H276268   3.000   4.622   5.828 -0.2348  0.1894 -0.1031
18285TIP3   OH276269   5.568   4.066   1.131 -0.0879 -0.3011 -0.0776
18285TIP3    H176270   5.527   4.111   1.058  1.7007  0.8568 -0.4236
18285TIP3    H276271   5.499   4.061   1.198 -1.3021 -0.0509 -1.2632
18286TIP3   OH276272   3.134   6.439   6.164 -0.1082  0.1925 -0.1534
18286TIP3    H176273   3.127   6.352   6.204  0.8056  0.6370  1.0351
18286TIP3    H276274   3.046   6.476   6.173 -0.8295 -1.0155 -1.7294
18287TIP3   OH276275   1.936   2.485   3.184 -0.1557  0.3744  0.3028
18287TIP3    H176276   1.852   2.441   3.199  1.0908 -2.3881 -0.1342
18287TIP3    H276277   1.925   2.528   3.099 -0.4285 -2.1762 -1.0819
18288TIP3   OH276278   1.600   3.842  12.593 -0.1768  0.6460  0.0866
18288TIP3    H176279   1.560   3.845  12.506 -2.6343  1.8396  1.1526
18288TIP3    H276280   1.592   3.932  12.625  0.1497  0.1038  1.7687
18289TIP3   OH276281   0.920   1.548  11.967  0.1947  0.3136 -0.0703
18289TIP3    H176282   0.901   1.589  12.051 -0.1705  0.1015 -0.0481
18289TIP3    H276283   0.900   1.455  11.980 -0.5523  0.3888 -0.5932
18290TIP3   OH276284   1.070   4.346   5.111 -0.2088 -0.0630  0.2477
18290TIP3    H176285   1.136   4.415   5.101  0.5391 -0.7782  0.1621
18290TIP3    H276286   0.997   4.374   5.056  0.0152  0.7479  0.3527
18291TIP3   OH276287   2.960   0.508   0.793  0.2501  0.0882  0.4014
18291TIP3    H176288   2.930   0.570   0.860 -1.6280  0.7240 -0.9487
18291TIP3    H276289   3.049   0.485   0.820 -0.8957 -0.8723  3.9521
18292TIP3   OH276290   0.339   1.188  15.826 -0.1527 -0.1579 -0.5404
18292TIP3    H176291   0.358   1.202  15.919 -0.9881 -0.2039 -0.3613
18292TIP3    H276292   0.286   1.263  15.801 -0.0656 -0.2308 -0.9458
18293TIP3   OH276293   3.508   2.923  12.984 -0.1394 -0.6512 -0.0593
18293TIP3    H176294   3.565   2.913  13.060  1.8163  0.5694 -1.2669
18293TIP3    H276295   3.568   2.936  12.910 -1.9093  3.1056 -1.0979
18294TIP3   OH276296   3.307   0.919  16.337 -0.4647 -0.4336 -0.0500
18294TIP3    H176297   3.345   0.998  16.375 -2.3990  0.6604 -0.2489
18294TIP3    H276298   3.213   0.934  16.341 -0.8369 -1.3095 -3.0823
18295TIP3   OH276299   4.671   0.828   6.164 -0.2238  0.4951  0.3556
18295TIP3    H176300   4.641   0.819   6.073  1.3526  2.0141 -0.3811
18295TIP3    H276301   4.765   0.845   6.156 -0.2579  1.8111  2.2136
18296TIP3   OH276302   1.073   2.558   3.736  0.0630  0.3647  0.3490
18296TIP3    H176303   1.137   2.580   3.805  0.0887  0.8448  0.1775
18296TIP3    H276304   1.115   2.588   3.655 -0.0313 -0.0646  0.1434
18297TIP3   OH276305   1.447   0.663   3.575  0.3396 -0.3849  0.1650
18297TIP3    H176306   1.377   0.605   3.606 -0.4604  0.1013 -0.6631
18297TIP3    H276307   1.401   0.731   3.525  1.5449 -1.4020 -2.5136
18298TIP3   OH276308   0.399   5.052  11.838 -0.4752 -0.4054 -0.0074
18298TIP3    H176309   0.360   4.976  11.880 -1.9931  0.3638  0.0584
18298TIP3    H276310   0.411   5.026  11.747  0.4845 -1.2367  0.3476
18299TIP3   OH276311   4.101   2.054  10.415  0.5046 -0.3159 -0.4137
18299TIP3    H176312   4.116   1.988  10.347  0.1558  0.9385 -1.7549
18299TIP3    H276313   4.178   2.111  10.410  1.1918 -1.0173  1.2752
18300TIP3   OH276314   5.479   3.480  14.146 -0.7417  0.4435 -0.2312
18300TIP3    H176315   5.564   3.438  14.161 -0.2832  0.5868 -2.1722
18300TIP3    H276316   5.450   3.508  14.233  0.8701 -0.2194  0.5557
18301TIP3   OH276317   1.302   5.818  14.234  0.0594  0.3204  0.1590
18301TIP3    H176318   1.317   5.724  14.246 -1.5114  0.2284  1.8525
18301TIP3    H276319   1.246   5.822  14.156 -1.9561 -0.4523  1.4566
18302TIP3   OH276320   6.439   4.786  16.686 -0.0374  0.6478 -0.2894
18302TIP3    H176321   6.520   4.828  16.659 -0.5051  0.5206 -2.0174
18302TIP3    H276322   6.401   4.753  16.604 -1.0395 -0.6896  0.6740
18303TIP3   OH276323   4.855   4.409  13.884 -0.4604  0.1428 -0.3311
18303TIP3    H176324   4.848   4.393  13.790 -1.8097 -1.0660 -0.0773
18303TIP3    H276325   4.814   4.332  13.923 -0.0628  0.7056  1.2482
18304TIP3   OH276326   6.742   2.181  15.570  0.1772 -0.2796 -0.3066
18304TIP3    H176327   6.716   2.273  15.564  0.6911 -0.0444  0.8863
18304TIP3    H276328   6.819   2.174  15.513 -0.4244 -0.2029 -1.1467
18305TIP3   OH276329   3.622   3.632   5.585 -0.2882 -0.0553 -0.0237
18305TIP3    H176330   3.554   3.573   5.551  0.4761 -0.8481 -0.2056
18305TIP3    H276331   3.645   3.595   5.670 -0.3801  0.4528  0.2220
18306TIP3   OH276332   0.920   5.060   0.655 -0.0671 -0.3613  0.4557
18306TIP3    H176333   1.010   5.067   0.624 -0.5216  2.0873 -0.5269
18306TIP3    H276334   0.890   4.976   0.621  1.7538 -1.1342  0.6316
18307TIP3   OH276335   3.311   1.730  14.127 -0.1075 -0.0664  0.0235
18307TIP3    H176336   3.265   1.722  14.210  1.0788 -0.3824  0.6606
18307TIP3    H276337   3.352   1.817  14.131  1.5659 -0.8540  0.6263
18308TIP3   OH276338   1.656   3.393   3.979  0.0044 -0.2876  0.0631
18308TIP3    H176339   1.601   3.471   3.985  0.5966  0.3655 -2.1121
18308TIP3    H276340   1.691   3.382   4.068 -1.0566  1.1829  0.7088
18309TIP3   OH276341   2.300   1.354  16.680  0.4668 -0.2159  0.0198
18309TIP3    H176342   2.205   1.352  16.671  0.4285 -0.4645  0.4766
18309TIP3    H276343   2.331   1.396  16.599 -0.0606  0.3388  0.0954
18310TIP3   OH276344   0.610   6.535  16.667 -1.1199  0.6235 -0.0481
18310TIP3    H176345   0.574   6.620  16.642 -1.0996  1.0197  1.2146
18310TIP3    H276346   0.552   6.471  16.624 -0.5151  1.2308 -1.8896
18311TIP3   OH276347   4.302   5.570   2.025  0.6143 -0.7306 -0.4416
18311TIP3    H176348   4.366   5.555   1.955  1.6083  0.7054  0.1003
18311TIP3    H276349   4.343   5.533   2.103 -0.4379 -2.2197 -0.5621
18312TIP3   OH276350   2.428   4.625  14.385  0.2334  0.2611 -0.8649
18312TIP3    H176351   2.405   4.599  14.474  1.9179  0.4250 -0.3344
18312TIP3    H276352   2.373   4.571  14.329 -1.4100  0.6903  0.2547
18313TIP3   OH276353   3.659   6.403  12.002 -0.4901 -0.1687 -0.3801
18313TIP3    H176354   3.577   6.372  12.040 -1.0808  0.2968 -1.2451
18313TIP3    H276355   3.715   6.421  12.077 -1.9518  1.6254  0.3618
18314TIP3   OH276356   1.610   1.685   0.169  0.2918 -0.3031 -0.4937
18314TIP3    H176357   1.524   1.664   0.206 -0.7752  1.8398 -1.5577
18314TIP3    H276358   1.599   1.772   0.132  3.4048  0.7336  0.7014
18315TIP3   OH276359   2.541   0.832   3.157  0.1650  0.0287 -0.5472
18315TIP3    H176360   2.543   0.785   3.074 -1.1666 -1.5242  0.2321
18315TIP3    H276361   2.536   0.763   3.223 -0.6014  1.2420  0.7237
18316TIP3   OH276362   2.352   1.052  16.195 -0.2806  0.1268  0.2035
18316TIP3    H176363   2.391   0.982  16.143  0.3290  0.8007 -0.2628
18316TIP3    H276364   2.314   1.112  16.130 -0.0721  0.6532  0.5635
18317TIP3   OH276365   4.579   4.246   1.761  0.3223  0.3413  0.5873
18317TIP3    H176366   4.668   4.252   1.795  1.0411 -1.1482 -0.8725
18317TIP3    H276367   4.543   4.167   1.801  0.9622 -1.0747 -1.4747
18318TIP3   OH276368   6.509   4.710  12.479 -0.2770  0.4053  0.5652
18318TIP3    H176369   6.499   4.754  12.394 -0.2510  1.1489  0.9360
18318TIP3    H276370   6.472   4.623  12.466  1.4624 -0.1889 -0.7646
18319TIP3   OH276371   5.491   6.312   1.977  0.0264  0.3207  0.0586
18319TIP3    H176372   5.513   6.361   1.898  0.1945 -0.7470 -0.5658
18319TIP3    H276373   5.403   6.343   2.000  1.0643  2.7778  1.1462
18320TIP3   OH276374   3.412   4.206  11.320  0.3664 -0.2800 -0.2793
18320TIP3    H176375   3.325   4.179  11.292 -0.3054  1.9369 -0.4622
18320TIP3    H276376   3.471   4.160  11.260 -0.6370 -1.7020 -0.2500
18321TIP3   OH276377   6.687   0.865   0.413  0.2821  0.3000  0.2726
18321TIP3    H176378   6.729   0.782   0.393 -0.9988 -0.5849  1.0912
18321TIP3    H276379   6.653   0.854   0.502 -0.6707  1.3797  0.0704
18322TIP3   OH276380   3.435   6.518  16.679 -0.1684 -0.4650 -0.2407
18322TIP3    H176381   3.477   6.446  16.726  1.1803  0.7143  0.4182
18322TIP3    H276382   3.460   6.504  16.587  0.4193 -0.6120 -0.0604
18323TIP3   OH276383   6.351   2.000   4.882 -0.4622 -0.3739 -0.0065
18323TIP3    H176384   6.353   2.078   4.937  0.4764  0.5902 -1.3751
18323TIP3    H276385   6.438   1.962   4.892 -0.6248 -0.7637 -0.0555
18324TIP3   OH276386   0.969   3.646  11.555  0.5687  0.2604  0.5133
18324TIP3    H176387   0.921   3.711  11.606  1.3319 -0.4302  2.2013
18324TIP3    H276388   0.947   3.562  11.596  2.0049 -0.2224  0.3741
18325TIP3   OH276389   1.690   6.618   2.600  0.2156  0.2485 -0.7715
18325TIP3    H176390   1.736   6.543   2.635 -0.2552  1.5177  2.9720
18325TIP3    H276391   1.600   6.589   2.590  0.6686 -0.6360 -2.8818
18326TIP3   OH276392   0.434   4.436   4.497  0.6136 -0.7645  0.2824
18326TIP3    H176393   0.396   4.509   4.547 -0.9849 -0.2208 -1.5930
18326TIP3    H276394   0.412   4.456   4.406  0.8870 -3.1594 -0.3649
18327TIP3   OH276395   1.810   6.382   3.082  0.1464  0.0273 -0.1759
18327TIP3    H176396   1.759   6.381   3.163 -0.7178  0.0542 -0.7139
18327TIP3    H276397   1.771   6.314   3.027  0.8919 -0.1731 -0.4779
18328TIP3   OH276398   6.350   2.751  16.571 -0.0231  0.9507 -0.2349
18328TIP3    H176399   6.270   2.782  16.527 -1.5665 -2.2577  0.0588
18328TIP3    H276400   6.348   2.795  16.656 -1.5963  0.8152 -0.1655
18329TIP3   OH276401   3.879   5.918  13.104 -0.0715 -0.0974 -0.0122
18329TIP3    H176402   3.873   5.948  13.195 -0.0695  2.6573 -0.8247
18329TIP3    H276403   3.861   5.824  13.108 -2.7767  0.3954  2.5094
18330TIP3   OH276404   1.313   3.549  15.963 -0.8735 -0.1548  0.0883
18330TIP3    H176405   1.352   3.478  15.911 -0.9452  0.9528 -1.5284
18330TIP3    H276406   1.282   3.505  16.043 -2.0904 -2.2281 -1.4029
18331TIP3   OH276407   5.540   0.094   3.882 -0.0669  0.5677 -0.1404
18331TIP3    H176408   5.489   0.018   3.854 -2.4787  1.3031  1.9020
18331TIP3    H276409   5.612   0.057   3.932  0.3050 -0.4453 -1.3806
18332TIP3   OH276410   3.369   3.213   1.259 -0.2077  1.2289  0.0866
18332TIP3    H176411   3.350   3.304   1.281 -0.9140  0.6533  2.0388
18332TIP3    H276412   3.419   3.180   1.333 -1.8906 -0.5820  0.4834
18333TIP3   OH276413   2.991   2.149   2.192  0.0852 -0.3081  0.1981
18333TIP3    H176414   2.920   2.211   2.177 -1.0473 -1.5486  0.2148
18333TIP3    H276415   2.990   2.132   2.286 -0.8293 -1.7021 -0.0342
18334TIP3   OH276416   1.658   5.908   0.004  0.0607 -0.5930  0.7590
18334TIP3    H176417   1.710   5.828   0.009  0.5645 -0.2081  2.1461
18334TIP3    H276418   1.722   5.978  -0.013 -0.4946 -0.5572 -1.6563
18335TIP3   OH276419   0.371   3.687   0.614 -0.0429  0.3280 -0.3555
18335TIP3    H176420   0.378   3.600   0.652 -0.0821  0.3599 -0.2739
18335TIP3    H276421   0.452   3.698   0.564 -1.2677 -0.8735 -2.7656
18336TIP3   OH276422   6.290   2.254   6.083 -0.7672  0.6989  0.1370
18336TIP3    H176423   6.224   2.224   6.146 -0.2301 -0.0317  0.3683
18336TIP3    H276424   6.358   2.293   6.138  0.4018 -1.2681  0.1549
18337TIP3   OH276425   5.048   6.022   5.548 -0.1017  0.3129  0.1768
18337TIP3    H176426   5.060   5.971   5.628  0.0886  1.4543  0.9010
18337TIP3    H276427   5.131   6.067   5.536  0.3356 -0.8490 -1.4208
18338TIP3   OH276428   4.523   1.045  14.653 -0.1243  0.6089  0.2935
18338TIP3    H176429   4.475   0.967  14.624 -1.4869  1.0242  1.3093
18338TIP3    H276430   4.561   1.020  14.737 -0.4586  0.9731  0.5613
18339TIP3   OH276431   0.380   3.708   1.823  0.2495  0.6139 -0.3346
18339TIP3    H176432   0.382   3.629   1.769 -0.8456  0.6935 -0.5181
18339TIP3    H276433   0.379   3.780   1.759  5.0460  1.0751 -0.2863
18340TIP3   OH276434   2.202   2.073   3.554 -0.2947 -0.0328 -0.1288
18340TIP3    H176435   2.223   2.006   3.489 -0.5024 -0.6405  0.4170
18340TIP3    H276436   2.178   2.150   3.502  0.4054 -0.2234 -0.7637
18341TIP3   OH276437   3.423   2.558   5.382 -0.9393 -0.2885  0.0335
18341TIP3    H176438   3.421   2.653   5.389  0.6274 -0.0200 -1.9385
18341TIP3    H276439   3.352   2.537   5.321 -0.6072 -0.2554 -0.3687
18342TIP3   OH276440   3.986   6.201  10.582 -0.6737 -0.5747 -0.2530
18342TIP3    H176441   4.047   6.141  10.539 -0.4350 -1.4598  1.2423
18342TIP3    H276442   3.905   6.152  10.590 -1.3027  0.2480 -1.3340
18343TIP3   OH276443   4.073   5.032   2.906 -0.3919 -0.1149 -0.2293
18343TIP3    H176444   4.133   5.054   2.978  0.3437 -1.4719 -0.4053
18343TIP3    H276445   4.052   4.940   2.920  1.8365 -1.2319 -3.1576
18344TIP3   OH276446   3.287   3.741   5.409  0.1313  0.2401 -0.0573
18344TIP3    H176447   3.343   3.817   5.421 -0.2975  0.7283 -1.0874
18344TIP3    H276448   3.200   3.771   5.432  0.0427 -0.0875  0.0440
18345TIP3   OH276449   5.054   0.955  16.357 -0.3459  0.0029  0.2021
18345TIP3    H176450   5.149   0.952  16.346 -0.4445  0.5669 -0.9128
18345TIP3    H276451   5.041   0.973  16.451  0.6677  1.0913  0.1488
18346TIP3   OH276452   6.786   4.833  14.408  0.4318  0.2175 -0.3054
18346TIP3    H176453   6.717   4.898  14.422  0.2502  1.6214 -5.6459
18346TIP3    H276454   6.747   4.750  14.438 -2.1831  1.5009  0.1466
18347TIP3   OH276455   4.600   3.706  14.763  0.3951  0.0353  0.4113
18347TIP3    H176456   4.507   3.722  14.783  0.4752 -0.3589  1.1505
18347TIP3    H276457   4.637   3.794  14.752  0.1016  0.2374  0.9488
18348TIP3   OH276458   0.094   3.322   3.539 -0.0395 -0.7970  0.4983
18348TIP3    H176459   0.126   3.342   3.627  1.0698  3.4423 -0.6202
18348TIP3    H276460   0.150   3.250   3.509  2.4449  0.4119  1.8971
18349TIP3   OH276461   3.088   4.356   5.398 -0.1839 -0.4749  0.0400
18349TIP3    H176462   3.112   4.280   5.452  0.0489 -1.3733 -1.2688
18349TIP3    H276463   3.136   4.343   5.316 -0.5438  0.8336 -0.3994
18350TIP3   OH276464   4.030   5.515  12.051  0.0692  0.3677  0.1847
18350TIP3    H176465   4.013   5.549  11.963 -0.1997 -1.0517 -0.3419
18350TIP3    H276466   3.954   5.461  12.071  0.1775  0.5925  1.2588
18351TIP3   OH276467   4.870   3.437   6.574 -0.4714 -0.5197 -0.1279
18351TIP3    H176468   4.907   3.491   6.643 -0.4947 -0.0942 -0.4435
18351TIP3    H276469   4.842   3.357   6.618 -1.5744  0.2188  0.5697
18352TIP3   OH276470   1.279   4.872   0.878  0.2568  0.1485  0.0850
18352TIP3    H176471   1.223   4.940   0.840  0.3184 -0.7982 -1.8481
18352TIP3    H276472   1.220   4.801   0.900  0.4741 -0.1112 -0.1663
18353TIP3   OH276473   1.364   5.991   3.732 -0.2215  0.6684 -0.2206
18353TIP3    H176474   1.322   6.076   3.743  0.0609  0.8143 -0.2587
18353TIP3    H276475   1.442   6.010   3.680 -0.6621  0.2472 -1.0699
18354TIP3   OH276476   1.877   1.787   0.126 -0.7572  0.1688 -0.0347
18354TIP3    H176477   1.919   1.823   0.204 -0.8102  0.0216  0.0633
18354TIP3    H276478   1.793   1.753   0.157 -0.7448  0.0378 -0.1403
18355TIP3   OH276479   0.282   6.004  14.278  0.3901 -0.0713 -0.2265
18355TIP3    H176480   0.323   5.943  14.217 -0.1182 -0.1660 -0.4833
18355TIP3    H276481   0.341   6.008  14.353  0.1387 -1.3354  0.0520
18356TIP3   OH276482   5.923   5.124   4.046 -0.3950 -0.7508 -0.5241
18356TIP3    H176483   5.904   5.114   3.953  0.2238 -1.1908 -0.6071
18356TIP3    H276484   5.914   5.218   4.062 -1.3540 -0.7761 -0.8347
18357TIP3   OH276485   1.571   1.537  14.582 -0.2660  0.2780 -0.4382
18357TIP3    H176486   1.573   1.605  14.649  0.6279  0.4655 -0.6439
18357TIP3    H276487   1.570   1.455  14.632  2.0204  0.3624 -0.1264
18358TIP3   OH276488   5.011   1.334   4.821 -0.1658 -0.5126 -0.2573
18358TIP3    H176489   5.070   1.314   4.893 -1.1268 -0.6434  0.5042
18358TIP3    H276490   5.016   1.257   4.764  0.1514 -0.6472 -0.0510
18359TIP3   OH276491   0.740   2.506  11.318 -0.3503 -0.6337  0.3024
18359TIP3    H176492   0.829   2.477  11.299  0.2481  0.6655  0.9299
18359TIP3    H276493   0.736   2.595  11.283 -2.0806 -1.3587 -1.5271
18360TIP3   OH276494   4.499   3.702  12.080  0.3808 -0.0139  0.0569
18360TIP3    H176495   4.437   3.633  12.104 -0.7436  0.3126 -1.7213
18360TIP3    H276496   4.507   3.756  12.159  1.0040 -1.9181  1.3613
18361TIP3   OH276497   4.294   5.661  16.992  0.3019 -0.5088  0.3074
18361TIP3    H176498   4.261   5.690  16.907  0.0341 -0.4413  0.4348
18361TIP3    H276499   4.217   5.625  17.036  0.1917  0.5235  0.9900
18362TIP3   OH276500   0.373   4.300   4.916 -0.2208 -0.1512  0.1498
18362TIP3    H176501   0.352   4.210   4.889  0.7592  0.3675 -2.7733
18362TIP3    H276502   0.296   4.351   4.890  0.4045  0.2382 -1.0407
18363TIP3   OH276503   4.363   6.701  16.850  0.0949  0.5463  0.1087
18363TIP3    H176504   4.402   6.737  16.930  2.0908  0.4738 -0.7868
18363TIP3    H276505   4.278   6.746  16.843  1.2013  2.8552  0.6211
18364TIP3   OH276506   3.094   0.829   5.064  0.0726  0.5694 -0.2873
18364TIP3    H176507   3.156   0.763   5.033  0.0591  1.6431 -2.8816
18364TIP3    H276508   3.019   0.821   5.005 -0.8218  1.5117  0.6806
18365TIP3   OH276509   2.420   2.973  14.339  0.0067 -0.8129 -0.1748
18365TIP3    H176510   2.331   2.948  14.362 -0.2374 -1.0449 -1.3163
18365TIP3    H276511   2.417   3.069  14.333 -0.5947 -0.9011 -1.8023
18366TIP3   OH276512   6.568   6.679   0.831  0.2350 -0.3818  0.3047
18366TIP3    H176513   6.608   6.730   0.902 -0.3723 -2.5696  2.3342
18366TIP3    H276514   6.633   6.612   0.810  0.5840  0.4999 -1.5758
18367TIP3   OH276515   4.013   1.074  10.967  0.3606 -0.9228  0.7858
18367TIP3    H176516   4.006   1.127  10.888 -0.0950  0.3447  1.6527
18367TIP3    H276517   4.066   0.998  10.940  0.4766 -0.3680 -0.6406
18368TIP3   OH276518   2.897   1.414  13.249  0.3503 -0.0539 -0.3611
18368TIP3    H176519   2.872   1.405  13.341 -0.5476  1.1225 -0.4634
18368TIP3    H276520   2.846   1.489  13.218  0.6764 -0.4098 -1.8112
18369TIP3   OH276521   1.431   4.666   3.427  0.3758 -0.0055 -0.2373
18369TIP3    H176522   1.453   4.718   3.349 -0.5187 -0.4052 -0.7742
18369TIP3    H276523   1.476   4.583   3.414  1.4894  0.4842  0.4323
18370TIP3   OH276524   4.257   1.109  14.920 -0.3120 -0.2304  0.3849
18370TIP3    H176525   4.282   1.065  15.001  0.2852 -0.9225 -0.1660
18370TIP3    H276526   4.306   1.191  14.921 -0.7887  0.0560  1.0162
18371TIP3   OH276527   6.609   4.330  11.428  0.3188 -0.3927 -0.5134
18371TIP3    H176528   6.514   4.333  11.416  0.3703  1.7909 -0.7923
18371TIP3    H276529   6.621   4.350  11.521  0.5020 -1.8177 -0.2048
18372TIP3   OH276530   3.875   0.033  16.154  0.4273 -0.0543 -0.2633
18372TIP3    H176531   3.791  -0.011  16.139  0.6803 -0.6902  0.1785
18372TIP3    H276532   3.931  -0.034  16.193  0.3208  1.0889  1.9667
18373TIP3   OH276533   0.332   4.034  14.135 -0.3707 -0.3266  0.8963
18373TIP3    H176534   0.329   4.061  14.227  2.0204  0.8042  0.7065
18373TIP3    H276535   0.414   3.987  14.125 -1.9859 -3.1640 -0.0549
18374TIP3   OH276536   5.901   6.310   4.446 -0.1290 -0.3031 -0.4888
18374TIP3    H176537   5.861   6.382   4.495 -1.0298 -1.2739  0.2633
18374TIP3    H276538   5.827   6.252   4.425  0.6387 -1.2579 -0.6247
18375TIP3   OH276539   2.380   6.287  11.801 -0.0527 -0.8422  0.5775
18375TIP3    H176540   2.430   6.222  11.751 -0.9426 -1.6672  0.7388
18375TIP3    H276541   2.379   6.365  11.745  0.8559 -1.0198  0.2964
18376TIP3   OH276542   3.223   2.391   5.282 -0.4183 -0.0420  0.1957
18376TIP3    H176543   3.176   2.417   5.203  0.5811  0.0020 -0.3958
18376TIP3    H276544   3.163   2.332   5.327 -1.7961  1.4095  0.3853
18377TIP3   OH276545   1.462   0.387  13.253 -0.7588  0.3704  0.0930
18377TIP3    H176546   1.400   0.439  13.202 -1.8965  0.8921  1.9032
18377TIP3    H276547   1.445   0.412  13.344  0.9865 -0.7178  0.7748
18378TIP3   OH276548   2.252   6.016   6.006 -0.1873 -0.2692 -0.4478
18378TIP3    H176549   2.252   6.040   5.913 -0.5014  1.7546  0.0147
18378TIP3    H276550   2.160   6.017   6.031  0.0050  1.3625  0.3412
18379TIP3   OH276551   4.741   3.415  15.261 -0.0771 -0.9474  0.5941
18379TIP3    H176552   4.673   3.463  15.215 -0.4941 -1.1347  1.0104
18379TIP3    H276553   4.817   3.474  15.260 -0.5813 -0.2833  1.1092
18380TIP3   OH276554   1.759   3.456   0.018 -0.0751  0.1197 -0.2940
18380TIP3    H176555   1.707   3.528  -0.019 -0.9678  0.0324  0.7752
18380TIP3    H276556   1.757   3.470   0.112 -0.0056 -1.1346 -0.0859
18381TIP3   OH276557   4.050   1.889  14.110 -0.1880  0.2293  0.3158
18381TIP3    H176558   4.098   1.968  14.086 -0.9706  0.3354 -1.0275
18381TIP3    H276559   4.023   1.904  14.200 -0.0128  1.3549  0.1976
18382TIP3   OH276560   3.447   2.630   0.730  0.2093 -0.5420  0.1803
18382TIP3    H176561   3.437   2.536   0.717  1.9763 -0.6863 -0.4254
18382TIP3    H276562   3.387   2.651   0.802 -0.0267 -2.1635  0.4973
18383TIP3   OH276563   5.899   1.667  13.049 -0.6653  0.4684  0.5248
18383TIP3    H176564   5.825   1.609  13.029 -0.1743 -0.4124  1.2124
18383TIP3    H276565   5.969   1.637  12.992  0.3773 -1.2990  2.5711
18384TIP3   OH276566   3.747   5.652  15.741 -0.3021  0.4964 -0.0163
18384TIP3    H176567   3.764   5.676  15.650 -2.0699  2.1489  0.0458
18384TIP3    H276568   3.791   5.720  15.793 -0.0520  0.0627  0.3533
18385TIP3   OH276569   4.836   3.354   4.487 -0.2500  0.1329 -0.2516
18385TIP3    H176570   4.763   3.327   4.432  1.3291 -1.2219 -1.8241
18385TIP3    H276571   4.858   3.275   4.538 -1.4307  1.2445  2.1552
18386TIP3   OH276572   6.304   4.211   4.962  0.4550  0.5396 -0.3130
18386TIP3    H176573   6.397   4.232   4.964  0.3864  0.8773 -0.5237
18386TIP3    H276574   6.265   4.269   5.027  0.5756 -0.6064  0.8221
18387TIP3   OH276575   3.990   2.003  11.280  0.2121 -0.1865  0.2982
18387TIP3    H176576   4.020   2.094  11.284  0.4496 -0.2493 -0.0193
18387TIP3    H276577   4.029   1.969  11.200  0.1910 -0.5929  0.4614
18388TIP3   OH276578   2.398   1.037   1.068 -0.5329  0.3425  0.4195
18388TIP3    H176579   2.422   1.064   1.157  1.9873 -1.3167  0.3684
18388TIP3    H276580   2.451   1.092   1.011 -1.7070  0.9938 -0.0818
18389TIP3   OH276581   4.105   0.313   4.110  0.1398  0.4768 -0.3370
18389TIP3    H176582   4.028   0.357   4.074 -0.2512  0.6301  0.6513
18389TIP3    H276583   4.082   0.295   4.201  1.0464 -0.0229 -0.1946
18390TIP3   OH276584   1.407   6.658   2.619  0.5991 -0.1046  0.0702
18390TIP3    H176585   1.335   6.680   2.678  0.4927 -1.1008  0.3361
18390TIP3    H276586   1.441   6.743   2.590  0.3050  0.4018  1.1360
18391TIP3   OH276587   3.504   4.949   3.288  0.2023  0.6260  0.3963
18391TIP3    H176588   3.546   5.028   3.255  1.8981 -1.1169 -1.9431
18391TIP3    H276589   3.419   4.946   3.242  0.0870  1.1194  0.5724
18392TIP3   OH276590   0.805   4.125   1.880 -0.4072  0.0349 -0.2896
18392TIP3    H176591   0.738   4.102   1.816 -0.4024  0.9931 -0.6521
18392TIP3    H276592   0.766   4.103   1.964 -1.5141  1.3073 -0.4339
18393TIP3   OH276593   3.484   6.233  14.020  0.0873  0.1478  0.3328
18393TIP3    H176594   3.430   6.288  13.963 -0.7234 -0.1668  0.7693
18393TIP3    H276595   3.514   6.162  13.963  1.9854  1.5247 -0.4918
18394TIP3   OH276596   3.245   4.860   5.538 -0.0752  0.7018 -0.4519
18394TIP3    H176597   3.223   4.783   5.486 -1.3088  0.8189 -0.1296
18394TIP3    H276598   3.202   4.933   5.492  0.5265  1.1104 -0.3850
18395TIP3   OH276599   3.812   2.623   1.980  0.4709 -0.3710  0.0815
18395TIP3    H176600   3.828   2.713   1.953  0.6133 -0.3499  0.2320
18395TIP3    H276601   3.880   2.605   2.045  0.0341 -0.3700  0.5440
18396TIP3   OH276602   5.864   1.287  11.189 -0.5082  0.2457 -0.1333
18396TIP3    H176603   5.808   1.348  11.237  1.0284  2.0712 -0.4881
18396TIP3    H276604   5.827   1.284  11.101 -0.7782  0.4533 -0.0278
18397TIP3   OH276605   6.682   4.580  14.503 -0.3564  0.5798 -0.1210
18397TIP3    H176606   6.683   4.565  14.598  0.7738  0.1930 -0.1714
18397TIP3    H276607   6.720   4.500  14.466  2.5217  2.0556 -0.6429
18398TIP3   OH276608   5.475   0.872  13.198  0.1249 -0.1370  0.0854
18398TIP3    H176609   5.440   0.912  13.118 -1.4149 -2.7384 -0.6696
18398TIP3    H276610   5.415   0.902  13.267 -1.9350 -2.1532 -0.7109
18399TIP3   OH276611   2.890   0.473  15.302  0.6579 -0.3546  0.0644
18399TIP3    H176612   2.858   0.395  15.348  0.3461  0.0761  0.5776
18399TIP3    H276613   2.815   0.503  15.250  1.5900 -2.0873 -2.4956
18400TIP3   OH276614   5.457   0.279   4.062 -0.3253 -0.2347 -0.7048
18400TIP3    H176615   5.370   0.315   4.079  0.1674  0.5308  0.3454
18400TIP3    H276616   5.449   0.234   3.978 -1.7175 -0.1467 -0.6335
18401TIP3   OH276617   6.702   3.975   5.102 -0.6527 -0.2796  0.1417
18401TIP3    H176618   6.775   3.913   5.111 -0.4991 -0.1021  0.1175
18401TIP3    H276619   6.691   3.986   5.008 -0.1200  0.3887  0.1513
18402TIP3   OH276620   4.568   6.250   0.446 -0.2828  0.3253 -0.5909
18402TIP3    H176621   4.627   6.175   0.432 -2.6552 -1.7644 -0.2243
18402TIP3    H276622   4.527   6.263   0.361 -0.2409  0.8875 -0.5245
18403TIP3   OH276623   5.186   3.494  11.782  0.3690  0.2730  0.4400
18403TIP3    H176624   5.183   3.473  11.875  0.4605 -1.9513 -0.0150
18403TIP3    H276625   5.099   3.531  11.764 -0.9333 -2.3324  0.8124
18404TIP3   OH276626   3.143   2.159  14.390  0.0580 -0.2970  0.4249
18404TIP3    H176627   3.163   2.219  14.318  1.9532 -1.1059  0.2240
18404TIP3    H276628   3.148   2.214  14.469 -1.0366  0.3771  0.0467
18405TIP3   OH276629   6.163   4.902   3.911  0.1436  0.0487 -0.6007
18405TIP3    H176630   6.220   4.977   3.894  0.9566 -0.4980 -0.3488
18405TIP3    H276631   6.076   4.931   3.883  0.7766  0.4161 -2.3237
18406TIP3   OH276632   3.866   0.798   3.790 -0.0495 -0.1858  0.3487
18406TIP3    H176633   3.787   0.810   3.841 -1.3606 -1.5827 -1.2410
18406TIP3    H276634   3.878   0.703   3.785  2.1773 -0.0103  1.1715
18407TIP3   OH276635   5.929   1.739   4.659 -0.3038  0.1158 -0.4927
18407TIP3    H176636   6.000   1.680   4.633  0.9234  0.9601  0.8129
18407TIP3    H276637   5.942   1.752   4.753 -2.8088 -0.4940  0.0248
18408TIP3   OH276638   4.408   6.219  11.528  0.2985 -0.0658  0.8253
18408TIP3    H176639   4.351   6.180  11.462  0.3988 -1.0589  1.3018
18408TIP3    H276640   4.478   6.260  11.478 -0.1173 -0.0043  0.2856
18409TIP3   OH276641   0.794   5.997   3.923  0.8578 -0.0541  0.5971
18409TIP3    H176642   0.778   5.909   3.957  2.2949 -0.4992  0.1740
18409TIP3    H276643   0.867   6.030   3.975  0.6900  0.6811  0.3823
18410TIP3   OH276644   5.831   3.373  12.429 -0.7527  0.5931 -0.2030
18410TIP3    H176645   5.884   3.425  12.489 -1.0224 -0.2624  0.8106
18410TIP3    H276646   5.891   3.346  12.360 -0.0592  0.3220  0.4940
18411TIP3   OH276647   6.404   4.627  14.097  0.2815  0.6880 -0.3276
18411TIP3    H176648   6.330   4.580  14.136  0.5775  1.2959  0.9921
18411TIP3    H276649   6.444   4.562  14.038 -0.2673 -0.2038  0.2515
18412TIP3   OH276650   1.534   5.383  17.013 -0.0791 -0.2740  0.4215
18412TIP3    H176651   1.462   5.352  17.069 -1.3485  0.6838 -0.6380
18412TIP3    H276652   1.517   5.343  16.928  0.6074  0.0458  0.1277
18413TIP3   OH276653   4.706   4.517   3.911  0.3206 -0.3020 -0.2806
18413TIP3    H176654   4.708   4.458   3.986  0.5339  1.9795  1.6165
18413TIP3    H276655   4.767   4.587   3.934 -2.0576  2.1943 -1.0591
18414TIP3   OH276656   0.740   1.534  15.184  0.3322  1.0870 -0.0852
18414TIP3    H176657   0.669   1.597  15.171 -0.4948 -0.0636 -1.4334
18414TIP3    H276658   0.769   1.512  15.096  3.2350  2.3970  0.4381
18415TIP3   OH276659   1.989   5.708   2.195 -0.1415  0.0447 -0.0751
18415TIP3    H176660   2.080   5.678   2.189  0.2860  1.4985 -1.8227
18415TIP3    H276661   1.937   5.631   2.173  0.7201 -0.4917 -0.2857
18416TIP3   OH276662   0.311   0.841   3.524 -0.1184 -0.3328 -0.1191
18416TIP3    H176663   0.315   0.936   3.516 -0.1998 -0.3060  0.1632
18416TIP3    H276664   0.316   0.810   3.433  3.8480 -0.2323 -0.1369
18417TIP3   OH276665   5.816   4.774   3.621 -0.3621  0.4238 -0.0243
18417TIP3    H176666   5.745   4.838   3.620  0.0506  0.8977 -0.3910
18417TIP3    H276667   5.817   4.737   3.532  1.9383  2.8712 -1.1857
18418TIP3   OH276668   5.934   1.579  11.062  0.3582 -0.0528  0.0892
18418TIP3    H176669   5.888   1.636  11.125  1.8706  1.6593 -0.2546
18418TIP3    H276670   6.027   1.591  11.083  0.9267  0.6394 -2.4619
18419TIP3   OH276671   6.019   2.023   4.623 -0.4094  0.1529 -0.3246
18419TIP3    H176672   6.007   2.077   4.701 -2.0706 -0.7033  0.0527
18419TIP3    H276673   6.051   1.939   4.656 -0.1590  0.1023 -0.6779
18420TIP3   OH276674   6.484   5.290  12.587  0.5121 -0.3563  0.1961
18420TIP3    H176675   6.531   5.372  12.597 -0.7704  0.6517 -1.5302
18420TIP3    H276676   6.515   5.254  12.504  0.4844 -1.2305  0.5528
18421TIP3   OH276677   5.600   3.524   3.309 -0.2328 -0.4869 -0.5117
18421TIP3    H176678   5.599   3.579   3.231  0.8414  0.0963 -0.1399
18421TIP3    H276679   5.690   3.490   3.312  0.2863  0.8993  1.3986
18422TIP3   OH276680   4.721   4.436   2.686  0.5968  0.1122 -0.2215
18422TIP3    H176681   4.705   4.530   2.684 -1.8320 -0.2491 -0.8706
18422TIP3    H276682   4.681   4.407   2.769  0.0648 -0.5108 -0.6817
18423TIP3   OH276683   3.291   5.644  15.047  0.2582 -0.4052 -0.1030
18423TIP3    H176684   3.317   5.553  15.056 -2.2468 -1.1302  0.6206
18423TIP3    H276685   3.256   5.668  15.133 -0.0519  0.9308 -0.5667
18424TIP3   OH276686   2.958   3.296  10.916  0.4292 -0.0573 -0.0407
18424TIP3    H176687   2.998   3.313  10.831  0.5914 -0.3918 -0.0353
18424TIP3    H276688   2.883   3.356  10.920  0.7741  0.3826 -0.1626
18425TIP3   OH276689   3.703   0.907  11.678 -0.1164  0.4028 -0.0017
18425TIP3    H176690   3.693   0.951  11.594 -1.6507  0.1205  0.0059
18425TIP3    H276691   3.616   0.910  11.718  0.1185 -1.1462  0.7228
18426TIP3   OH276692   1.130   6.341   2.316  0.4357  0.1989  0.4432
18426TIP3    H176693   1.041   6.340   2.280  1.6083  0.9054 -2.7542
18426TIP3    H276694   1.139   6.429   2.352  0.8134  1.3421 -2.2018
18427TIP3   OH276695   1.567   1.244   5.578 -0.1093 -0.1423 -0.5659
18427TIP3    H176696   1.632   1.309   5.605 -0.7840  0.0375  0.6925
18427TIP3    H276697   1.598   1.162   5.616 -1.3634  0.2175  1.3361
18428TIP3   OH276698   2.613   4.799  11.271 -0.1426  0.3451 -0.2717
18428TIP3    H176699   2.580   4.731  11.330  1.1574  0.7665  1.0140
18428TIP3    H276700   2.706   4.780  11.261 -0.2082  0.6733 -1.6959
18429TIP3   OH276701   4.757   1.059  14.900  0.0328  0.6374  0.3708
18429TIP3    H176702   4.851   1.068  14.913  0.6656 -0.3886 -2.7611
18429TIP3    H276703   4.735   0.975  14.940  0.2666  1.1404  1.6202
18430TIP3   OH276704   2.937   6.704   0.694  0.5322  0.2472 -0.0313
18430TIP3    H176705   2.918   6.797   0.680 -0.3134  0.1195  0.2483
18430TIP3    H276706   2.947   6.695   0.788  0.6780  0.0684 -0.0642
18431TIP3   OH276707   3.748   0.385   2.081  0.2168 -0.4204  0.6222
18431TIP3    H176708   3.657   0.408   2.064  0.1789 -0.7587  0.3817
18431TIP3    H276709   3.745   0.294   2.110  0.6657 -1.0070 -1.1139
18432TIP3   OH276710   4.298   2.472  16.854  0.3597 -0.2972  0.3198
18432TIP3    H176711   4.338   2.505  16.934  1.1737  2.2791 -1.0551
18432TIP3    H276712   4.369   2.473  16.790 -0.6293 -0.9189 -0.8120
18433TIP3   OH276713   5.849   4.682  15.620 -0.0930  0.2342  0.3917
18433TIP3    H176714   5.809   4.605  15.580  2.0311 -0.8399  0.1829
18433TIP3    H276715   5.883   4.650  15.704 -0.8410  1.4391  1.1851
18434TIP3   OH276716   2.075   5.557  14.129 -0.4760  0.2537 -0.0169
18434TIP3    H176717   2.151   5.614  14.120 -2.3268  3.4671  2.2744
18434TIP3    H276718   2.087   5.513  14.213  0.6010 -2.4048 -1.4562
18435TIP3   OH276719   5.457   1.432  15.538 -0.0864  0.0119 -0.2786
18435TIP3    H176720   5.531   1.407  15.482  0.7934  2.2724 -0.2267
18435TIP3    H276721   5.491   1.422  15.627  0.3081  1.3344 -0.2572
18436TIP3   OH276722   4.782   5.241  16.636  0.5195 -0.0821  0.1594
18436TIP3    H176723   4.874   5.238  16.663  0.2442  0.2361  1.1710
18436TIP3    H276724   4.733   5.229  16.717 -0.3357 -0.6561 -0.4310
18437TIP3   OH276725   3.780   6.099   1.034  0.3690 -0.2044  0.4196
18437TIP3    H176726   3.839   6.123   0.963 -1.4363 -1.2257 -1.5403
18437TIP3    H276727   3.692   6.109   0.997 -0.6885  0.0006  2.7917
18438TIP3   OH276728   4.983   3.351  15.969 -0.2870  0.5305 -0.5186
18438TIP3    H176729   4.975   3.392  16.055  1.9771 -2.0480  1.0737
18438TIP3    H276730   4.893   3.336  15.941 -1.1145  0.0324  2.1324
18439TIP3   OH276731   1.860   1.060   2.501 -0.4106  0.4888  0.2828
18439TIP3    H176732   1.779   1.039   2.548 -0.3265  0.3935  0.3856
18439TIP3    H276733   1.904   0.976   2.490  0.2357  0.6773  1.2615
18440TIP3   OH276734   6.356   4.872   2.512 -0.3682 -0.1573  0.1506
18440TIP3    H176735   6.280   4.895   2.457 -0.0151  0.4941 -0.0710
18440TIP3    H276736   6.335   4.785   2.546 -2.3009  0.9201  1.9644
18441TIP3   OH276737   5.637   0.976  11.489 -0.2611 -0.4961  0.1398
18441TIP3    H176738   5.653   0.882  11.502  1.4636 -0.5037 -1.5524
18441TIP3    H276739   5.695   1.000  11.416 -1.0011  1.7968  0.2359
18442TIP3   OH276740   4.575   6.380   3.070 -0.3808 -0.0691 -0.2127
18442TIP3    H176741   4.635   6.366   3.143 -0.2601  0.0560 -0.2888
18442TIP3    H276742   4.524   6.456   3.096  0.1951  0.4556 -0.6070
18443TIP3   OH276743   0.405   1.508  10.215 -0.0132  0.8968 -0.0686
18443TIP3    H176744   0.479   1.563  10.191 -0.7045  1.2586 -1.4473
18443TIP3    H276745   0.333   1.569  10.229 -0.4483  0.4357 -0.2669
18444TIP3   OH276746   0.733   6.585   0.556 -0.3009  0.7436 -0.6699
18444TIP3    H176747   0.802   6.565   0.493 -0.4477 -1.2893 -0.2508
18444TIP3    H276748   0.778   6.629   0.629  1.0218 -2.3912  0.5577
18445TIP3   OH276749   0.457   6.475   0.886 -0.0680 -0.5478 -0.3737
18445TIP3    H176750   0.426   6.388   0.912  0.0174 -0.7688 -0.9998
18445TIP3    H276751   0.444   6.478   0.791  0.0718  0.0670 -0.3766
18446TIP3   OH276752   6.736   1.406   3.117 -0.0772 -0.3800 -0.5170
18446TIP3    H176753   6.707   1.395   3.026  0.0268 -1.2064 -0.4607
18446TIP3    H276754   6.656   1.405   3.169 -0.2384  1.2867 -0.6826
18447TIP3   OH276755   5.361   0.960  11.942 -0.0512 -0.5000  0.0262
18447TIP3    H176756   5.319   0.952  11.857 -2.4426  0.5735  1.0274
18447TIP3    H276757   5.424   0.888  11.944 -2.3835 -2.7638 -1.3264
18448TIP3   OH276758   6.211   2.561   5.047  0.0259  0.2445 -0.7281
18448TIP3    H176759   6.211   2.613   4.966  1.0121 -0.2738 -1.0737
18448TIP3    H276760   6.300   2.570   5.081 -0.1836 -0.1260 -0.0738
18449TIP3   OH276761   0.688   4.623  14.694  0.0654 -0.7179 -0.0123
18449TIP3    H176762   0.734   4.639  14.777 -1.0051 -0.8238  0.6133
18449TIP3    H276763   0.736   4.551  14.654  1.2909  0.0723 -0.0399
18450TIP3   OH276764   3.093   0.735  13.622  0.9556  0.4602  0.1060
18450TIP3    H176765   3.091   0.799  13.551  0.7659 -0.3778 -0.6735
18450TIP3    H276766   3.069   0.784  13.700  2.0848  1.6051 -0.2378
18451TIP3   OH276767   5.079   2.540   4.958 -0.2469 -0.3229 -0.1766
18451TIP3    H176768   5.108   2.624   4.993 -0.7952  0.0356 -0.5685
18451TIP3    H276769   5.159   2.489   4.948  0.1992  0.4956 -0.8574
18452TIP3   OH276770   5.844   0.236   2.040  0.1675  0.9901  0.0235
18452TIP3    H176771   5.893   0.155   2.053  0.4144  1.1817  0.2983
18452TIP3    H276772   5.855   0.256   1.948  0.1174  0.7199 -0.0429
18453TIP3   OH276773   4.404   0.704  13.324 -0.9288 -0.5899 -0.4369
18453TIP3    H176774   4.473   0.720  13.260  0.3728 -1.9303  0.5509
18453TIP3    H276775   4.324   0.737  13.283  0.2660  0.8778 -1.6773
18454TIP3   OH276776   4.030   2.850   4.849 -0.6123  0.0595  0.0862
18454TIP3    H176777   4.037   2.931   4.800 -1.0427  0.9295  1.4226
18454TIP3    H276778   3.944   2.854   4.891 -0.1519 -0.5354  1.1183
18455TIP3   OH276779   1.072   1.608   1.565 -0.5723 -0.3877 -0.1074
18455TIP3    H176780   1.146   1.581   1.620 -1.6133  0.0753  1.6003
18455TIP3    H276781   1.015   1.531   1.561 -1.3911  0.1335  1.0503
18456TIP3   OH276782   2.163   0.008  17.052  0.1128 -0.2736  0.1598
18456TIP3    H176783   2.227  -0.025  16.989 -0.2248  0.1361 -0.4067
18456TIP3    H276784   2.093  -0.057  17.051  0.1318 -0.2941  0.1529
18457TIP3   OH276785   4.467   2.438  13.176  0.2856 -0.2132 -0.1912
18457TIP3    H176786   4.458   2.390  13.259 -1.0879  0.6264  0.1804
18457TIP3    H276787   4.482   2.529  13.203 -0.8103  0.1819 -0.8333
18458TIP3   OH276788   6.126   2.261  15.699  0.3018  0.6160 -0.4160
18458TIP3    H176789   6.212   2.222  15.685  0.0975 -0.1368  0.3287
18458TIP3    H276790   6.144   2.350  15.728  0.8047  0.7696 -1.2018
18459TIP3   OH276791   6.415   5.226   6.470 -0.0608 -0.2440  0.0205
18459TIP3    H176792   6.489   5.235   6.530  0.7853 -1.8906 -0.6950
18459TIP3    H276793   6.435   5.285   6.397  0.5332 -0.6314 -0.1373
18460TIP3   OH276794   1.481   4.095  11.127  0.5269 -0.0116 -0.5473
18460TIP3    H176795   1.399   4.050  11.149  1.4486 -1.9177 -0.8063
18460TIP3    H276796   1.530   4.031  11.076  1.4581  1.7400 -1.9354
18461TIP3   OH276797   0.761   2.958  11.381  0.0971 -0.0163 -0.0021
18461TIP3    H176798   0.733   2.878  11.336 -1.3144 -0.2653  1.2454
18461TIP3    H276799   0.766   2.933  11.474 -0.1145  1.2776  0.3827
18462TIP3   OH276800   0.265   1.396   2.267  0.0218  0.5868  0.1729
18462TIP3    H176801   0.313   1.336   2.210  1.1789  0.4750  1.2303
18462TIP3    H276802   0.173   1.375   2.252  0.3618 -0.5441 -0.4269
18463TIP3   OH276803   0.410   1.307   1.871 -0.4691 -0.2111 -0.4052
18463TIP3    H176804   0.331   1.273   1.829 -0.8804  0.1741  0.0497
18463TIP3    H276805   0.479   1.244   1.848 -0.9395 -0.6341 -0.6628
18464TIP3   OH276806   0.991   3.844  12.956 -0.4078  0.2429 -0.6664
18464TIP3    H176807   0.909   3.801  12.929 -0.4584  0.7367 -1.3123
18464TIP3    H276808   1.059   3.780  12.935 -0.7147 -0.7307  1.1113
18465TIP3   OH276809   2.557   0.587   2.995  0.2018 -0.5129  0.0418
18465TIP3    H176810   2.594   0.590   2.907  1.4458 -0.3574  0.5472
18465TIP3    H276811   2.502   0.509   2.995  1.7672 -1.6834 -0.3040
18466TIP3   OH276812   4.708   2.615  11.824  0.0733 -0.5721 -0.0020
18466TIP3    H176813   4.797   2.578  11.823  0.8868  1.2521 -0.4477
18466TIP3    H276814   4.676   2.601  11.735 -0.2690 -1.5895  0.2666
18467TIP3   OH276815   6.197   3.611  14.979 -0.2995 -0.1061  0.2521
18467TIP3    H176816   6.176   3.539  14.919  1.2130 -0.8506  0.5742
18467TIP3    H276817   6.268   3.577  15.034  1.0528  1.9077 -0.1404
18468TIP3   OH276818   4.534   4.013   0.775  0.4493  0.7737 -0.3050
18468TIP3    H176819   4.552   4.066   0.697  1.3180 -0.6024 -1.0628
18468TIP3    H276820   4.619   3.998   0.815  0.1604  0.3351  0.1669
18469TIP3   OH276821   0.600   1.903  14.854  0.5733  0.1755 -0.9525
18469TIP3    H176822   0.524   1.958  14.873  1.4436  2.2720 -3.0537
18469TIP3    H276823   0.570   1.814  14.873 -1.7070  1.1110  0.2510
18470TIP3   OH276824   1.063   2.220   1.258 -0.1356 -0.6571 -0.5439
18470TIP3    H176825   0.980   2.249   1.219 -0.0461  0.3550 -0.0185
18470TIP3    H276826   1.126   2.226   1.186 -0.6239 -2.0571 -1.1224
18471TIP3   OH276827   2.477   4.348   2.046 -0.4185  0.1979 -0.6257
18471TIP3    H176828   2.545   4.351   2.112  0.7025 -2.4661 -1.5394
18471TIP3    H276829   2.490   4.428   1.994 -0.2693  1.4668  1.2897
18472TIP3   OH276830   1.210   5.025   5.285  0.5481  0.2688  0.4406
18472TIP3    H176831   1.200   5.049   5.193 -2.5408 -0.8805  0.3594
18472TIP3    H276832   1.150   5.082   5.332  0.4152 -0.6687  1.4571
18473TIP3   OH276833   1.291   4.261  14.622 -0.2106  0.1967 -0.7837
18473TIP3    H176834   1.365   4.293  14.570  0.0323  0.1588 -0.4695
18473TIP3    H276835   1.302   4.166  14.623  0.2319  0.2461 -0.0238
18474TIP3   OH276836   2.748   0.722  16.614 -0.0008  0.4306  0.3785
18474TIP3    H176837   2.663   0.754  16.583  0.3527  1.3998  0.3654
18474TIP3    H276838   2.777   0.662  16.545 -0.9488 -0.4053  0.6841
18475TIP3   OH276839   5.155   4.863  12.311  0.0121  0.2486 -0.7365
18475TIP3    H176840   5.208   4.937  12.344  0.2211 -0.1396 -0.1880
18475TIP3    H276841   5.178   4.857  12.218  2.3049 -1.0218 -0.1676
18476TIP3   OH276842   1.485   2.502   3.218  0.4183 -0.2328 -0.0754
18476TIP3    H176843   1.537   2.510   3.137 -0.2257 -2.6735 -0.8213
18476TIP3    H276844   1.497   2.410   3.244 -0.4399  0.1875  1.9010
18477TIP3   OH276845   3.653   1.335   2.278 -0.4581  0.0685  0.5970
18477TIP3    H176846   3.590   1.289   2.333 -0.6082  0.1308  0.4789
18477TIP3    H276847   3.615   1.422   2.265 -0.7146 -0.1412 -0.0929
18478TIP3   OH276848   0.022   3.740   3.176  0.1002 -0.3321 -0.9073
18478TIP3    H176849   0.020   3.835   3.176  0.2829 -0.3198 -0.1201
18478TIP3    H276850   0.115   3.718   3.171  0.0847 -0.4607 -0.6647
18479TIP3   OH276851   5.830   6.127  15.674 -0.3639  0.4919 -0.0001
18479TIP3    H176852   5.805   6.114  15.583  1.9002  1.8760 -0.9079
18479TIP3    H276853   5.857   6.041  15.705 -1.4802 -0.0502 -0.4906
18480TIP3   OH276854   0.707   0.366  13.572 -0.5056  0.4216 -0.4545
18480TIP3    H176855   0.715   0.307  13.647  1.8787 -0.2532 -1.1412
18480TIP3    H276856   0.698   0.307  13.497 -0.8665  1.0184 -0.8825
18481TIP3   OH276857   4.425   3.326  15.951 -0.1818  0.0592  0.7863
18481TIP3    H176858   4.503   3.381  15.941 -1.7215  2.4613  1.2024
18481TIP3    H276859   4.457   3.237  15.934  2.2356  1.1360 -0.9921
18482TIP3   OH276860   6.102   2.020  11.634 -0.6015 -0.3273 -0.9754
18482TIP3    H176861   6.093   2.058  11.547 -1.1225  2.3435  0.1386
18482TIP3    H276862   6.021   2.044  11.679  0.3141 -0.2440  0.7192
18483TIP3   OH276863   5.998   5.487  13.054  0.2385 -0.2005  0.1318
18483TIP3    H176864   6.016   5.579  13.035  0.7384 -0.2200  0.4923
18483TIP3    H276865   6.075   5.441  13.020  1.2254 -0.2339  2.2435
18484TIP3   OH276866   5.532   1.685  15.394  0.2464  0.1716  0.1907
18484TIP3    H176867   5.439   1.665  15.406  0.8048 -2.7940  0.4646
18484TIP3    H276868   5.557   1.732  15.474 -1.3634  2.8313 -0.7517
18485TIP3   OH276869   3.964   3.638  15.899  0.1741 -0.7846  0.2188
18485TIP3    H176870   3.986   3.629  15.806 -0.4384 -1.8846  0.1687
18485TIP3    H276871   4.030   3.585  15.944  2.1993  1.9053  0.6834
18486TIP3   OH276872   0.018   4.497  11.580 -0.0939  0.2628  0.2339
18486TIP3    H176873   0.095   4.552  11.596 -0.4762  1.3804 -1.5242
18486TIP3    H276874   0.016   4.485  11.485 -1.4447 -0.7293  0.3602
18487TIP3   OH276875   4.673   0.176  12.122  0.0392 -0.0780 -0.0551
18487TIP3    H176876   4.590   0.213  12.091 -1.1859  0.2847  3.2966
18487TIP3    H276877   4.740   0.224  12.073 -1.6307 -0.7456 -3.2327
18488TIP3   OH276878   3.523   3.533   4.010 -0.8195 -0.1284  0.5478
18488TIP3    H176879   3.600   3.508   4.061  0.8324  0.7677 -1.3971
18488TIP3    H276880   3.530   3.628   4.001 -1.0469 -0.2524 -1.2965
18489TIP3   OH276881   5.885   3.945  15.988 -0.1636  0.1369  0.2149
18489TIP3    H176882   5.909   4.029  16.028  1.0988  0.2545 -0.7058
18489TIP3    H276883   5.839   3.898  16.057 -0.7135  1.4990  0.8181
18490TIP3   OH276884   4.324   5.284  11.977 -0.0303 -0.5613 -0.1111
18490TIP3    H176885   4.352   5.364  12.022  0.6388 -1.0110  0.2980
18490TIP3    H276886   4.231   5.297  11.960 -0.1592 -0.1138  0.8690
18491TIP3   OH276887   2.871   2.241   5.624  0.1644 -0.2946 -0.0826
18491TIP3    H176888   2.863   2.337   5.626  1.5700 -0.1680 -0.0246
18491TIP3    H276889   2.898   2.217   5.713  1.0950 -0.6202 -0.4501
18492TIP3   OH276890   0.017   1.106  15.926 -0.2472 -0.1108 -0.2912
18492TIP3    H176891  -0.045   1.112  15.998  1.9927  1.5895  1.6713
18492TIP3    H276892   0.075   1.033  15.950 -0.0165 -0.1209 -0.8515
18493TIP3   OH276893   4.373   6.386  13.338  0.4092  0.4031  0.9127
18493TIP3    H176894   4.431   6.345  13.274 -0.3087  1.2338 -0.3170
18493TIP3    H276895   4.285   6.366  13.307  0.0489  1.7306  1.0220
18494TIP3   OH276896   5.079   3.077  14.034  0.7801  0.0389 -0.2065
18494TIP3    H176897   5.021   3.077  13.957  0.1174 -0.2423  0.2780
18494TIP3    H276898   5.026   3.118  14.103  0.3178 -2.1970  0.8433
18495TIP3   OH276899   0.335   5.776   1.133  0.3808  0.0796  0.1062
18495TIP3    H176900   0.254   5.810   1.171 -0.1431 -0.6126 -0.3711
18495TIP3    H276901   0.311   5.690   1.098  1.6852 -0.8698  1.4009
18496TIP3   OH276902   2.309   5.840   4.615  0.1299  0.1338  0.5115
18496TIP3    H176903   2.331   5.795   4.534  2.1463 -1.1447  1.6657
18496TIP3    H276904   2.271   5.923   4.587  3.0880  0.8826 -1.8335
18497TIP3   OH276905   2.150   0.874   2.311 -0.0915  0.2069 -0.1481
18497TIP3    H176906   2.187   0.896   2.397  0.3007  0.0614 -0.2741
18497TIP3    H276907   2.110   0.955   2.280  0.6319  0.5237 -0.2616
18498TIP3   OH276908   5.583   2.797   1.095 -0.4722  0.3313 -0.2159
18498TIP3    H176909   5.658   2.745   1.067 -1.1177  0.2135 -1.8148
18498TIP3    H276910   5.600   2.884   1.058 -0.4718  0.6776  0.5780
18499TIP3   OH276911   2.486   2.367  14.428 -0.2108 -0.1337 -0.1805
18499TIP3    H176912   2.536   2.447  14.413 -2.2813  1.2088 -0.2968
18499TIP3    H276913   2.552   2.298  14.433  1.4737  1.1157 -2.9971
18500TIP3   OH276914   0.680   0.910   2.739 -0.0503 -0.0597 -0.0777
18500TIP3    H176915   0.702   0.959   2.660 -2.4901  0.0397 -0.7861
18500TIP3    H276916   0.654   0.824   2.707  2.2015 -1.2296  0.9834
18501TIP3   OH276917   5.368   5.985   5.585  0.3969  0.0562 -0.3169
18501TIP3    H176918   5.423   6.010   5.511 -0.7250 -0.1135 -1.2308
18501TIP3    H276919   5.367   5.889   5.583 -0.6126  0.0605 -0.8517
18502TIP3   OH276920   3.219   0.629   5.697 -0.8625  0.2676  0.1056
18502TIP3    H176921   3.302   0.591   5.667 -0.4882 -0.0284  1.4502
18502TIP3    H276922   3.168   0.640   5.617 -0.3415 -1.5329 -0.5276
18503TIP3   OH276923   5.674   3.310  14.789  0.2237 -0.2735 -0.0648
18503TIP3    H176924   5.593   3.360  14.782 -1.2126 -2.2823  0.9899
18503TIP3    H276925   5.645   3.220  14.805  2.6740 -1.1114  0.0881
18504TIP3   OH276926   6.300   6.647   4.270  0.3233  0.1405 -0.1215
18504TIP3    H176927   6.392   6.666   4.287  0.3955  0.3129 -0.6727
18504TIP3    H276928   6.301   6.573   4.210  0.0810 -0.3984  0.5349
18505TIP3   OH276929   1.625   2.683  12.863  0.1718  0.1774  0.0686
18505TIP3    H176930   1.534   2.655  12.873  0.3437 -0.9743 -1.2265
18505TIP3    H276931   1.630   2.768  12.907 -1.8992  0.9682 -1.1207
18506TIP3   OH276932   4.131   1.109  16.049  0.0790  0.1961 -0.1567
18506TIP3    H176933   4.047   1.098  16.093  0.0861 -0.0460 -0.2027
18506TIP3    H276934   4.114   1.088  15.957 -0.4260  2.7151 -0.7239
18507TIP3   OH276935   3.467   0.400   2.022  0.2403 -0.1559 -0.2713
18507TIP3    H176936   3.421   0.468   2.072  0.0724 -0.6297  0.2282
18507TIP3    H276937   3.505   0.447   1.948 -0.4510  0.3661 -0.3075
18508TIP3   OH276938   6.675   4.916   2.375 -0.6807  0.3289 -0.6167
18508TIP3    H176939   6.625   4.968   2.312 -1.2390  1.0710  0.4030
18508TIP3    H276940   6.636   4.938   2.460 -0.6144 -1.4078 -0.1035
18509TIP3   OH276941   2.833   0.952  13.091  0.2378 -0.3359  0.1333
18509TIP3    H176942   2.802   0.888  13.155 -1.6486 -0.2643 -0.6561
18509TIP3    H276943   2.806   1.037  13.126  0.1108 -0.2092 -0.2667
18510TIP3   OH276944   0.467   3.737   5.248  0.6772  0.2789  0.7297
18510TIP3    H176945   0.544   3.729   5.305  0.9174 -2.0291  0.1646
18510TIP3    H276946   0.503   3.732   5.159 -0.1177 -0.7530  0.4575
18511TIP3   OH276947   1.677   2.158   4.647  0.1026  0.0656 -0.1105
18511TIP3    H176948   1.585   2.172   4.624 -0.2373  1.6553  1.8977
18511TIP3    H276949   1.676   2.081   4.704  0.3865 -1.3269 -1.9006
18512TIP3   OH276950   1.891   3.066   5.727 -0.3152 -0.1350 -0.7018
18512TIP3    H176951   1.983   3.091   5.714 -0.2499  0.0079  0.0037
18512TIP3    H276952   1.854   3.065   5.639  0.2974  0.0655 -0.9677
18513TIP3   OH276953   2.428   2.731   6.373  0.2634 -0.2251 -0.2812
18513TIP3    H176954   2.446   2.793   6.303  0.3425  2.5929  2.0501
18513TIP3    H276955   2.506   2.675   6.377  1.2784  1.1119 -0.9019
18514TIP3   OH276956   0.584   2.732  14.033 -0.6753 -0.7362 -0.1688
18514TIP3    H176957   0.661   2.764  14.080 -0.3857 -0.8180 -0.5813
18514TIP3    H276958   0.510   2.774  14.076 -0.6858 -3.0399  2.3210
18515TIP3   OH276959   0.404   1.712  10.490 -0.0125 -0.1620  0.0647
18515TIP3    H176960   0.388   1.799  10.526 -0.4333  0.2653 -1.0879
18515TIP3    H276961   0.320   1.686  10.452  0.7743  0.1419 -2.0388
18516TIP3   OH276962   5.761   0.118   5.161  0.2219 -0.8623 -0.0028
18516TIP3    H176963   5.808   0.201   5.155  1.6585 -1.7075 -0.9608
18516TIP3    H276964   5.819   0.062   5.212 -0.7073 -1.3136  0.5728
18517TIP3   OH276965   1.652   2.204   0.223 -0.0018  0.5875 -0.1707
18517TIP3    H176966   1.741   2.176   0.199 -0.4545 -1.2452  0.1460
18517TIP3    H276967   1.658   2.224   0.317  0.2372  1.2751 -0.3208
18518TIP3   OH276968   4.274   0.783  15.689  0.5508  0.8232 -0.2361
18518TIP3    H176969   4.313   0.740  15.613  0.7074 -1.5593  1.1119
18518TIP3    H276970   4.308   0.873  15.685  3.0458 -0.0654 -1.2955
18519TIP3   OH276971   4.734   4.996   1.490  0.3628  0.0983  0.5713
18519TIP3    H176972   4.705   4.925   1.432  1.1670  0.6962 -0.6045
18519TIP3    H276973   4.702   4.971   1.576 -1.4529 -0.4931 -0.2348
18520TIP3   OH276974   3.811   3.950  13.947  0.3831 -0.1391  0.4612
18520TIP3    H176975   3.829   4.011  14.019  1.4146 -0.4664  0.5022
18520TIP3    H276976   3.898   3.927  13.914 -0.0507  1.5344 -2.2022
18521TIP3   OH276977   4.102   4.422   2.440 -0.1325  0.1702  0.1076
18521TIP3    H176978   4.159   4.350   2.414 -0.8747  0.0518 -1.2899
18521TIP3    H276979   4.124   4.438   2.531  0.8161 -1.1021  0.1323
18522TIP3   OH276980   5.798   1.973  15.029 -0.3200  1.0730 -0.0449
18522TIP3    H176981   5.808   1.888  14.986 -3.4898 -0.4831  1.8386
18522TIP3    H276982   5.885   1.995  15.060  0.3746 -2.4440  0.9219
18523TIP3   OH276983   5.855   5.086  16.171  0.7913  0.0040 -0.5583
18523TIP3    H176984   5.923   5.104  16.235  1.0262  1.4546 -1.1744
18523TIP3    H276985   5.780   5.139  16.200  0.5943 -0.0441 -0.9673
18524TIP3   OH276986   5.089   4.341   5.777 -0.4583  0.9690 -0.1231
18524TIP3    H176987   5.069   4.258   5.733 -0.1580  1.8672 -2.0902
18524TIP3    H276988   5.167   4.372   5.733 -1.1840  2.8112 -0.1768
18525TIP3   OH276989   4.632   3.155  15.206 -0.5324  0.5500 -0.0725
18525TIP3    H176990   4.704   3.093  15.199  0.0858  1.1036  0.9709
18525TIP3    H276991   4.675   3.240  15.216 -1.3636  1.2850 -2.3401
18526TIP3   OH276992   2.561   5.963  12.430  0.0859  0.5044 -0.0059
18526TIP3    H176993   2.650   5.997  12.430 -0.1757  1.2601 -1.0670
18526TIP3    H276994   2.564   5.886  12.374  0.1635  0.2848  0.3022
18527TIP3   OH276995   0.221   1.695   4.427  1.0787  0.0639 -0.4054
18527TIP3    H176996   0.264   1.630   4.372 -0.2447 -0.0465 -1.3730
18527TIP3    H276997   0.218   1.774   4.374 -2.3052 -0.6809 -1.5512
18528TIP3   OH276998   3.087   4.872   0.834 -0.4865 -0.3176 -0.9635
18528TIP3    H176999   3.177   4.879   0.866  0.1310 -0.6762 -2.5604
18528TIP3    H277000   3.094   4.886   0.740 -2.2657  0.7973 -0.9637
18529TIP3   OH277001   6.171   0.552  12.094 -0.4627  0.2659 -0.0904
18529TIP3    H177002   6.248   0.527  12.145 -0.4873 -0.5047 -0.4242
18529TIP3    H277003   6.098   0.543  12.156 -0.4788 -0.5601 -0.2164
18530TIP3   OH277004   6.049   4.341   2.299 -0.0298  0.2525  0.2826
18530TIP3    H177005   6.141   4.357   2.281  0.0197 -0.4247 -0.0851
18530TIP3    H277006   6.005   4.350   2.214 -0.2919  0.4761  0.4372
18531TIP3   OH277007   4.215   5.144   4.832  0.0852 -0.6521 -0.5791
18531TIP3    H177008   4.310   5.129   4.840  0.5142  1.1707 -1.6131
18531TIP3    H277009   4.208   5.220   4.775 -1.8960  1.3963  2.1274
18532TIP3   OH277010   0.933   5.347   2.201  0.4591  0.2190  0.4670
18532TIP3    H177011   0.942   5.419   2.264  0.1624  1.0528 -0.4234
18532TIP3    H277012   0.940   5.389   2.115  1.4168 -0.9752 -0.0679
18533TIP3   OH277013   1.904   3.605   3.221  0.5750 -0.3996  0.0354
18533TIP3    H177014   1.848   3.636   3.150  0.4034 -0.6335  0.0648
18533TIP3    H277015   1.919   3.512   3.200 -1.7121 -1.2409  1.7104
18534TIP3   OH277016   2.213   1.515   3.360  0.2536 -0.0494  0.7418
18534TIP3    H177017   2.263   1.436   3.343 -2.1938 -1.5954  0.2162
18534TIP3    H277018   2.214   1.525   3.455  1.0947 -0.3184  0.7710
18535TIP3   OH277019   5.284   1.504   1.926  0.2318 -0.8934  0.2990
18535TIP3    H177020   5.304   1.411   1.916 -4.0670 -2.0618  0.7180
18535TIP3    H277021   5.306   1.542   1.840  1.2154 -2.4377 -0.1864
18536TIP3   OH277022   0.626   3.737   3.749  0.6537  0.2855  0.0101
18536TIP3    H177023   0.716   3.715   3.773  1.0354 -0.9793 -2.3140
18536TIP3    H277024   0.581   3.653   3.745 -1.3325  1.0057  3.2146
18537TIP3   OH277025   4.199   3.880   4.152  0.4304 -0.6997 -0.6474
18537TIP3    H177026   4.291   3.906   4.150  0.6633 -1.2031  1.1713
18537TIP3    H277027   4.201   3.784   4.156 -0.1442 -0.7047 -0.3001
18538TIP3   OH277028   0.976   3.933  11.363  0.3653  0.0747  0.4752
18538TIP3    H177029   1.042   3.864  11.358 -0.0954 -0.3029 -1.0776
18538TIP3    H277030   0.947   3.933  11.454 -0.0837 -2.2295  0.3965
18539TIP3   OH277031   3.992   0.614   5.804  0.1750  0.1987 -0.1066
18539TIP3    H177032   3.953   0.528   5.789  0.8013 -0.1562  0.2651
18539TIP3    H277033   3.918   0.674   5.805 -0.3127 -0.3977  0.0881
18540TIP3   OH277034   0.466   0.827   3.745  0.7654  0.3396  0.1944
18540TIP3    H177035   0.422   0.859   3.667 -0.4796 -0.1346  0.6870
18540TIP3    H277036   0.530   0.764   3.713 -1.5745 -1.9321 -0.3178
18541TIP3   OH277037   3.891   3.181   0.349  0.0081  0.0164 -0.3332
18541TIP3    H177038   3.814   3.200   0.402 -1.1643 -1.4312 -1.4506
18541TIP3    H277039   3.948   3.257   0.363 -1.0771  0.5705  1.4463
18542TIP3   OH277040   1.592   4.893  12.380 -0.0119 -0.1662  0.0768
18542TIP3    H177041   1.673   4.844  12.365  0.5317  0.9053 -0.6304
18542TIP3    H277042   1.553   4.852  12.458  2.5766  0.9715  2.1304
18543TIP3   OH277043   4.101   6.064   1.411 -0.4190 -0.7452  0.3353
18543TIP3    H177044   4.007   6.046   1.405 -0.6644  0.2597  0.9415
18543TIP3    H277045   4.113   6.144   1.360 -0.0550 -0.3553  1.0190
18544TIP3   OH277046   3.545   4.331   4.567 -0.3181 -0.2000  0.7841
18544TIP3    H177047   3.636   4.306   4.557 -0.1800  0.3084  0.7222
18544TIP3    H277048   3.523   4.374   4.484  0.1706  2.0430  1.7348
18545TIP3   OH277049   6.769   6.267  17.123  0.4580  0.0030  0.4942
18545TIP3    H177050   6.741   6.349  17.081  0.4290  0.0709  0.6474
18545TIP3    H277051   6.840   6.235  17.066 -0.3535 -0.5027 -0.2535
18546TIP3   OH277052   2.338   2.458   5.982 -0.3324  0.0628  0.4501
18546TIP3    H177053   2.305   2.546   6.000  0.5768  0.5823 -0.3066
18546TIP3    H277054   2.432   2.463   6.001  0.2776  0.0550 -2.0868
18547TIP3   OH277055   3.837   4.571  16.778  0.2351  0.0318 -0.0476
18547TIP3    H177056   3.784   4.495  16.801 -0.1195  0.4769  0.6470
18547TIP3    H277057   3.909   4.571  16.841  0.2102  0.2925 -0.0164
18548TIP3   OH277058   0.696   0.779   4.410 -0.1067 -0.0838  0.4141
18548TIP3    H177059   0.637   0.820   4.473 -1.2450 -2.3043  0.9174
18548TIP3    H277060   0.669   0.687   4.409  0.8494 -0.4312 -2.2205
18549TIP3   OH277061   3.088   5.346  15.999 -0.1498 -0.3883  0.3973
18549TIP3    H177062   3.040   5.276  16.044 -1.1593  0.0657  0.0550
18549TIP3    H277063   3.042   5.357  15.916  0.4883  0.1379  0.1055
18550TIP3   OH277064   6.042   6.028   1.559 -0.3670  0.1839  0.1977
18550TIP3    H177065   6.007   5.982   1.636 -0.1811  0.5141  0.4826
18550TIP3    H277066   6.116   6.078   1.593  0.1065 -0.1586 -0.3188
18551TIP3   OH277067   0.765   3.038   2.886  0.4477 -0.4739 -0.5871
18551TIP3    H177068   0.677   3.064   2.858  0.5700  1.8905  0.9322
18551TIP3    H277069   0.817   3.042   2.806 -0.2807  0.8514 -1.0336
18552TIP3   OH277070   0.183   3.681   2.657  0.2369 -0.1260  0.0549
18552TIP3    H177071   0.219   3.710   2.741  1.2813  0.0578 -0.4376
18552TIP3    H277072   0.088   3.690   2.667  0.3404 -0.2208  1.2513
18553TIP3   OH277073   0.608   2.140   0.129 -0.0983  0.3890  0.0976
18553TIP3    H177074   0.682   2.086   0.157 -0.5178 -0.4703 -0.3862
18553TIP3    H277075   0.573   2.177   0.210  0.9568  0.9436  0.3087
18554TIP3   OH277076   5.145   4.721  16.718  0.2425 -0.6820  0.2630
18554TIP3    H177077   5.060   4.679  16.707  0.3168 -0.4069 -1.6568
18554TIP3    H277078   5.189   4.668  16.785 -0.9766 -1.5410  0.4144
18555TIP3   OH277079   3.263   1.412  14.350  0.1537  0.6998 -0.1339
18555TIP3    H177080   3.338   1.384  14.299  1.7122  1.0329  1.8309
18555TIP3    H277081   3.293   1.490  14.397 -1.1529  0.4337  1.2612
18556TIP3   OH277082   0.727   0.828  15.786 -0.1093 -0.3790 -0.0932
18556TIP3    H177083   0.687   0.892  15.844 -0.4974 -1.0821  0.4252
18556TIP3    H277084   0.821   0.847  15.792 -0.1040 -0.7096  1.1005
18557TIP3   OH277085   5.222   6.442  12.213  0.0165  0.3758  0.1359
18557TIP3    H177086   5.300   6.415  12.263 -0.1257  1.6282  1.0651
18557TIP3    H277087   5.149   6.426  12.272 -0.5821 -1.6082 -1.0419
18558TIP3   OH277088   2.081   4.350   4.430  0.2017 -0.2720 -0.5566
18558TIP3    H177089   2.097   4.255   4.430  1.9459 -0.0253 -1.7386
18558TIP3    H277090   2.154   4.386   4.480  1.8129  0.6704 -3.3521
18559TIP3   OH277091   6.282   6.654   3.174 -0.0121 -0.3926  0.6266
18559TIP3    H177092   6.216   6.688   3.233  0.2440 -1.5346  1.6126
18559TIP3    H277093   6.233   6.625   3.097 -0.5221 -0.2170  0.8802
18560TIP3   OH277094   0.274   2.515  16.797 -0.4757 -0.3314 -0.2956
18560TIP3    H177095   0.292   2.421  16.804  1.2314 -0.0537 -0.4013
18560TIP3    H277096   0.352   2.556  16.833 -1.6563  1.0684  0.7732
18561TIP3   OH277097   5.674   0.779  15.357  0.3305 -0.6794 -0.3450
18561TIP3    H177098   5.748   0.838  15.372 -0.1190 -0.0680 -0.4962
18561TIP3    H277099   5.661   0.735  15.440  0.7688 -0.6726 -0.2736
18562TIP3   OH277100   4.548   1.983   4.303 -0.0577  0.0166  0.1005
18562TIP3    H177101   4.634   2.017   4.328  0.2828  1.1948 -2.3380
18562TIP3    H277102   4.499   2.060   4.275 -1.5458 -0.7724  0.4494
18563TIP3   OH277103   4.481   4.660  15.976  0.4498 -0.1540 -0.7174
18563TIP3    H177104   4.537   4.714  15.920  1.3348  0.2810  0.5457
18563TIP3    H277105   4.457   4.586  15.921  1.8489 -0.0826 -1.4753
18564TIP3   OH277106   2.531   5.153  13.438  0.0444 -0.5005  0.4909
18564TIP3    H177107   2.530   5.156  13.533 -0.1255 -0.2770  0.4835
18564TIP3    H277108   2.618   5.184  13.413 -1.0558  3.1038  0.4707
18565TIP3   OH277109   6.576   4.365  16.767  0.4783  0.0186 -0.0269
18565TIP3    H177110   6.621   4.441  16.805  0.6177 -0.4300  0.7313
18565TIP3    H277111   6.489   4.397  16.744  1.0977  0.8391 -1.2896
18566TIP3   OH277112   6.201   2.474  12.497  0.6159  0.0297 -0.5074
18566TIP3    H177113   6.203   2.378  12.494  0.2704 -0.0840  1.5000
18566TIP3    H277114   6.140   2.494  12.568  1.6531  1.7084 -0.0330
18567TIP3   OH277115   4.707   5.583   2.322 -0.2946 -0.1179 -1.1276
18567TIP3    H177116   4.660   5.661   2.294 -0.3830 -0.0324 -0.7569
18567TIP3    H277117   4.761   5.614   2.395  0.6144 -0.1292 -1.7793
18568TIP3   OH277118   3.679   5.460  12.331 -0.1364  0.0160  0.3847
18568TIP3    H177119   3.630   5.459  12.249 -0.6825 -0.7685  0.7137
18568TIP3    H277120   3.692   5.554  12.349 -2.6866  0.3134  0.9747
18569TIP3   OH277121   5.116   5.138   1.712  0.2099  0.1237 -0.2258
18569TIP3    H177122   5.149   5.207   1.768 -0.6051 -0.4139  0.9676
18569TIP3    H277123   5.083   5.183   1.634 -0.1491  1.0513  0.4563
18570TIP3   OH277124   3.038   1.082   4.018 -0.6065  0.7823  0.1306
18570TIP3    H177125   3.034   1.024   4.094 -0.6495  1.5958  0.7697
18570TIP3    H277126   2.947   1.105   4.000 -0.6403  0.1837 -0.5017
18571TIP3   OH277127   6.618   3.368  16.462  1.3575  0.2289  0.4870
18571TIP3    H177128   6.669   3.361  16.543 -1.7422 -1.4589  2.4889
18571TIP3    H277129   6.581   3.281  16.450 -0.3147  1.1312 -1.3519
18572TIP3   OH277130   2.437   3.297   1.014 -0.3676  0.4272 -0.2788
18572TIP3    H177131   2.511   3.358   1.014 -0.4186  0.5265 -1.5873
18572TIP3    H277132   2.477   3.212   1.030 -0.2498  0.7236  1.1787
18573TIP3   OH277133   1.403   2.533   2.205  0.2364  0.2020  0.1696
18573TIP3    H177134   1.461   2.473   2.252  0.4172  0.4125  0.2196
18573TIP3    H277135   1.426   2.521   2.113  1.2716  1.2118  0.2743
18574TIP3   OH277136   5.620   2.441   5.738  0.1944 -0.3158 -0.0052
18574TIP3    H177137   5.525   2.435   5.725  0.2945 -0.6967 -0.6268
18574TIP3    H277138   5.631   2.510   5.804 -0.5161 -0.3216  0.1297
18575TIP3   OH277139   2.098   2.116  14.809  0.1335  0.1465  0.3715
18575TIP3    H177140   2.053   2.052  14.864 -0.6043  2.0344  2.0920
18575TIP3    H277141   2.154   2.165  14.870  0.2275  1.5223 -0.7617
18576TIP3   OH277142   3.325   0.534  12.434 -0.2363  0.0602 -0.2488
18576TIP3    H177143   3.248   0.527  12.490 -0.5034  1.2272 -0.4243
18576TIP3    H277144   3.308   0.475  12.361 -0.8748  0.1555 -0.1820
18577TIP3   OH277145   2.355   0.710  14.938  0.1478  0.1975  0.4826
18577TIP3    H177146   2.341   0.622  14.973  0.7289 -0.4404 -0.8251
18577TIP3    H277147   2.435   0.702  14.885  0.8255  1.7702  1.2104
18578TIP3   OH277148   1.053   4.439   1.352 -0.2779 -0.3134  0.1441
18578TIP3    H177149   1.125   4.499   1.371 -1.1090  0.6141  0.4419
18578TIP3    H277150   1.091   4.374   1.292 -0.0118  2.0797 -2.5249
18579TIP3   OH277151   3.288   4.120   1.245  0.4394  0.2075  0.5063
18579TIP3    H177152   3.250   4.042   1.206  1.3739 -1.1488  2.1652
18579TIP3    H277153   3.225   4.148   1.311  0.1556  0.8009 -0.0105
18580TIP3   OH277154   2.453   0.814   3.519 -0.0722 -0.0907  0.2859
18580TIP3    H177155   2.374   0.850   3.558  0.9372 -0.5653  2.9615
18580TIP3    H277156   2.445   0.719   3.530  1.0353 -0.1204  0.9772
18581TIP3   OH277157   2.761   2.266   2.137 -0.0565  0.2847 -0.7800
18581TIP3    H177158   2.668   2.285   2.150 -0.0861 -0.3286  0.0205
18581TIP3    H277159   2.789   2.326   2.069 -1.2044  0.0131 -1.5180
18582TIP3   OH277160   5.243   5.434   0.672  0.3502  0.2324 -0.4451
18582TIP3    H177161   5.303   5.473   0.736 -0.5068  1.0894 -0.1429
18582TIP3    H277162   5.242   5.497   0.600  1.5335 -0.8646 -1.4705
18583TIP3   OH277163   0.261   4.759  14.368  0.3850 -0.6788  0.2346
18583TIP3    H177164   0.268   4.671  14.331 -0.2284  0.0150 -1.6927
18583TIP3    H277165   0.173   4.763  14.405  0.3024 -0.7925  0.0539
18584TIP3   OH277166   0.785   2.648   5.802 -0.2571 -0.0036  0.0252
18584TIP3    H177167   0.865   2.598   5.787  0.4673  0.9145  0.7670
18584TIP3    H277168   0.760   2.681   5.716  0.7160  0.5249 -0.0635
18585TIP3   OH277169   3.015   2.035   3.756 -0.0285 -0.0619 -0.4560
18585TIP3    H177170   2.926   2.040   3.721 -0.6938  1.5440  1.3100
18585TIP3    H277171   3.019   1.949   3.798 -1.0342  0.1551  0.1286
18586TIP3   OH277172   5.062   5.447   5.463 -0.0756  0.2084  0.1751
18586TIP3    H177173   5.134   5.417   5.518 -1.7224 -1.3674  1.6052
18586TIP3    H277174   5.080   5.539   5.447  2.7131 -0.3309 -0.3236
18587TIP3   OH277175   4.791   6.416  15.500 -0.3653  0.0891 -0.2485
18587TIP3    H177176   4.863   6.356  15.481 -0.4129  0.1081 -0.4888
18587TIP3    H277177   4.719   6.360  15.527 -0.2860  0.0646 -0.0866
18588TIP3   OH277178   1.711   0.412   3.624 -0.0556  0.2189 -0.1972
18588TIP3    H177179   1.649   0.386   3.692  1.6733  0.5413  1.5916
18588TIP3    H277180   1.711   0.508   3.627 -1.3772  0.3300 -2.0496
18589TIP3   OH277181   3.241   0.618   1.887  0.7640 -0.2215  0.6288
18589TIP3    H177182   3.305   0.567   1.836  0.2830  0.0566 -0.2712
18589TIP3    H277183   3.293   0.688   1.927  1.3357 -1.0873  1.4311
18590TIP3   OH277184   3.125   3.928  13.046  0.0677 -0.2032 -0.1025
18590TIP3    H177185   3.102   3.980  12.968  1.6379  1.6841  0.5856
18590TIP3    H277186   3.218   3.948  13.060  0.8253 -3.4399  0.1378
18591TIP3   OH277187   1.329   4.421  15.539 -0.0784 -0.2627  0.2519
18591TIP3    H177188   1.358   4.504  15.502  1.5585 -0.2057  1.5440
18591TIP3    H277189   1.233   4.423  15.531 -0.1888  2.3231  1.4197
18592TIP3   OH277190   6.648   3.189   4.394 -0.2573 -0.5792  0.0487
18592TIP3    H177191   6.600   3.138   4.328  1.4270 -0.4373 -1.3470
18592TIP3    H277192   6.595   3.268   4.406 -1.9200 -1.7475  0.8398
18593TIP3   OH277193   6.680   3.095   1.247 -0.3974  0.0060  0.0363
18593TIP3    H177194   6.642   3.051   1.171 -1.0627  0.0187  0.3483
18593TIP3    H277195   6.717   3.024   1.300  3.0252  0.2171 -1.8071
18594TIP3   OH277196   0.943   6.202  14.887  0.2696 -0.0400  0.0055
18594TIP3    H177197   1.036   6.182  14.879  0.4890  0.2403  1.4796
18594TIP3    H277198   0.900   6.146  14.822  1.4060 -0.6456 -0.2435
18595TIP3   OH277199   2.975   3.953  13.988  0.2419 -0.3695 -0.1168
18595TIP3    H177200   2.965   4.048  13.979 -1.9629 -0.6510 -1.4064
18595TIP3    H277201   3.051   3.942  14.045  0.7503  2.1518 -0.1900
18596TIP3   OH277202   5.168   4.565   1.229  0.1471  0.0043  0.4670
18596TIP3    H177203   5.204   4.652   1.246 -2.6849  1.3476  0.1885
18596TIP3    H277204   5.197   4.543   1.141  1.1169  0.5225  0.6458
18597TIP3   OH277205   5.935   0.001  10.646 -0.0280  0.4681  0.4389
18597TIP3    H177206   5.891  -0.047  10.576 -0.5642  1.5586  0.0237
18597TIP3    H277207   6.028   0.000  10.620 -0.2019  0.7318 -0.2016
18598TIP3   OH277208   2.891   2.657  12.435  0.1636 -0.1104  0.1689
18598TIP3    H177209   2.796   2.664  12.448  0.2124  1.4506 -0.2099
18598TIP3    H277210   2.923   2.616  12.516 -0.7380  0.0426  0.6144
18599TIP3   OH277211   0.161   6.469  14.030 -0.1381 -0.3491 -0.0232
18599TIP3    H177212   0.191   6.515  14.108  1.0973  0.2246 -0.8036
18599TIP3    H277213   0.178   6.377  14.049 -1.2124 -0.3659  0.9462
18600TIP3   OH277214   2.038   3.762  17.164 -0.0645 -0.1121  0.4200
18600TIP3    H177215   2.123   3.767  17.120  0.2195  0.7173  1.0258
18600TIP3    H277216   2.048   3.818  17.241 -1.2988  0.3451  0.2694
18601TIP3   OH277217   2.947   4.906   0.551 -0.2253  0.2931  0.1920
18601TIP3    H177218   2.887   4.834   0.568  1.2418 -0.5985  1.9293
18601TIP3    H277219   3.018   4.867   0.500 -0.1150  0.8380 -0.0795
18602TIP3   OH277220   2.499   2.063  13.076 -0.2924  0.1171 -0.0802
18602TIP3    H177221   2.546   2.005  13.017  1.0399 -2.4644  3.1859
18602TIP3    H277222   2.558   2.138  13.088 -0.3724  0.4393 -1.5603
18603TIP3   OH277223   1.947   4.407  14.560  0.3531 -0.0977  0.0169
18603TIP3    H177224   1.911   4.337  14.615 -1.0227  0.5854  0.0066
18603TIP3    H277225   1.877   4.429  14.499  1.2361  0.3976 -0.8462
18604TIP3   OH277226   3.621   5.869  16.388 -0.2007 -0.3791 -0.0165
18604TIP3    H177227   3.577   5.795  16.430  1.2476  0.1843  2.6864
18604TIP3    H277228   3.580   5.947  16.427 -1.3691  0.3234 -2.4597
18605TIP3   OH277229   0.004   0.395   0.378 -0.5370 -0.3011 -0.6133
18605TIP3    H177230  -0.019   0.363   0.466  0.7095 -1.0400 -0.5342
18605TIP3    H277231  -0.073   0.374   0.325 -0.6455 -1.4075 -0.0623
18606TIP3   OH277232   0.131   4.928   2.170  0.0851 -1.0291 -0.5483
18606TIP3    H177233   0.057   4.877   2.202 -0.3075  0.5138  1.1557
18606TIP3    H277234   0.204   4.903   2.227 -0.7564  2.1587  2.2305
18607TIP3   OH277235   1.814   5.242  11.734 -0.3358  0.2599 -0.7037
18607TIP3    H177236   1.900   5.201  11.749 -0.6840 -0.0360  0.5206
18607TIP3    H277237   1.827   5.334  11.756 -0.6909 -0.0597  0.9820
18608TIP3   OH277238   3.344   1.773  10.469 -0.4755 -0.1607 -0.3583
18608TIP3    H177239   3.348   1.786  10.374  1.3141  0.9653 -0.1798
18608TIP3    H277240   3.309   1.684  10.480  1.2785 -1.1660 -2.1637
18609TIP3   OH277241   2.627   2.393   5.243 -0.1513 -0.2306  0.4799
18609TIP3    H177242   2.698   2.340   5.278 -0.5838 -2.0462 -1.2327
18609TIP3    H277243   2.552   2.374   5.300  0.0356 -0.4713  0.6458
18610TIP3   OH277244   5.720   1.846   1.606 -0.5192 -0.1600 -0.4314
18610TIP3    H177245   5.759   1.808   1.684  2.2138  2.2224 -0.4443
18610TIP3    H277246   5.667   1.776   1.569  2.4351 -3.2433  0.6021
18611TIP3   OH277247   3.448   3.435   5.854 -0.2886 -0.3046 -0.0845
18611TIP3    H177248   3.362   3.401   5.880 -1.0346  0.7070 -1.0998
18611TIP3    H277249   3.485   3.367   5.799 -0.5438 -0.6461  0.1612
18612TIP3   OH277250   5.327   0.178  16.535 -0.6981  0.5182 -0.2276
18612TIP3    H177251   5.379   0.174  16.455  1.2573 -0.4081  1.0062
18612TIP3    H277252   5.340   0.267  16.568  2.3809 -0.3895  1.3890
18613TIP3   OH277253   1.815   4.473  14.803 -0.0176 -0.5170 -0.3352
18613TIP3    H177254   1.837   4.380  14.790 -2.1936 -1.1589  0.0828
18613TIP3    H277255   1.742   4.488  14.743  1.3638  1.4494 -1.6405
18614TIP3   OH277256   5.311   6.386   1.323 -0.0701  0.2332  0.6098
18614TIP3    H177257   5.374   6.433   1.268 -0.0359  1.6999  1.8543
18614TIP3    H277258   5.359   6.366   1.403  0.4211 -3.3953 -0.4148
18615TIP3   OH277259   0.221   0.164  11.340 -0.0019  0.3360  0.1987
18615TIP3    H177260   0.274   0.088  11.315 -1.6540 -0.9731  0.4918
18615TIP3    H277261   0.177   0.137  11.421 -1.0868  1.3595 -0.0205
18616TIP3   OH277262   4.671   2.275   0.697 -0.1395 -0.5110  0.4539
18616TIP3    H177263   4.752   2.239   0.661  0.5908  1.6447 -0.2509
18616TIP3    H277264   4.698   2.310   0.782 -0.6948 -1.0812  0.8722
18617TIP3   OH277265   4.938   0.913   3.364  0.3180  0.1940 -0.0045
18617TIP3    H177266   4.872   0.875   3.422  1.2354 -0.4448  0.6370
18617TIP3    H277267   4.917   1.007   3.363  0.1655  0.1892  1.1987
18618TIP3   OH277268   4.002   1.939   3.918  0.4339 -0.5983  0.1352
18618TIP3    H177269   3.953   1.921   3.998  0.8190  0.8986  0.7480
18618TIP3    H277270   3.937   1.979   3.859  0.4709 -0.4214  0.2150
18619TIP3   OH277271   4.106   5.854   4.462  0.6226 -0.6587  0.1661
18619TIP3    H177272   4.048   5.921   4.426  1.2127  0.0741  0.5652
18619TIP3    H277273   4.046   5.786   4.494  0.0117 -0.2437 -0.0635
18620TIP3   OH277274   5.760   1.546   5.862  0.4166 -0.0150 -0.4161
18620TIP3    H177275   5.681   1.554   5.915  0.3033  0.5210 -0.6556
18620TIP3    H277276   5.752   1.617   5.798  1.4021  0.4542 -0.0338
18621TIP3   OH277277   5.385   6.427  14.246 -0.0327 -0.1292  0.2392
18621TIP3    H177278   5.425   6.510  14.271 -0.0104 -0.2893  0.7592
18621TIP3    H277279   5.372   6.433  14.152  0.5646  0.2069  0.1761
18622TIP3   OH277280   5.766   4.019   5.470  0.1998 -0.0846  0.4004
18622TIP3    H177281   5.769   3.924   5.478  0.4361 -0.3073 -1.8747
18622TIP3    H277282   5.733   4.035   5.382 -1.3050  1.9828  1.2416
18623TIP3   OH277283   3.217   4.218   2.955 -0.0306  0.1692 -0.3841
18623TIP3    H177284   3.244   4.126   2.953 -0.2255  0.0752  0.8632
18623TIP3    H277285   3.212   4.240   3.048 -1.2822  1.0518 -0.6312
18624TIP3   OH277286   0.011   3.974   1.318 -0.1602  0.0185 -0.9884
18624TIP3    H177287   0.053   3.956   1.402 -0.0527  0.0510 -1.0340
18624TIP3    H277288   0.040   4.063   1.296 -2.5656  1.2152  0.3669
18625TIP3   OH277289   4.455   4.051   6.419  0.0671 -0.2122 -0.1564
18625TIP3    H177290   4.387   4.107   6.382 -0.3972 -0.4217  0.3725
18625TIP3    H277291   4.422   4.026   6.505  1.5940  1.1821  0.9121
18626TIP3   OH277292   1.096   5.913  11.871 -0.3154  0.3503  0.0837
18626TIP3    H177293   1.179   5.927  11.917 -0.9493 -1.6089  1.9920
18626TIP3    H277294   1.033   5.893  11.940 -1.8568 -0.5181 -1.4905
18627TIP3   OH277295   3.082   0.098  16.898 -0.2245 -0.6940  0.1023
18627TIP3    H177296   3.108   0.094  16.806  1.0279 -0.3783  0.4245
18627TIP3    H277297   3.000   0.048  16.902 -2.0638  1.9216 -1.7366
18628TIP3   OH277298   4.689   0.059   2.467 -0.8172  0.2986  0.0146
18628TIP3    H177299   4.755   0.099   2.410 -0.5367 -0.8036 -0.4577
18628TIP3    H277300   4.689   0.114   2.545  1.7711 -0.5237  0.7031
18629TIP3   OH277301   0.728   2.968   6.266 -1.0426  0.2481 -0.8406
18629TIP3    H177302   0.789   3.014   6.324 -2.2783 -0.3533  1.0359
18629TIP3    H277303   0.695   2.895   6.319 -0.9640 -1.3903 -2.9012
18630TIP3   OH277304   1.871   5.790  12.329  0.0056  0.1033 -0.2471
18630TIP3    H177305   1.804   5.735  12.287  0.3438 -1.0439  0.6556
18630TIP3    H277306   1.829   5.821  12.409  0.0122  0.7195 -0.4786
18631TIP3   OH277307   3.279   5.776  12.350 -0.0135 -0.8008  0.0333
18631TIP3    H177308   3.188   5.774  12.381 -0.8002  0.0802 -2.0183
18631TIP3    H277309   3.293   5.867  12.323  0.7132 -1.3901 -1.7240
18632TIP3   OH277310   3.721   1.335   6.284 -0.0161 -0.0367 -0.0436
18632TIP3    H177311   3.723   1.272   6.212 -1.0999  0.8498 -0.8850
18632TIP3    H277312   3.804   1.321   6.330 -0.5931 -2.6939  0.3686
18633TIP3   OH277313   5.416   3.444   3.113 -0.8516  0.5529  0.3923
18633TIP3    H177314   5.466   3.519   3.080  0.3892 -0.1459  0.6256
18633TIP3    H277315   5.332   3.482   3.141 -0.2170  1.8675  0.5971
18634TIP3   OH277316   4.037   4.613  16.968  0.1695 -0.5648  0.3224
18634TIP3    H177317   4.131   4.630  16.961  0.4842 -1.7776  1.3133
18634TIP3    H277318   4.011   4.652  17.051 -0.9147  2.5476 -1.3123
18635TIP3   OH277319   2.817   2.509   5.661 -0.3289 -0.2461 -0.0712
18635TIP3    H177320   2.803   2.551   5.746 -0.1913 -0.0998 -0.1210
18635TIP3    H277321   2.907   2.532   5.638 -1.0087  1.4008 -1.2114
18636TIP3   OH277322   4.979   6.065   4.884  0.4613 -0.2446 -0.0096
18636TIP3    H177323   4.895   6.078   4.838  1.2317  1.6463 -1.0178
18636TIP3    H277324   4.959   6.001   4.952 -1.7598 -0.0335 -0.3585
18637TIP3   OH277325   1.957   6.094  11.115 -0.4677  0.4757 -0.4606
18637TIP3    H177326   2.037   6.077  11.166 -1.2308 -0.0438  0.5926
18637TIP3    H277327   1.974   6.053  11.030  1.0264  1.7811 -0.8448
18638TIP3   OH277328   4.651   5.889  12.306  0.4962  0.6206 -0.1423
18638TIP3    H177329   4.725   5.847  12.348  1.7620  1.1853 -1.7062
18638TIP3    H277330   4.611   5.821  12.252 -1.4508 -0.2527  2.2036
18639TIP3   OH277331   3.540   4.573   1.528 -0.2386  0.4233  0.0379
18639TIP3    H177332   3.507   4.485   1.543  0.2556  0.4861  1.6858
18639TIP3    H277333   3.581   4.569   1.442 -0.3187 -0.9179  0.0472
18640TIP3   OH277334   4.775   3.669   2.557 -0.3189 -0.2230 -0.0674
18640TIP3    H177335   4.753   3.614   2.482  0.2026 -0.1147 -0.3027
18640TIP3    H277336   4.690   3.694   2.594 -0.5635 -0.9541 -0.1215
18641TIP3   OH277337   0.203   3.732  10.771  0.2654  0.0764 -0.3530
18641TIP3    H177338   0.113   3.716  10.741  0.2263  0.6308 -0.5265
18641TIP3    H277339   0.234   3.806  10.719  1.2195 -0.8112 -1.0864
18642TIP3   OH277340   0.422   6.257   2.435 -0.0697  0.1452 -0.0139
18642TIP3    H177341   0.461   6.220   2.514 -1.1294  2.0978  1.5004
18642TIP3    H277342   0.328   6.246   2.446 -0.2551  0.7320 -0.8655
18643TIP3   OH277343   1.034   1.015   3.007  0.2902 -0.3362  0.4998
18643TIP3    H177344   0.989   0.940   2.968  0.5638  0.4037 -1.3681
18643TIP3    H277345   1.085   0.979   3.079 -1.4335 -1.5498  1.1874
18644TIP3   OH277346   4.320   5.125   2.998  0.3029  0.9613  0.4221
18644TIP3    H177347   4.394   5.088   2.950 -0.0651 -1.9819  1.9022
18644TIP3    H277348   4.269   5.172   2.932  1.6387  0.0799 -1.3273
18645TIP3   OH277349   6.077   0.021  11.874 -0.3534 -0.2926 -0.4255
18645TIP3    H177350   6.135  -0.007  11.945 -0.4669  1.6986  0.5472
18645TIP3    H277351   6.026  -0.057  11.853  0.3084 -1.1935  1.0800
18646TIP3   OH277352   6.151   5.212  14.577 -0.0956 -0.4025  0.1147
18646TIP3    H177353   6.204   5.289  14.596 -1.3212  0.3219  0.7253
18646TIP3    H277354   6.186   5.178  14.495  1.4897 -0.1343  0.6429
18647TIP3   OH277355   0.844   0.703  11.247 -0.2446 -0.2638  0.1994
18647TIP3    H177356   0.815   0.658  11.168  1.3469  0.7301 -0.9954
18647TIP3    H277357   0.938   0.717  11.234 -0.1665  0.9206  1.7655
18648TIP3   OH277358   1.903   5.232   0.401  0.4636 -0.1796  0.4848
18648TIP3    H177359   1.896   5.159   0.463 -0.4906 -0.5813 -0.0756
18648TIP3    H277360   1.840   5.211   0.332  0.0849  1.2256  0.3667
18649TIP3   OH277361   2.514   2.549  17.121 -0.1414  0.6293 -0.3997
18649TIP3    H177362   2.487   2.543  17.213  2.0741 -1.7632  0.2003
18649TIP3    H277363   2.528   2.643  17.107  0.2891  1.0067  2.0032
18650TIP3   OH277364   1.438   6.270  12.996  1.0544 -0.0785  0.3765
18650TIP3    H177365   1.432   6.282  12.901 -0.6066  0.5263  0.5284
18650TIP3    H277366   1.358   6.224  13.020  2.5725 -2.4436  1.2008
18651TIP3   OH277367   0.241   0.291  16.128 -0.5564  0.3955 -0.4904
18651TIP3    H177368   0.178   0.233  16.170 -0.1106  0.4474  0.2490
18651TIP3    H277369   0.322   0.241  16.124 -0.5148  0.4905 -1.0503
18652TIP3   OH277370   4.835   5.904   5.065  0.0253  0.1058 -0.0809
18652TIP3    H177371   4.760   5.931   5.119  0.1119  0.6010 -0.2038
18652TIP3    H277372   4.798   5.839   5.006  0.3032 -1.8169  1.7365
18653TIP3   OH277373   4.128   1.326  12.909 -0.3368 -0.1727 -0.0915
18653TIP3    H177374   4.057   1.380  12.942 -0.7496  0.3942 -1.7949
18653TIP3    H277375   4.195   1.388  12.882 -0.2133 -0.5711 -0.7302
18654TIP3   OH277376   5.463   6.540   3.307  0.5725  0.1451 -0.2767
18654TIP3    H177377   5.450   6.620   3.257 -0.3070 -0.3119 -0.8050
18654TIP3    H277378   5.441   6.469   3.246  1.8387 -0.5375  0.0169
18655TIP3   OH277379   1.765   3.747   2.096 -0.6966 -0.2623 -0.5192
18655TIP3    H177380   1.789   3.820   2.039 -1.8995 -0.5358 -1.4228
18655TIP3    H277381   1.825   3.677   2.071 -1.2829 -0.4176 -1.5663
18656TIP3   OH277382   5.897   0.966  12.913 -0.0364  0.8002  0.7194
18656TIP3    H177383   5.939   1.051  12.896 -0.9267  1.1730  0.3417
18656TIP3    H277384   5.813   0.971  12.868  0.2037 -0.5664  0.0832
18657TIP3   OH277385   5.352   5.419   3.893 -0.1424 -0.6506 -0.7583
18657TIP3    H177386   5.265   5.399   3.857 -0.1901  0.1172 -1.0838
18657TIP3    H277387   5.353   5.374   3.978 -0.7739 -0.8559 -0.8508
18658TIP3   OH277388   0.113   3.980  15.404 -0.4582 -0.0356  0.0585
18658TIP3    H177389   0.144   4.065  15.434  0.0080 -0.3517  0.5082
18658TIP3    H277390   0.192   3.925  15.402 -0.9512 -0.8170  1.0928
18659TIP3   OH277391   5.165   4.256   4.416  0.3191 -0.1052  0.3313
18659TIP3    H177392   5.095   4.303   4.370  0.5536  0.3509  0.4279
18659TIP3    H277393   5.133   4.166   4.425 -0.4255  0.1909  0.7364
18660TIP3   OH277394   0.277   3.835   2.876  0.1067 -0.7899  0.0541
18660TIP3    H177395   0.201   3.893   2.881 -0.2367 -1.1116 -1.0656
18660TIP3    H277396   0.288   3.802   2.965  0.6745  1.4107  0.8586
18661TIP3   OH277397   3.236   4.218   4.886 -0.0773 -0.3263 -0.2150
18661TIP3    H177398   3.293   4.203   4.811 -0.6215 -1.8209 -0.3749
18661TIP3    H277399   3.147   4.216   4.850 -0.2835  1.8315  0.0504
18662TIP3   OH277400   6.786   5.309   0.203  0.0032 -0.2835  0.0214
18662TIP3    H177401   6.747   5.299   0.116  0.3034  0.7016 -0.2387
18662TIP3    H277402   6.838   5.230   0.216  0.7715  0.0160 -1.1252
18663TIP3   OH277403   1.917   6.405   2.147  0.0200  0.0579  0.4619
18663TIP3    H177404   1.863   6.380   2.072 -1.4262  3.0464  0.3184
18663TIP3    H277405   1.855   6.410   2.220  0.4658  1.4863  0.7819
18664TIP3   OH277406   3.271   3.496  15.101 -0.3035 -0.5168  0.1021
18664TIP3    H177407   3.202   3.471  15.040  0.0757 -0.4937 -0.3362
18664TIP3    H277408   3.292   3.586  15.079 -0.0565 -0.5582  0.1620
18665TIP3   OH277409   5.504   5.082   4.326  0.0573  0.0117 -0.6828
18665TIP3    H177410   5.564   5.050   4.393 -0.9572 -1.2364 -0.3181
18665TIP3    H277411   5.444   5.140   4.373 -0.5625 -0.7480 -0.4974
18666TIP3   OH277412   1.957   1.500   0.375 -0.0808  0.3161  0.8193
18666TIP3    H177413   2.025   1.567   0.366 -0.4007  1.0204  3.0000
18666TIP3    H277414   1.904   1.508   0.295  0.8876  1.5130  0.2747
18667TIP3   OH277415   3.394   0.454  15.158 -0.1417 -0.1913 -0.1991
18667TIP3    H177416   3.410   0.528  15.099 -2.3307  2.7586  2.5264
18667TIP3    H277417   3.439   0.478  15.239  0.1323 -2.5369  0.4105
18668TIP3   OH277418   4.515   4.390  15.576  0.3078  0.3209  0.3707
18668TIP3    H177419   4.492   4.326  15.643  1.5903 -0.2446  0.3091
18668TIP3    H277420   4.482   4.353  15.494  2.0146 -0.8579  0.1681
18669TIP3   OH277421   4.192   2.965  11.985  0.0599  0.3048 -0.2310
18669TIP3    H177422   4.146   2.909  11.923 -0.2141 -0.6274  0.7872
18669TIP3    H277423   4.207   3.046  11.937 -1.0745 -0.0101 -1.1653
18670TIP3   OH277424   2.074   3.235   1.813  0.2597  0.0128  0.0005
18670TIP3    H177425   2.025   3.270   1.887  1.3663 -0.2834  0.9002
18670TIP3    H277426   2.158   3.281   1.815 -0.0567  0.7433 -1.7071
18671TIP3   OH277427   3.582   5.518  14.164  0.2478  0.6611  0.4859
18671TIP3    H177428   3.672   5.535  14.191  1.0094  0.2532 -1.6738
18671TIP3    H277429   3.571   5.569  14.084 -1.1386 -0.0738  0.1884
18672TIP3   OH277430   6.725   3.951   0.901  0.1232  0.2843 -0.0960
18672TIP3    H177431   6.718   3.895   0.824  1.7564  0.4403 -0.3955
18672TIP3    H277432   6.745   3.890   0.973  1.1462  0.3835 -0.2833
18673TIP3   OH277433   2.877   5.704   4.255 -0.0255 -0.0987 -0.0324
18673TIP3    H177434   2.968   5.724   4.274  0.2521 -0.4886 -0.8865
18673TIP3    H277435   2.837   5.789   4.236 -0.1069  0.1972  1.3637
18674TIP3   OH277436   4.502   2.235   0.472  0.2705  0.9288  0.0305
18674TIP3    H177437   4.412   2.253   0.499  0.2176  0.4576  0.1684
18674TIP3    H277438   4.556   2.277   0.540  0.1401 -1.2396  1.6072
18675TIP3   OH277439   3.932   1.967  14.339  0.3350 -0.3387  0.6206
18675TIP3    H177440   3.920   2.058  14.366 -0.4648 -0.6884  1.5284
18675TIP3    H277441   3.981   1.927  14.411 -0.5709 -0.9495  0.9276
18676TIP3   OH277442   6.244   4.047   6.541 -0.5595  0.2534  0.2391
18676TIP3    H177443   6.155   4.082   6.549 -1.1403 -1.4767  1.9745
18676TIP3    H277444   6.238   3.958   6.574  2.1235  0.5892  1.9047
18677TIP3   OH277445   6.598   1.663   1.332 -0.1930 -0.0052  0.7792
18677TIP3    H177446   6.604   1.696   1.422  1.3693  1.1407  0.2947
18677TIP3    H277447   6.682   1.619   1.317  0.2347  1.2169 -0.6239
18678TIP3   OH277448   1.734   0.676   2.305 -0.0382  0.9985  0.5577
18678TIP3    H177449   1.693   0.744   2.251  0.2580  0.0865 -0.8865
18678TIP3    H277450   1.825   0.703   2.312  0.6390 -0.2794 -1.9330
18679TIP3   OH277451   6.563   1.514   0.392  0.3292 -0.3190  0.8869
18679TIP3    H177452   6.524   1.426   0.393 -1.9537  0.6022  0.4085
18679TIP3    H277453   6.572   1.535   0.299  0.2048  0.2082  0.9903
18680TIP3   OH277454   6.392   2.473  15.623 -0.2538 -0.7939  0.0144
18680TIP3    H177455   6.390   2.378  15.627 -0.1666 -0.8094 -0.2799
18680TIP3    H277456   6.367   2.502  15.711 -0.8472 -1.0787 -0.0587
18681TIP3   OH277457   4.823   2.062  15.417 -0.0231 -0.4692 -0.6216
18681TIP3    H177458   4.729   2.052  15.432  0.1733 -1.8094 -0.0855
18681TIP3    H277459   4.860   2.082  15.503  0.0629  1.3655 -1.0480
18682TIP3   OH277460   2.963   5.449  12.286  0.1806  0.2336 -0.2180
18682TIP3    H177461   2.977   5.363  12.326  2.2504  1.3697  1.7403
18682TIP3    H277462   2.899   5.433  12.217  3.8263 -3.7771 -3.1663
18683TIP3   OH277463   4.600   6.646   2.644 -0.0619  0.6694 -0.1312
18683TIP3    H177464   4.595   6.741   2.646 -1.3733  0.6555 -1.3469
18683TIP3    H277465   4.533   6.616   2.705  0.5628  0.5177  0.4891
18684TIP3   OH277466   1.568   6.064   3.551  0.4416  0.6732 -0.6033
18684TIP3    H177467   1.612   6.003   3.493 -0.4914 -0.7875  0.1564
18684TIP3    H277468   1.494   6.097   3.500 -0.7104 -1.0389 -0.1253
18685TIP3   OH277469   5.386   0.756   1.417  0.6858  0.1037  0.3226
18685TIP3    H177470   5.366   0.669   1.452 -0.8081  0.3323  0.1037
18685TIP3    H277471   5.461   0.786   1.467  0.8916 -1.1109  0.7505
18686TIP3   OH277472   0.074   4.633   3.430  0.1411 -0.0503  0.1440
18686TIP3    H177473   0.079   4.549   3.476  0.1251 -0.3104 -0.3175
18686TIP3    H277474   0.163   4.669   3.436 -0.4518  1.2419  2.7623
18687TIP3   OH277475   6.619   6.793   6.331 -0.8347 -0.2770  0.3307
18687TIP3    H177476   6.613   6.880   6.292  1.7266 -1.4048 -3.1032
18687TIP3    H277477   6.654   6.807   6.418  0.8861  2.0867 -0.6527
18688TIP3   OH277478   4.844   1.372  13.269 -0.3852 -0.2859  0.5911
18688TIP3    H177479   4.826   1.282  13.296 -0.0026 -0.3244  0.7363
18688TIP3    H277480   4.913   1.363  13.203 -1.3803 -0.1982 -0.4936
18689TIP3   OH277481   6.059   0.148   4.887 -0.4910 -0.5310  0.3588
18689TIP3    H177482   6.063   0.165   4.981  1.2953  1.9416 -0.0499
18689TIP3    H277483   6.054   0.053   4.879  1.0175 -0.8997  2.9481
18690TIP3   OH277484   0.170   5.643   6.026 -0.0394 -0.8816 -0.8882
18690TIP3    H177485   0.242   5.647   5.963 -1.4303 -1.1114 -2.5508
18690TIP3    H277486   0.162   5.550   6.048 -0.4059 -0.9743 -1.4053
18691TIP3   OH277487   3.532   1.803  11.505  0.1371 -0.1599 -0.1796
18691TIP3    H177488   3.492   1.722  11.473  1.9717 -1.6017  1.0564
18691TIP3    H277489   3.532   1.795  11.600 -1.5361  2.2812  0.1455
18692TIP3   OH277490   6.670   2.503  16.146  0.1648  0.2015 -0.1262
18692TIP3    H177491   6.682   2.460  16.231  2.6931  2.6405  0.8930
18692TIP3    H277492   6.693   2.436  16.082 -0.5603 -1.3074  1.1302
18693TIP3   OH277493   0.525   4.428   6.577  0.5855  0.0980  0.2700
18693TIP3    H177494   0.466   4.387   6.513 -0.7498  2.2153  0.0427
18693TIP3    H277495   0.583   4.483   6.524  2.6701 -1.6837  0.5252
18694TIP3   OH277496   2.009   5.109  12.410 -0.2897  0.1109  0.3194
18694TIP3    H177497   1.937   5.171  12.398 -0.3349 -0.1424 -0.8352
18694TIP3    H277498   2.081   5.146  12.359 -0.6084 -1.2253 -1.2112
18695TIP3   OH277499   1.549   6.475   3.552  0.1239  0.5892  0.0370
18695TIP3    H177500   1.552   6.571   3.555  0.3722  0.5632  0.9520
18695TIP3    H277501   1.590   6.447   3.634  1.6538 -0.3511 -0.9952
18696TIP3   OH277502   3.769   0.401   5.706  0.2364 -0.2848  0.0255
18696TIP3    H177503   3.799   0.391   5.615  2.4120  0.5611  0.5883
18696TIP3    H277504   3.758   0.311   5.737 -1.2574 -0.5834 -1.2630
18697TIP3   OH277505   1.596   1.005   5.081 -0.2070 -0.3586  0.4621
18697TIP3    H177506   1.685   1.030   5.105 -0.5083 -0.2270  1.5393
18697TIP3    H277507   1.541   1.049   5.146 -0.9739 -1.3840  0.5372
18698TIP3   OH277508   4.244   6.487  16.591  0.2806 -0.1916  0.0804
18698TIP3    H177509   4.233   6.581  16.576 -3.0423 -0.1186  1.8547
18698TIP3    H277510   4.313   6.481  16.657  0.9440  0.9423 -0.4820
18699TIP3   OH277511   4.063   1.734  17.134  0.2610 -0.2909  0.2780
18699TIP3    H177512   4.103   1.796  17.072  0.9710  0.4140  1.4066
18699TIP3    H277513   4.114   1.654  17.123  0.8210  0.0415  0.4138
18700TIP3   OH277514   4.112   5.543  17.169  0.3550 -0.0486  0.0415
18700TIP3    H177515   4.070   5.614  17.216  0.6228  0.2826 -0.2090
18700TIP3    H277516   4.042   5.503  17.118  0.5054  1.1538 -1.1752
18701TIP3   OH277517   2.477   6.200  12.049 -0.9311  0.4459  0.5037
18701TIP3    H177518   2.472   6.105  12.044 -0.2377  0.4629 -0.7618
18701TIP3    H277519   2.461   6.230  11.960  0.3516  1.4411  0.5857
18702TIP3   OH277520   3.714   1.021   6.400 -0.1521 -1.2962 -0.7077
18702TIP3    H177521   3.695   0.985   6.313  0.4338 -0.6564 -1.1043
18702TIP3    H277522   3.704   0.946   6.459  1.7216 -2.3110 -1.6011
18703TIP3   OH277523   2.406   1.822  11.496  0.4595  0.2364 -0.4070
18703TIP3    H177524   2.333   1.869  11.456 -0.2089 -0.9322 -0.6198
18703TIP3    H277525   2.473   1.819  11.428 -0.4357 -1.2000 -1.2893
18704TIP3   OH277526   3.031   4.275   0.212 -0.1066 -0.3210  0.2024
18704TIP3    H177527   2.992   4.224   0.283  0.1649 -0.3699  0.3170
18704TIP3    H277528   3.123   4.250   0.212  0.4799  1.5900  1.5322
18705TIP3   OH277529   0.485   0.402  14.163 -0.2463 -0.0499 -0.2870
18705TIP3    H177530   0.505   0.309  14.160  0.2082 -0.1259  2.5669
18705TIP3    H277531   0.390   0.406  14.178 -0.0066 -0.1754  1.5028
18706TIP3   OH277532   2.944   1.542   3.071 -0.1741  0.1448 -0.1172
18706TIP3    H177533   2.937   1.515   2.979 -0.8061  1.7234 -0.5635
18706TIP3    H277534   2.885   1.485   3.118  0.2921 -0.8049 -0.6583
18707TIP3   OH277535   3.595   4.157   1.806 -0.6093  0.2226 -0.2627
18707TIP3    H177536   3.676   4.106   1.808 -0.7889 -0.0379  0.7474
18707TIP3    H277537   3.593   4.205   1.889 -0.9437  1.1054 -0.7602
18708TIP3   OH277538   5.063   2.558  13.523  0.1787  0.8174  0.0403
18708TIP3    H177539   5.142   2.513  13.555  0.2342  0.4067 -0.6533
18708TIP3    H277540   5.060   2.537  13.430 -1.7107 -0.6525  0.3742
18709TIP3   OH277541   6.528   3.976   3.361 -0.0137  0.4131 -0.3593
18709TIP3    H177542   6.604   3.928   3.393  0.9939  0.3678 -2.6457
18709TIP3    H277543   6.464   3.969   3.432  1.7886 -0.2621  1.2900
18710TIP3   OH277544   3.591   2.786   1.716  0.5691  0.0717 -0.1230
18710TIP3    H177545   3.569   2.840   1.792 -0.0096 -0.7966  0.3466
18710TIP3    H277546   3.670   2.826   1.680 -0.6474  2.1113 -0.6843
18711TIP3   OH277547   2.131   4.984  13.563 -0.1918  0.2177 -0.0222
18711TIP3    H177548   2.225   4.970  13.549 -0.1273  1.2459 -0.7290
18711TIP3    H277549   2.125   5.076  13.590 -0.9025 -0.1274  1.1001
18712TIP3   OH277550   1.254   6.402  11.306 -0.2205 -0.3585  0.2646
18712TIP3    H177551   1.190   6.379  11.238  0.6161  0.7551 -0.9432
18712TIP3    H277552   1.322   6.335  11.298 -0.5776 -0.7838  0.6778
18713TIP3   OH277553   2.948   5.936   0.737  0.7902 -1.2023 -0.3428
18713TIP3    H177554   2.994   5.976   0.663 -0.3324  0.1191 -0.3488
18713TIP3    H277555   2.965   5.842   0.727  3.5069 -0.8048 -0.3246
18714TIP3   OH277556   0.830   6.426   1.324  0.0223 -0.4513  0.5133
18714TIP3    H177557   0.868   6.511   1.344  2.5672 -1.4276  0.2702
18714TIP3    H277558   0.764   6.412   1.391 -1.9411  2.5124 -0.6047
18715TIP3   OH277559   6.279   6.597   0.147  0.0761  0.2164  0.0252
18715TIP3    H177560   6.358   6.560   0.187 -0.2878 -2.4243 -1.5263
18715TIP3    H277561   6.300   6.690   0.136  2.1094  0.0140  1.6042
18716TIP3   OH277562   4.824   4.787  12.697  0.1046 -0.4154 -0.2590
18716TIP3    H177563   4.910   4.787  12.738  0.6187  0.2680 -1.3024
18716TIP3    H277564   4.842   4.799  12.604 -1.0123 -2.0450 -0.7373
18717TIP3   OH277565   2.683   5.925  15.982  0.6906 -0.0123  0.3089
18717TIP3    H177566   2.686   5.881  16.067 -0.0604  1.8020  1.3391
18717TIP3    H277567   2.690   5.854  15.918  2.4362 -1.3332  1.8633
18718TIP3   OH277568   1.174   6.725  15.000  0.0188  0.8288  0.1545
18718TIP3    H177569   1.238   6.793  14.980 -1.9431  2.6079 -0.4380
18718TIP3    H277570   1.113   6.766  15.062  0.2155 -1.2894  1.9047
18719TIP3   OH277571   5.985   2.466   2.091 -0.1645 -0.5768  0.2275
18719TIP3    H177572   5.967   2.553   2.055  0.6059 -0.5139 -0.0248
18719TIP3    H277573   5.946   2.468   2.179 -0.9327 -0.2896 -0.1066
18720TIP3   OH277574   4.472   0.701  12.179 -0.3672 -0.1686  0.2765
18720TIP3    H177575   4.554   0.678  12.223  0.1484 -0.7628 -0.9332
18720TIP3    H277576   4.483   0.793  12.156  0.5730 -0.5724 -1.0555
18721TIP3   OH277577   3.763   4.121   4.269  0.3909  0.4972  0.4776
18721TIP3    H177578   3.710   4.066   4.327 -1.8360  1.6382 -0.3653
18721TIP3    H277579   3.787   4.063   4.197 -0.5223  0.1771  0.4184
18722TIP3   OH277580   0.564   1.340  12.089 -0.3808  0.7765 -0.5745
18722TIP3    H177581   0.626   1.273  12.118  0.1767  1.4503 -0.1961
18722TIP3    H277582   0.490   1.330  12.149 -0.1365  0.7495 -0.2720
18723TIP3   OH277583   4.257   5.569   0.589 -0.3608  0.6435 -0.4412
18723TIP3    H177584   4.256   5.584   0.495 -2.9642 -0.1421 -0.6239
18723TIP3    H277585   4.188   5.627   0.623 -0.7713 -0.4640  0.6999
18724TIP3   OH277586   4.213   2.138  13.321 -0.2371 -0.3901  0.0709
18724TIP3    H177587   4.277   2.208  13.334 -0.0804  0.2452 -3.2904
18724TIP3    H277588   4.218   2.118  13.227 -5.2437  0.0304 -0.5551
18725TIP3   OH277589   6.800   0.451  12.636 -0.2043  0.0534  0.4770
18725TIP3    H177590   6.817   0.374  12.690 -1.0221 -0.5455 -0.0992
18725TIP3    H277591   6.837   0.524  12.686  0.3329 -0.6707  1.1596
18726TIP3   OH277592   2.214   5.193   0.187  0.5640  0.1248  0.2609
18726TIP3    H177593   2.170   5.217   0.269  1.1450  0.2977  0.5277
18726TIP3    H277594   2.223   5.276   0.140  1.0536  0.1754  0.4340
18727TIP3   OH277595   0.784   1.679   0.064  0.7936 -0.2778  0.1571
18727TIP3    H177596   0.824   1.629   0.135 -0.6132  1.8678  2.6316
18727TIP3    H277597   0.698   1.641   0.052  1.1482 -0.8473 -0.6930
18728TIP3   OH277598   0.254   5.281  11.564 -0.4654  0.8841 -0.3880
18728TIP3    H177599   0.259   5.312  11.655 -0.7867  0.1349 -0.1160
18728TIP3    H277600   0.214   5.195  11.569 -1.9750  1.4866 -1.3946
18729TIP3   OH277601   3.346   5.242   0.410  0.2841  0.0931  0.4966
18729TIP3    H177602   3.345   5.163   0.356 -1.6485  0.3250  0.1305
18729TIP3    H277603   3.408   5.221   0.481  0.6130 -1.3303 -0.1617
18730TIP3   OH277604   4.836   2.739   5.907 -0.6181  0.5278  0.3693
18730TIP3    H177605   4.835   2.762   5.814 -1.4813  1.9953  0.7061
18730TIP3    H277606   4.787   2.809   5.949  0.1503  0.1358  1.9980
18731TIP3   OH277607   6.496   1.584   0.867  0.2297  0.5106 -0.3696
18731TIP3    H177608   6.460   1.564   0.781  0.3209  1.9397 -0.7673
18731TIP3    H277609   6.447   1.527   0.927  0.0888 -0.4142 -1.3425
18732TIP3   OH277610   5.716   0.856  13.613 -0.4664  0.4552 -0.1407
18732TIP3    H177611   5.707   0.820  13.525 -2.0162  0.4567 -0.0076
18732TIP3    H277612   5.780   0.927  13.604  1.2659 -1.0972 -0.7587
18733TIP3   OH277613   2.780   1.239   5.397 -0.2024  0.5990  0.3630
18733TIP3    H177614   2.719   1.281   5.457  0.1741  1.0585  0.4304
18733TIP3    H277615   2.754   1.147   5.397 -1.7905  0.9996 -0.6884
18734TIP3   OH277616   0.212   2.629  14.767 -0.2019 -0.0117 -0.2459
18734TIP3    H177617   0.251   2.669  14.845 -0.5529 -0.7423  0.3292
18734TIP3    H277618   0.285   2.620  14.705  0.6858 -1.6868  0.9394
18735TIP3   OH277619   4.295   5.872   6.370  0.0737  0.2379  0.7018
18735TIP3    H177620   4.208   5.834   6.367  0.6499 -1.0996 -0.0594
18735TIP3    H277621   4.287   5.947   6.429 -0.8699 -1.6738  3.1435
18736TIP3   OH277622   4.307   1.235  17.114 -0.1418  0.6066  0.2022
18736TIP3    H177623   4.335   1.283  17.192 -0.3688  1.8137 -0.4204
18736TIP3    H277624   4.291   1.146  17.144 -1.9997  1.4543  1.9513
18737TIP3   OH277625   3.324   3.108  13.039  0.0582 -1.1139  0.1660
18737TIP3    H177626   3.362   3.191  13.010 -1.7987 -0.6217 -1.0633
18737TIP3    H277627   3.380   3.041  12.999  0.0944 -0.4217 -0.9961
18738TIP3   OH277628   5.674   2.805   2.911 -0.2359 -0.1484  0.2199
18738TIP3    H177629   5.653   2.859   2.988  0.4407  0.6736 -0.1542
18738TIP3    H277630   5.756   2.762   2.933  1.1782  1.8327 -0.8563
18739TIP3   OH277631   4.774   5.479  14.567 -0.0457 -0.3482  0.0139
18739TIP3    H177632   4.825   5.560  14.570 -3.6342  2.1488  0.0268
18739TIP3    H277633   4.738   5.470  14.655 -0.3410 -1.5154 -0.2112
18740TIP3   OH277634   2.068   6.665   5.951  0.3467 -0.1470  0.1674
18740TIP3    H177635   2.161   6.673   5.974  0.0491 -1.3537  1.9739
18740TIP3    H277636   2.035   6.597   6.009 -1.4313 -0.5443 -1.2411
18741TIP3   OH277637   0.770   5.062   1.586 -0.3777 -0.2770  0.4095
18741TIP3    H177638   0.803   4.998   1.649  1.0202  1.4482  1.5434
18741TIP3    H277639   0.845   5.081   1.529 -0.3068  1.3150  0.9724
18742TIP3   OH277640   5.575   2.118   4.047 -0.0934  0.2756 -0.3596
18742TIP3    H177641   5.501   2.146   4.101 -0.0842 -0.1814 -0.1018
18742TIP3    H277642   5.644   2.098   4.110 -0.0360 -0.1281 -0.5480
18743TIP3   OH277643   6.560   6.670   4.035  0.4668  0.3357  0.4505
18743TIP3    H177644   6.654   6.674   4.054  0.3608 -0.8537  1.3482
18743TIP3    H277645   6.555   6.638   3.945  0.9151  0.0590  0.5231
18744TIP3   OH277646   5.638   5.125  15.312  0.1174  0.5570 -0.0507
18744TIP3    H177647   5.600   5.073  15.241 -0.2061 -0.6588  0.9623
18744TIP3    H277648   5.647   5.063  15.384  0.8577  1.6499  0.8331
18745TIP3   OH277649   4.484   5.355  11.764 -0.0055 -0.1362  0.3878
18745TIP3    H177650   4.414   5.412  11.732 -1.6466 -2.1832  0.1220
18745TIP3    H277651   4.453   5.325  11.850  1.4890  0.4121  1.1645
18746TIP3   OH277652   0.457   4.040  14.372 -0.5565 -0.1233 -0.0959
18746TIP3    H177653   0.506   4.113  14.410 -0.2791 -0.6971  0.6687
18746TIP3    H277654   0.502   4.021  14.290 -1.3289  1.3187 -0.8991
18747TIP3   OH277655   2.895   3.668  12.635  0.2164 -0.1933 -0.3149
18747TIP3    H177656   2.935   3.722  12.567  0.3897 -0.0688 -0.1174
18747TIP3    H277657   2.804   3.698  12.639 -0.4380 -1.7731 -2.0839
18748TIP3   OH277658   5.928   0.346  10.990 -0.0117  0.0011 -0.0075
18748TIP3    H177659   5.959   0.383  10.908  1.1049 -3.0417 -1.1104
18748TIP3    H277660   5.917   0.253  10.971 -2.9955 -0.2898  2.4004
18749TIP3   OH277661   3.102   2.513  11.367 -0.3478  0.2698  0.5536
18749TIP3    H177662   3.145   2.597  11.349  2.4859 -0.1746  4.0999
18749TIP3    H277663   3.145   2.452  11.306 -2.2166  1.1810 -1.8375
18750TIP3   OH277664   5.158   4.955  13.752 -0.4240  0.1345 -0.1335
18750TIP3    H177665   5.109   4.873  13.753  0.8033 -0.6371  0.2072
18750TIP3    H277666   5.094   5.022  13.729 -2.0190 -0.5528  2.0074
18751TIP3   OH277667   3.799   1.817  13.213 -0.0674 -0.2338 -0.6602
18751TIP3    H177668   3.828   1.758  13.144 -0.3505 -0.8293 -0.2862
18751TIP3    H277669   3.876   1.830  13.268 -0.3833 -1.5014  0.1167
18752TIP3   OH277670   2.464   4.104   1.362  0.1753 -0.3181  0.5509
18752TIP3    H177671   2.390   4.151   1.401 -2.2238 -2.0613 -1.5662
18752TIP3    H277672   2.493   4.161   1.291  1.7340  0.8777  2.0450
18753TIP3   OH277673   1.339   1.808  13.105 -0.8086 -0.2281 -0.2659
18753TIP3    H177674   1.379   1.884  13.062  1.8354 -1.6834 -0.5333
18753TIP3    H277675   1.345   1.828  13.198  0.5315 -0.3714 -0.3017
18754TIP3   OH277676   3.401   6.414   6.136 -0.5976 -0.2812  0.5929
18754TIP3    H177677   3.309   6.437   6.147 -0.8654 -0.0971 -1.6111
18754TIP3    H277678   3.444   6.496   6.111 -0.2694 -0.7750 -0.5507
18755TIP3   OH277679   2.933   3.770  15.767 -0.2695  0.3505 -0.4301
18755TIP3    H177680   2.861   3.721  15.808  0.5691 -0.7520 -0.2222
18755TIP3    H277681   2.954   3.720  15.688  0.9056  0.0952  0.0252
18756TIP3   OH277682   4.667   4.220   4.919  0.1118 -0.0721  0.2489
18756TIP3    H177683   4.598   4.231   4.984 -0.0515  0.5684 -0.0303
18756TIP3    H277684   4.643   4.140   4.872 -0.5042  0.2084  0.0789
18757TIP3   OH277685   2.387   6.634  16.425 -0.0440  0.3122 -0.1146
18757TIP3    H177686   2.440   6.714  16.432  0.7789 -0.3785  2.3867
18757TIP3    H277687   2.414   6.580  16.499 -2.3033 -1.2887 -0.3493
18758TIP3   OH277688   0.982   0.940   4.105 -0.3902  0.0028 -0.4997
18758TIP3    H177689   0.932   0.861   4.125  0.1847  0.2422  2.3611
18758TIP3    H277690   0.915   1.006   4.086 -0.9923 -0.5562 -0.3705
18759TIP3   OH277691   4.341   3.811  14.857  0.2319 -0.1037  0.2359
18759TIP3    H177692   4.321   3.901  14.883 -4.1712 -0.5135 -0.9335
18759TIP3    H277693   4.300   3.757  14.924  0.8748 -1.2328 -0.2499
18760TIP3   OH277694   6.760   0.059  16.967  0.4148 -0.1225  0.9647
18760TIP3    H177695   6.736   0.031  17.056 -0.7379 -1.0114  0.4108
18760TIP3    H277696   6.843   0.014  16.950 -0.3918 -1.6306  0.8567
18761TIP3   OH277697   2.964   2.415  12.588  0.2031  0.4499  0.4684
18761TIP3    H177698   2.879   2.410  12.631  0.6109  0.3668  1.2790
18761TIP3    H277699   2.976   2.328  12.549 -2.2894  1.7843 -4.0598
18762TIP3   OH277700   0.115   0.649  14.824  0.1326  0.0437 -0.5589
18762TIP3    H177701   0.054   0.578  14.844  2.2873 -1.5625  0.6955
18762TIP3    H277702   0.062   0.728  14.829 -1.8361 -1.2639  0.4570
18763TIP3   OH277703   1.048   1.186   0.952 -0.2080  0.5098  0.0458
18763TIP3    H177704   1.036   1.093   0.934  0.3735  0.6574 -1.2400
18763TIP3    H277705   1.003   1.231   0.880  1.0976  1.1623 -0.4069
18764TIP3   OH277706   0.315   4.620  14.989 -0.8182  0.1689 -0.3000
18764TIP3    H177707   0.332   4.705  14.947 -1.8275  0.3565 -0.3625
18764TIP3    H277708   0.240   4.585  14.942 -0.0397 -1.0477 -0.6587
18765TIP3   OH277709   5.125   6.516  15.439 -0.2252  0.1221 -0.3413
18765TIP3    H177710   5.162   6.602  15.463  1.3748 -0.8835  0.9910
18765TIP3    H277711   5.183   6.453  15.480 -0.8198 -1.6575 -2.0887
18766TIP3   OH277712   5.369   4.557  16.551  0.2194  0.2802 -0.4642
18766TIP3    H177713   5.298   4.622  16.558  1.2102  1.1891  2.4276
18766TIP3    H277714   5.446   4.609  16.530  0.8689 -0.0041  1.0720
18767TIP3   OH277715   3.066   2.002  16.964 -0.2667 -0.4448  0.1177
18767TIP3    H177716   3.113   2.064  17.019 -1.4421  1.3217 -0.7754
18767TIP3    H277717   3.135   1.953  16.918  0.6872  0.4374  0.5774
18768TIP3   OH277718   1.990   4.307   3.376 -0.0833  0.0970  0.1121
18768TIP3    H177719   1.974   4.230   3.322  1.5390  0.5279 -1.0620
18768TIP3    H277720   2.008   4.272   3.463  3.7697 -1.2210 -1.0250
18769TIP3   OH277721   3.609   6.692  14.872  0.4811  0.3584  0.5055
18769TIP3    H177722   3.589   6.647  14.789  0.6232  1.2115 -0.0060
18769TIP3    H277723   3.527   6.687  14.922  0.7090 -1.0911  0.7675
18770TIP3   OH277724   1.883   3.225   0.715  0.0152 -0.1207  0.2447
18770TIP3    H177725   1.920   3.211   0.628  0.3819  2.4776 -0.0984
18770TIP3    H277726   1.794   3.190   0.709 -0.3026  0.8817 -1.5013
18771TIP3   OH277727   1.036   2.082  11.505 -0.0285  0.0644  0.6696
18771TIP3    H177728   1.090   2.084  11.584  0.1341  1.4958  0.5461
18771TIP3    H277729   1.087   2.029  11.442 -0.1783 -1.1109  1.5102
18772TIP3   OH277730   5.535   3.042   2.836 -0.3233  0.3487 -0.3354
18772TIP3    H177731   5.548   3.108   2.768  2.1979  1.4813  1.0821
18772TIP3    H277732   5.605   2.978   2.821 -0.9900 -0.4779  0.0075
18773TIP3   OH277733   3.988   6.711   4.923 -0.5831 -0.0766 -0.7015
18773TIP3    H177734   4.038   6.788   4.951 -1.3247  0.4189 -0.7209
18773TIP3    H277735   3.947   6.680   5.004 -0.3323 -0.4254 -0.7056
18774TIP3   OH277736   2.347   6.306   1.860  0.4881  0.5632 -0.8524
18774TIP3    H177737   2.348   6.399   1.835  0.2522  0.4385 -1.3142
18774TIP3    H277738   2.416   6.266   1.807  0.3430  0.4014 -0.9173
18775TIP3   OH277739   3.484   1.798   0.903  0.0149  0.1616  0.0553
18775TIP3    H177740   3.552   1.850   0.945 -0.9921  0.3438  1.5488
18775TIP3    H277741   3.491   1.712   0.943 -0.6992  0.2213  0.3309
18776TIP3   OH277742   5.664   3.843  10.808 -0.5853 -0.1459  0.7887
18776TIP3    H177743   5.699   3.863  10.721  0.4638 -0.1626  1.2052
18776TIP3    H277744   5.569   3.849  10.797 -0.4422  0.4164 -0.2229
18777TIP3   OH277745   5.297   4.953  12.699  0.3822 -0.3056  0.0143
18777TIP3    H177746   5.307   4.912  12.784 -0.2267  0.1792  0.3314
18777TIP3    H277747   5.205   4.937  12.676  0.1355  0.8630  0.1465
18778TIP3   OH277748   1.566   4.627  11.546  0.1093 -0.0865  0.3012
18778TIP3    H177749   1.608   4.710  11.569 -1.0570  0.2425  1.4090
18778TIP3    H277750   1.632   4.578  11.498 -0.0614  2.6794 -3.1925
18779TIP3   OH277751   6.110   2.708  16.150  0.5543 -0.3182  0.4788
18779TIP3    H177752   6.184   2.717  16.090  0.9559 -1.9029  0.7023
18779TIP3    H277753   6.037   2.681  16.094  0.6985 -0.8998  0.5713
18780TIP3   OH277754   3.129   4.169   2.316 -0.0595  0.2881 -0.0377
18780TIP3    H177755   3.126   4.259   2.348 -1.1475 -0.1370  1.1128
18780TIP3    H277756   3.194   4.126   2.372  1.5983  0.6768 -1.5580
18781TIP3   OH277757   0.116   4.543  16.520 -0.3721 -0.1300  0.6045
18781TIP3    H177758   0.199   4.572  16.558 -0.7272  0.3156  1.0598
18781TIP3    H277759   0.133   4.538  16.426 -0.4528  2.2439  0.4020
18782TIP3   OH277760   4.194   4.988  16.675 -0.3764 -0.8907  0.3886
18782TIP3    H177761   4.245   4.997  16.595 -0.7983  1.4779  0.3003
18782TIP3    H277762   4.131   4.918  16.656  0.9182 -1.8527 -0.5225
18783TIP3   OH277763   6.580   5.111  15.751  0.2856  0.0727  0.0983
18783TIP3    H177764   6.506   5.131  15.809  1.5604  0.1256  1.7836
18783TIP3    H277765   6.656   5.112  15.809  1.3814 -1.9500 -1.1957
18784TIP3   OH277766   1.655   3.153   2.248  0.4208  0.4673 -0.8748
18784TIP3    H177767   1.601   3.224   2.213 -3.4060 -1.2253  0.9719
18784TIP3    H277768   1.641   3.080   2.188  1.1946  0.1858 -0.7207
18785TIP3   OH277769   1.186   5.429  13.682 -0.1090 -0.0725  0.4482
18785TIP3    H177770   1.119   5.362  13.692  1.1625 -1.7148 -1.2716
18785TIP3    H277771   1.227   5.410  13.597  2.1174  1.1960  1.1398
18786TIP3   OH277772   1.716   3.565  16.807  0.3914  0.0272 -0.1880
18786TIP3    H177773   1.789   3.504  16.804  0.8484  0.4252  1.5244
18786TIP3    H277774   1.748   3.644  16.763  1.1077  0.2912  0.7810
18787TIP3   OH277775   0.972   2.478   0.731  0.1038  0.0614  0.1280
18787TIP3    H177776   1.035   2.475   0.659  0.3624 -1.2096  0.4018
18787TIP3    H277777   0.887   2.467   0.688  0.2561 -0.6718  0.0144
18788TIP3   OH277778   6.261   1.048  11.810 -0.6731 -0.1974  1.0878
18788TIP3    H177779   6.201   1.102  11.862  0.0997  2.0198 -0.1496
18788TIP3    H277780   6.207   1.015  11.738 -0.7776  0.5942  0.7814
18789TIP3   OH277781   2.113   2.957   4.510 -0.2219  0.2091  0.7317
18789TIP3    H177782   2.113   3.053   4.521  1.2973  0.3373 -0.2002
18789TIP3    H277783   2.090   2.943   4.419 -2.8283 -0.4621  1.4140
18790TIP3   OH277784   3.869   2.385  14.206 -0.0161  0.2717  0.8730
18790TIP3    H177785   3.953   2.412  14.243  0.5475 -0.8627  0.4742
18790TIP3    H277786   3.804   2.430  14.259  0.8356  0.8026  1.4961
18791TIP3   OH277787   6.745   2.167  10.574  0.2170 -0.0056 -0.2134
18791TIP3    H177788   6.799   2.246  10.575  0.4907 -0.1556  1.6236
18791TIP3    H277789   6.804   2.098  10.603 -0.3105 -0.6596 -0.6893
18792TIP3   OH277790   4.424   4.158   3.705 -0.7851  0.1031  0.2976
18792TIP3    H177791   4.518   4.176   3.706 -1.1547  2.2958 -0.4928
18792TIP3    H277792   4.389   4.203   3.782 -1.4544  1.1200 -0.5694
18793TIP3   OH277793   1.921   6.175   5.302 -0.4907 -0.1228  0.0596
18793TIP3    H177794   1.929   6.158   5.396  0.1103  1.5291  0.3377
18793TIP3    H277795   1.847   6.120   5.274 -0.2283 -1.1816  1.3338
18794TIP3   OH277796   2.259   5.038  15.383  0.4960  0.5914  0.2762
18794TIP3    H177797   2.170   5.033  15.347  0.8734  4.6907 -1.7518
18794TIP3    H277798   2.261   4.970  15.451 -3.6271 -0.7119 -0.6255
18795TIP3   OH277799   1.427   2.642  11.245 -0.1596 -0.5316 -0.3980
18795TIP3    H177800   1.520   2.620  11.239 -0.4302 -1.1999 -3.0137
18795TIP3    H277801   1.426   2.733  11.274  1.2862 -0.5149 -0.3244
18796TIP3   OH277802   2.383   1.168  11.160  0.1193  0.2511  0.5261
18796TIP3    H177803   2.436   1.110  11.105  0.8126  0.9895  0.3913
18796TIP3    H277804   2.383   1.251  11.113  0.6575  0.8741  1.5901
18797TIP3   OH277805   2.153   4.066  12.089  0.3445 -0.3130  0.2307
18797TIP3    H177806   2.224   4.044  12.149  0.5376 -0.2312  0.0330
18797TIP3    H277807   2.125   4.154  12.116 -0.6609 -0.9153  1.2462
18798TIP3   OH277808   2.919   5.299  13.185  0.1785  0.6291 -0.1502
18798TIP3    H177809   2.838   5.251  13.169 -0.6781  1.6657  0.9103
18798TIP3    H277810   2.958   5.310  13.098 -0.5009 -0.4037 -0.6035
18799TIP3   OH277811   1.543   1.309  16.808  0.0726  0.2234  0.1508
18799TIP3    H177812   1.547   1.341  16.898  0.7912 -1.0833  0.6034
18799TIP3    H277813   1.455   1.274  16.798  0.5209 -1.2065  0.9317
18800TIP3   OH277814   0.275   0.903  11.785  0.4902 -0.3737  0.3728
18800TIP3    H177815   0.333   0.950  11.724  0.0520  1.0792  1.0283
18800TIP3    H277816   0.334   0.865  11.849  0.7776  0.9431  0.9338
18801TIP3   OH277817   3.850   2.440  12.127 -0.3176 -0.6490 -0.0784
18801TIP3    H177818   3.883   2.350  12.125  2.5833  0.3456 -0.5575
18801TIP3    H277819   3.928   2.495  12.131 -1.9894  1.8944 -0.1383
18802TIP3   OH277820   0.530   5.367   0.236  0.8384  0.4225  0.2455
18802TIP3    H177821   0.439   5.339   0.247  0.8850  0.0017 -0.4129
18802TIP3    H277822   0.552   5.408   0.319 -0.3624  1.6735  0.0048
18803TIP3   OH277823   3.781   6.236   1.615 -0.1913 -0.4330  0.1950
18803TIP3    H177824   3.768   6.141   1.616  0.0639 -0.4864  2.4037
18803TIP3    H277825   3.769   6.261   1.523 -2.8195 -2.2455 -0.0689
18804TIP3   OH277826   0.756   0.535  15.716 -0.6868 -0.3146  0.0777
18804TIP3    H177827   0.756   0.631  15.717  0.8541 -0.2755 -0.0410
18804TIP3    H277828   0.683   0.510  15.771 -0.8328  0.9404  0.4913
18805TIP3   OH277829   3.499   0.183  15.116 -0.1524 -0.3238 -0.0632
18805TIP3    H177830   3.447   0.263  15.126 -0.5046 -0.6903  1.2508
18805TIP3    H277831   3.587   0.208  15.142  0.2522  0.1693 -1.7962
18806TIP3   OH277832   2.656   0.675  16.021  0.2034  0.3146 -0.1090
18806TIP3    H177833   2.645   0.697  16.113  0.8415  1.3712 -0.2741
18806TIP3    H277834   2.744   0.637  16.015 -0.1511 -0.5351 -0.1585
18807TIP3   OH277835   6.316   4.412   5.393 -0.6713 -0.5317  0.2180
18807TIP3    H177836   6.246   4.355   5.425 -0.9979  0.5628  1.5898
18807TIP3    H277837   6.274   4.498   5.384  0.4966  0.1886  1.2463
18808TIP3   OH277838   4.393   6.487  11.926  1.0185  0.3621 -0.0493
18808TIP3    H177839   4.364   6.469  11.837 -3.6831  0.4525  1.2299
18808TIP3    H277840   4.404   6.582  11.929 -0.1575  0.5163 -0.2440
18809TIP3   OH277841   0.808   2.486  15.743 -0.4507 -0.2837 -0.3499
18809TIP3    H177842   0.875   2.423  15.718 -0.1372 -0.8232  1.6189
18809TIP3    H277843   0.737   2.433  15.779  0.8790  0.3672  3.8339
18810TIP3   OH277844   3.856   5.717  16.424 -0.4502 -0.1244 -0.1567
18810TIP3    H177845   3.810   5.640  16.392 -0.6044 -0.1290  0.0695
18810TIP3    H277846   3.790   5.787  16.420 -0.6664 -0.2610  0.7356
18811TIP3   OH277847   3.261   2.012  12.691 -0.1255  0.3810 -0.0738
18811TIP3    H177848   3.291   2.052  12.772  1.6519 -1.6596  0.3581
18811TIP3    H277849   3.278   2.079  12.624 -0.0867  1.4773  0.9913
18812TIP3   OH277850   5.675   0.491  13.235 -0.4082 -0.1238  0.2390
18812TIP3    H177851   5.716   0.406  13.252 -1.0046 -1.1028 -2.5497
18812TIP3    H277852   5.720   0.523  13.157 -2.6245  0.3522 -0.9079
18813TIP3   OH277853   6.364   4.530  11.256 -0.5581  0.0278 -0.2349
18813TIP3    H177854   6.284   4.495  11.216  0.4209 -2.6220 -0.0441
18813TIP3    H277855   6.339   4.548  11.347 -0.9345 -0.8577 -0.1539
18814TIP3   OH277856   5.588   3.108   0.266  0.1051 -0.3831  0.5036
18814TIP3    H177857   5.577   3.013   0.263  0.1923 -0.3744 -0.4137
18814TIP3    H277858   5.522   3.138   0.328 -2.0430 -0.7677 -1.4693
18815TIP3   OH277859   6.053   0.060   5.787 -0.0110 -0.4382  0.3052
18815TIP3    H177860   5.966   0.036   5.756 -0.0549 -0.2384  0.2722
18815TIP3    H277861   6.113   0.013   5.728 -0.0855 -1.3376  0.9166
18816TIP3   OH277862   2.739   1.943   3.728  0.1487  0.0356 -0.4715
18816TIP3    H177863   2.694   1.921   3.647 -3.8369 -0.6089  1.6472
18816TIP3    H277864   2.761   1.858   3.767 -1.2267  0.1835  0.6898
18817TIP3   OH277865   1.150   4.767  11.512  0.1504 -0.0700  0.1782
18817TIP3    H177866   1.064   4.762  11.470  0.5249  0.1096 -0.6293
18817TIP3    H277867   1.166   4.861  11.521 -0.5884 -0.0920  2.1499
18818TIP3   OH277868   4.692   5.523  14.823 -0.9603 -0.0146 -0.0083
18818TIP3    H177869   4.628   5.592  14.809 -1.3711 -0.4119 -0.1047
18818TIP3    H277870   4.748   5.555  14.894 -1.2568  0.3327  0.0673
18819TIP3   OH277871   3.754   6.351  17.122 -0.3529  0.0148  0.4121
18819TIP3    H177872   3.822   6.378  17.060  0.5918 -1.7228  0.6128
18819TIP3    H277873   3.730   6.432  17.168 -0.5919  1.2121 -1.7134
18820TIP3   OH277874   1.753   2.298  13.270  0.3313  0.4257  0.8365
18820TIP3    H177875   1.773   2.359  13.341  0.5379  2.2991 -0.7446
18820TIP3    H277876   1.657   2.296  13.267  0.3039 -0.3497  1.6854
18821TIP3   OH277877   1.579   1.873   4.120  0.3127 -0.1981 -0.7623
18821TIP3    H177878   1.563   1.961   4.084  1.2945  0.3240  0.0535
18821TIP3    H277879   1.674   1.868   4.129  0.1522 -0.7168  0.7652
18822TIP3   OH277880   2.910   3.739   1.229 -0.0443  1.0989  0.0979
18822TIP3    H177881   2.911   3.652   1.269  1.0725  1.3513  0.6743
18822TIP3    H277882   2.835   3.738   1.170 -0.4060 -0.0450  0.5557
18823TIP3   OH277883   0.304   3.601   4.688 -0.2987  0.6288  0.4541
18823TIP3    H177884   0.274   3.514   4.661 -1.8819  0.8942  1.2609
18823TIP3    H277885   0.386   3.583   4.735  0.0216 -0.2940 -0.4210
18824TIP3   OH277886   3.362   1.337   5.819  0.1601  0.3194 -0.0969
18824TIP3    H177887   3.386   1.360   5.730 -0.0705 -0.1811 -0.2901
18824TIP3    H277888   3.292   1.398   5.842 -1.0607 -0.7474 -0.9211
18825TIP3   OH277889   4.089   2.438   0.176  0.4610 -0.3319 -0.4301
18825TIP3    H177890   4.128   2.460   0.261  1.2579 -0.7628 -0.6682
18825TIP3    H277891   4.007   2.393   0.198 -1.1925  2.6852  0.0586
18826TIP3   OH277892   0.206   3.436  15.240  0.2113  0.0162  0.1104
18826TIP3    H177893   0.121   3.405  15.269  0.5050 -0.1484  0.8255
18826TIP3    H277894   0.201   3.436  15.144 -0.9363  0.9831  0.1546
18827TIP3   OH277895   5.733   2.769   1.479 -0.2203 -0.4771  0.3514
18827TIP3    H177896   5.813   2.729   1.447  0.0143  0.0488  0.2678
18827TIP3    H277897   5.758   2.859   1.501 -0.6869 -0.4337  0.7309
18828TIP3   OH277898   4.318   0.152  13.043  0.1224  0.0531  0.3913
18828TIP3    H177899   4.256   0.188  13.106 -0.7602  0.9720 -0.9407
18828TIP3    H277900   4.380   0.223  13.027 -2.0586  1.4782 -2.8185
18829TIP3   OH277901   0.201   6.197  14.092  0.6005  0.4209 -0.0990
18829TIP3    H177902   0.190   6.146  14.011  2.0416  1.4142 -0.9725
18829TIP3    H277903   0.239   6.136  14.155 -0.3339 -0.3091 -0.2200
18830TIP3   OH277904   3.961   4.549   1.596  0.2563 -0.1244  0.3416
18830TIP3    H177905   3.899   4.614   1.563  0.1650 -0.5144 -0.2605
18830TIP3    H277906   3.937   4.537   1.688 -0.8338 -0.5873  0.0068
18831TIP3   OH277907   3.568   0.832  16.355  0.1395 -0.1157 -0.6723
18831TIP3    H177908   3.477   0.843  16.381  0.1600  0.0418 -0.6661
18831TIP3    H277909   3.577   0.886  16.276  0.4845  0.6733 -0.1118
18832TIP3   OH277910   3.279   2.754   5.061  0.3485 -0.1519  0.5075
18832TIP3    H177911   3.275   2.774   4.967 -0.6106  1.0899  0.7858
18832TIP3    H277912   3.194   2.783   5.095  0.5089 -0.9944  1.6954
18833TIP3   OH277913   4.565   6.769  15.711 -0.0038  0.0203 -0.0126
18833TIP3    H177914   4.560   6.861  15.685 -0.0017 -0.2619 -1.0699
18833TIP3    H277915   4.624   6.730  15.647  1.0346 -0.4652  1.1914
18834TIP3   OH277916   0.577   5.281  13.500 -1.1116  0.4978  0.0943
18834TIP3    H177917   0.492   5.239  13.490 -1.1872  1.1209 -2.6648
18834TIP3    H277918   0.564   5.347  13.568 -2.0734 -1.1024  1.5484
18835TIP3   OH277919   5.480   4.014  13.517  0.0420 -0.0484 -0.1245
18835TIP3    H177920   5.386   4.030  13.516  0.2418  1.3391  0.5407
18835TIP3    H277921   5.491   3.942  13.579 -0.5660 -0.0038  0.0462
18836TIP3   OH277922   3.298   3.559  12.648 -0.6347  0.1271  0.4276
18836TIP3    H177923   3.333   3.634  12.600  1.2112  0.2976  1.9077
18836TIP3    H277924   3.223   3.594  12.696  0.2484  1.0993  1.1581
18837TIP3   OH277925   0.559   1.265   2.443 -0.5508  0.2623 -0.0056
18837TIP3    H177926   0.586   1.356   2.445  0.7003 -0.1056  1.1656
18837TIP3    H277927   0.534   1.250   2.352  3.6992  0.5594 -1.4448
18838TIP3   OH277928   2.061   1.987   1.305  0.2834 -0.1198 -0.7140
18838TIP3    H177929   2.048   2.042   1.383  0.0149 -0.3945 -0.5647
18838TIP3    H277930   2.152   1.957   1.313 -0.8250 -3.5377  1.7472
18839TIP3   OH277931   6.666   4.255   5.892 -0.0909  0.3248  0.4089
18839TIP3    H177932   6.699   4.182   5.840 -0.5614  0.4303 -0.0504
18839TIP3    H277933   6.729   4.326   5.876 -1.2712  1.0093 -1.6773
18840TIP3   OH277934   5.774   4.393  14.057 -0.5150  0.1933  0.4471
18840TIP3    H177935   5.690   4.436  14.074 -0.5222 -0.2200  1.5445
18840TIP3    H277936   5.825   4.407  14.137 -0.0708 -0.7689  0.3507
18841TIP3   OH277937   1.686   5.523   0.855 -0.1398 -0.4848 -0.8478
18841TIP3    H177938   1.631   5.591   0.895  0.3205 -0.8830  0.5032
18841TIP3    H277939   1.760   5.571   0.819  0.2144 -0.2482  0.1563
18842TIP3   OH277940   6.758   0.861   5.819 -0.8960  0.3444  0.7774
18842TIP3    H177941   6.794   0.909   5.744  0.5293 -0.0621  1.1777
18842TIP3    H277942   6.712   0.927   5.870  0.6618  1.2254  1.0863
18843TIP3   OH277943   4.924   2.494  15.738 -0.1765 -0.1579  0.1317
18843TIP3    H177944   4.965   2.523  15.820  1.2141 -0.1767 -0.5196
18843TIP3    H277945   4.946   2.563  15.675 -0.3562 -0.6379 -0.4616
18844TIP3   OH277946   1.687   6.002  12.001 -0.1986 -0.2838  0.2262
18844TIP3    H177947   1.732   5.943  12.061 -0.6939  0.7411  1.6623
18844TIP3    H277948   1.610   6.032  12.049 -1.5592 -0.7162 -1.5671
18845TIP3   OH277949   5.326   3.914   3.943 -0.0006  0.2253  0.1202
18845TIP3    H177950   5.251   3.856   3.956 -0.3479  0.7389  0.4298
18845TIP3    H277951   5.306   3.992   3.994  1.3544 -0.1541  1.2767
18846TIP3   OH277952   3.980   2.339  15.549 -0.0246 -0.1730 -0.4012
18846TIP3    H177953   4.054   2.305  15.600  0.5340 -0.5855 -1.4568
18846TIP3    H277954   3.939   2.262  15.511 -1.5982 -0.0259  0.9298
18847TIP3   OH277955   5.915   6.346   0.493 -0.1401  0.3984  0.3441
18847TIP3    H177956   5.971   6.423   0.481  1.9802 -0.9820  0.8315
18847TIP3    H277957   5.969   6.273   0.464 -2.0977 -0.9383 -0.0926
18848TIP3   OH277958   6.508   2.852  12.803  0.5914  0.0753  0.0085
18848TIP3    H177959   6.433   2.911  12.807 -1.6284 -2.6129  0.7703
18848TIP3    H277960   6.531   2.836  12.895 -0.7836 -2.4019  0.0171
18849TIP3   OH277961   3.542   0.448   3.971  0.6265 -0.4908 -0.2468
18849TIP3    H177962   3.497   0.505   3.908  2.4711  1.8681  0.4090
18849TIP3    H277963   3.598   0.392   3.918  0.0322 -0.5449 -0.8280
18850TIP3   OH277964   4.431   4.813  14.207  0.6524  0.7451  0.6247
18850TIP3    H177965   4.429   4.719  14.226  0.5147  0.2248 -1.6383
18850TIP3    H277966   4.355   4.849  14.252 -0.2243 -0.5326  0.2165
18851TIP3   OH277967   5.897   6.620   0.330 -0.4887 -0.4205  0.9179
18851TIP3    H177968   5.986   6.586   0.343  0.2024  0.8850 -0.0818
18851TIP3    H277969   5.859   6.563   0.264  0.3974  0.2704 -0.2241
18852TIP3   OH277970   1.391   2.161   4.653  0.4756 -0.0652  0.5253
18852TIP3    H177971   1.369   2.254   4.654 -0.9879 -0.3236 -1.3009
18852TIP3    H277972   1.373   2.131   4.742 -0.4175  1.1128  0.7667
18853TIP3   OH277973   1.945   2.824  16.767 -0.0870 -0.1876  0.2078
18853TIP3    H177974   1.894   2.888  16.718 -1.3524 -0.6786  0.8326
18853TIP3    H277975   2.020   2.805  16.711 -0.6379  0.4871 -0.7853
18854TIP3   OH277976   4.603   0.521  11.635 -0.1543  0.3300  0.1019
18854TIP3    H177977   4.576   0.582  11.704  0.2577  0.4801  0.1330
18854TIP3    H277978   4.672   0.567  11.588  0.0783 -0.0671  0.0489
18855TIP3   OH277979   5.616   4.268   0.443  0.5753 -0.1812  0.0627
18855TIP3    H177980   5.579   4.352   0.470 -0.6062 -0.4632 -0.6361
18855TIP3    H277981   5.555   4.203   0.476  1.1447 -0.7374  0.0347
18856TIP3   OH277982   4.584   1.453  16.891  0.5725 -0.4075 -0.0338
18856TIP3    H177983   4.610   1.542  16.869 -1.4217  0.3148  0.3431
18856TIP3    H277984   4.611   1.442  16.982 -0.6413  0.4570  0.4624
18857TIP3   OH277985   3.157   1.236   1.227  0.4895 -0.8037  0.2126
18857TIP3    H177986   3.105   1.311   1.255 -0.3383 -1.1660 -0.3096
18857TIP3    H277987   3.245   1.254   1.259  0.1640  0.0905  0.6292
18858TIP3   OH277988   3.184   2.210   5.681 -0.1989 -0.0594 -0.2014
18858TIP3    H177989   3.197   2.194   5.774  1.1867 -0.6596 -0.4611
18858TIP3    H277990   3.244   2.282   5.661  1.1297 -1.3060 -0.9959
18859TIP3   OH277991   3.727   1.329   2.561 -0.2959 -0.3174 -0.1485
18859TIP3    H177992   3.646   1.380   2.553 -0.7431 -0.4049  2.7844
18859TIP3    H277993   3.787   1.369   2.498 -2.0650  0.8516 -1.1817
18860TIP3   OH277994   0.088   1.857  11.953 -0.0263 -0.6286 -0.5648
18860TIP3    H177995   0.020   1.874  11.888  0.8643 -0.1125 -1.3689
18860TIP3    H277996   0.105   1.942  11.993 -0.9930 -1.0352  0.8067
18861TIP3   OH277997   3.273   4.090   6.466 -0.1680 -0.0534 -0.4561
18861TIP3    H177998   3.313   4.139   6.538  1.1173 -0.2127 -1.0301
18861TIP3    H277999   3.323   4.008   6.462 -1.8168 -1.1217  0.0224
18862TIP3   OH278000   0.949   0.548  14.489  0.4700 -0.0402 -0.2221
18862TIP3    H178001   0.965   0.634  14.527 -0.4258 -0.3846  0.9976
18862TIP3    H278002   0.879   0.564  14.425 -0.6601 -0.0544  0.9673
18863TIP3   OH278003   5.451   5.264   6.012 -0.6661  0.5316 -0.3877
18863TIP3    H178004   5.504   5.184   6.002 -0.5363  0.9492 -4.3614
18863TIP3    H278005   5.362   5.236   5.992 -1.0810  0.9390  0.7952
18864TIP3   OH278006   4.280   0.502   2.633  0.0012  0.2753 -0.3248
18864TIP3    H178007   4.366   0.468   2.657 -0.1698 -0.1153 -0.2600
18864TIP3    H278008   4.299   0.573   2.572  0.3023 -1.0119 -1.7863
18865TIP3   OH278009   1.208   5.688  16.335  0.1939 -0.3246 -0.0822
18865TIP3    H178010   1.222   5.735  16.417 -0.1478  0.1148 -0.2697
18865TIP3    H278011   1.284   5.711  16.282  0.0802 -0.0642 -0.1346
18866TIP3   OH278012   2.022   5.775   3.422  0.1350 -0.3327 -0.0536
18866TIP3    H178013   2.060   5.750   3.506 -0.3503 -0.7686  0.0442
18866TIP3    H278014   2.028   5.695   3.369  1.3747  0.2247 -0.7870
18867TIP3   OH278015   1.403   5.243   1.003  0.1524  1.1437 -0.1604
18867TIP3    H178016   1.409   5.293   0.921  3.0162  0.5262 -0.4431
18867TIP3    H278017   1.469   5.174   0.993 -1.1568 -0.4506  1.7062
18868TIP3   OH278018   4.248   5.878  15.223 -0.0854  0.7703  0.0774
18868TIP3    H178019   4.226   5.808  15.162  1.6141 -0.5790  0.9240
18868TIP3    H278020   4.231   5.958  15.174 -4.0899 -0.0417 -0.2789
18869TIP3   OH278021   2.373   1.408  15.548 -0.3288  0.1701  0.1099
18869TIP3    H178022   2.335   1.340  15.604 -1.7805 -0.6587 -1.7495
18869TIP3    H278023   2.436   1.360  15.493  0.2823  0.7586  0.2888
18870TIP3   OH278024   3.658   0.402  13.946 -0.3137  0.1345 -0.4098
18870TIP3    H178025   3.747   0.398  13.910 -0.7850 -2.0103 -1.4940
18870TIP3    H278026   3.654   0.329  14.008 -1.1383  0.5885  0.0836
18871TIP3   OH278027   2.495   3.751   2.351 -0.1941  0.5819  0.1297
18871TIP3    H178028   2.400   3.759   2.353 -0.1582  1.0924 -0.0546
18871TIP3    H278029   2.511   3.658   2.338 -0.6682  0.4926  0.1741
18872TIP3   OH278030   6.721   5.960   4.441 -0.2581 -0.0217 -0.1299
18872TIP3    H178031   6.642   5.992   4.483 -1.0137 -0.8146 -0.9139
18872TIP3    H278032   6.694   5.880   4.397  1.1785 -0.7650  0.2903
18873TIP3   OH278033   5.666   3.245  11.480 -0.3160 -0.3029 -0.0231
18873TIP3    H178034   5.740   3.238  11.540 -0.3693 -2.8387 -0.1209
18873TIP3    H278035   5.703   3.227  11.394 -0.6643  0.7535 -0.3996
18874TIP3   OH278036   5.432   4.641  15.769  0.2364  0.4258  0.0211
18874TIP3    H178037   5.370   4.590  15.717 -1.8302  0.2729  2.4704
18874TIP3    H278038   5.475   4.576  15.825  0.6162  0.8761  0.2554
18875TIP3   OH278039   4.499   0.776  11.765  0.3204  0.8036  0.3057
18875TIP3    H178040   4.499   0.700  11.823  3.1736 -0.0047 -0.5965
18875TIP3    H278041   4.484   0.851  11.823  0.1957 -0.2138  1.6211
18876TIP3   OH278042   1.218   2.752  12.774 -0.7416  0.2013 -0.0212
18876TIP3    H178043   1.245   2.696  12.701  2.4260 -1.2662  2.0848
18876TIP3    H278044   1.123   2.740  12.778 -0.6530 -2.0392 -2.0031
18877TIP3   OH278045   1.283   0.713  16.938 -0.1468  0.0623  0.2715
18877TIP3    H178046   1.364   0.741  16.982  0.0653 -0.4875  0.2328
18877TIP3    H278047   1.312   0.650  16.872 -0.3305  1.6006 -1.3723
18878TIP3   OH278048   4.335   6.311  17.170 -0.0526  0.2201  0.1708
18878TIP3    H178049   4.248   6.341  17.143 -0.0911  1.3719  1.4698
18878TIP3    H278050   4.395   6.365  17.120 -0.1190  1.4179  1.3382
18879TIP3   OH278051   0.829   5.640   5.220 -0.1140 -0.1951 -0.2205
18879TIP3    H178052   0.901   5.582   5.197  0.3187 -0.7467  2.2518
18879TIP3    H278053   0.750   5.590   5.199  0.2334 -0.7316 -0.2718
18880TIP3   OH278054   6.581   4.809  11.464  0.5989 -0.3534  0.4309
18880TIP3    H178055   6.494   4.825  11.501  0.6564 -0.2052  0.4987
18880TIP3    H278056   6.577   4.717  11.436 -0.1356  0.0882 -1.0638
18881TIP3   OH278057   1.309   0.870   2.342 -0.5076  0.2850 -0.2190
18881TIP3    H178058   1.229   0.842   2.298  0.0284  0.1926 -1.1692
18881TIP3    H278059   1.349   0.789   2.373 -1.2322  0.4045  1.0880
18882TIP3   OH278060   0.502   6.280   5.790  0.6340 -0.9168 -0.4234
18882TIP3    H178061   0.454   6.250   5.713  1.0974  0.5157 -1.3116
18882TIP3    H278062   0.585   6.232   5.787 -0.0792 -2.2420  0.2490
18883TIP3   OH278063   0.331   3.159  14.092  0.2677  0.0513  0.5768
18883TIP3    H178064   0.397   3.195  14.033 -0.3691  0.1678 -0.0758
18883TIP3    H278065   0.381   3.122  14.165  1.0930 -0.4810 -0.2430
18884TIP3   OH278066   6.575   2.420   4.927 -0.5301 -0.6266 -0.3100
18884TIP3    H178067   6.544   2.510   4.933 -1.2685 -0.9438  0.7958
18884TIP3    H278068   6.595   2.395   5.017 -2.1127 -2.1793 -0.3440
18885TIP3   OH278069   6.097   4.714  11.480  0.3188 -0.0253  0.0632
18885TIP3    H178070   6.037   4.640  11.478  0.6262 -0.3268  1.2820
18885TIP3    H278071   6.044   4.789  11.453  0.1068 -0.7213 -1.5907
18886TIP3   OH278072   3.185   1.518  14.751  0.1550  0.4055  0.5847
18886TIP3    H178073   3.174   1.550  14.661 -2.0462 -0.1722  0.5870
18886TIP3    H278074   3.202   1.596  14.803 -1.9010  1.2453  0.1191
18887TIP3   OH278075   3.194   5.861   4.843 -0.3408 -0.1232 -0.1586
18887TIP3    H178076   3.134   5.788   4.828 -0.5495  0.1236 -0.5591
18887TIP3    H278077   3.139   5.939   4.833 -0.2465  0.0771  0.8414
18888TIP3   OH278078   0.190   2.731  10.584  0.6358  0.2224  0.0115
18888TIP3    H178079   0.132   2.788  10.635  0.6125  1.0477 -0.9000
18888TIP3    H278080   0.138   2.653  10.566  1.3054 -1.0078  2.9274
18889TIP3   OH278081   5.372   6.407  13.079  0.1502  0.0308 -0.7169
18889TIP3    H178082   5.425   6.469  13.029  0.5395 -0.1926 -0.5812
18889TIP3    H278083   5.433   6.340  13.107  0.1397  0.6465  0.8871
18890TIP3   OH278084   4.529   4.231   4.576  0.3822  0.0381  0.2390
18890TIP3    H178085   4.497   4.153   4.531 -1.7822 -0.1016  1.8603
18890TIP3    H278086   4.481   4.233   4.659  1.9604  1.9313  1.2105
18891TIP3   OH278087   2.490   5.930  11.987  0.1100 -1.1136 -0.4921
18891TIP3    H178088   2.413   5.906  12.040 -0.7357  1.2508 -0.5117
18891TIP3    H278089   2.473   5.890  11.902 -2.0151  0.6694 -1.0156
18892TIP3   OH278090   4.238   0.623   1.110 -0.5404  1.1308  0.2514
18892TIP3    H178091   4.193   0.564   1.050  1.1348  0.3487 -0.2906
18892TIP3    H278092   4.261   0.567   1.185  2.9377  0.4126 -1.1701
18893TIP3   OH278093   2.533   4.046  13.447  0.2712 -0.0775  0.6980
18893TIP3    H178094   2.500   4.117  13.391  0.8446  0.8209  1.4832
18893TIP3    H278095   2.457   4.020  13.499 -0.3174 -1.0422 -0.5948
18894TIP3   OH278096   5.376   3.174  15.428 -0.3743 -0.4732 -0.2840
18894TIP3    H178097   5.330   3.243  15.475  1.2476  0.7151 -0.3468
18894TIP3    H278098   5.340   3.176  15.340  1.6645  2.4453 -1.2119
18895TIP3   OH278099   4.912   5.801   0.286 -0.5159  0.3770  0.2012
18895TIP3    H178100   4.911   5.726   0.225  3.0963  1.0610 -0.9719
18895TIP3    H278101   4.920   5.761   0.372 -1.1336 -0.5989 -0.1679
18896TIP3   OH278102   3.383   1.421  13.527 -0.5903  0.4227  0.3918
18896TIP3    H178103   3.479   1.425  13.529 -0.6322  2.1538  2.2138
18896TIP3    H278104   3.360   1.362  13.598 -0.9122 -4.0561 -3.0385
18897TIP3   OH278105   6.325   6.371  14.261  0.5622 -0.3123  0.6717
18897TIP3    H178106   6.365   6.292  14.225 -0.2143 -0.7511  0.7659
18897TIP3    H278107   6.277   6.341  14.338 -2.0224 -0.2426 -0.7992
18898TIP3   OH278108   2.739   4.045  14.358  0.1944 -0.2468  0.1962
18898TIP3    H178109   2.717   4.106  14.289  0.1226 -1.4632 -0.9035
18898TIP3    H278110   2.795   3.979  14.315 -0.5503 -1.4989  1.0653
18899TIP3   OH278111   2.780   1.405   2.659  0.1019 -0.2007 -0.2460
18899TIP3    H178112   2.827   1.337   2.708  0.8604  1.0089  0.7859
18899TIP3    H278113   2.795   1.383   2.567  1.9085 -0.4162  0.0566
18900TIP3   OH278114   5.588   5.719   0.990 -0.4221  0.6927  0.3989
18900TIP3    H178115   5.542   5.802   0.998  0.0230  0.9709  0.1398
18900TIP3    H278116   5.649   5.732   0.917 -0.8365 -0.0882 -0.1048
18901TIP3   OH278117   6.424   4.670  16.423 -0.4668  0.4713  0.0103
18901TIP3    H178118   6.395   4.740  16.365 -3.9109 -0.2880  0.5949
18901TIP3    H278119   6.510   4.644  16.388 -0.8192  2.3496 -2.5467
18902TIP3   OH278120   0.415   2.966  11.369 -0.1753  0.1221  0.4873
18902TIP3    H178121   0.427   3.060  11.355  1.3408  0.0275  0.9936
18902TIP3    H278122   0.368   2.960  11.452  1.9967  0.4189  1.8111
18903TIP3   OH278123   4.906   3.577  11.862  0.6948  0.4839  0.6197
18903TIP3    H178124   4.851   3.562  11.939  0.9088  1.9859  1.0929
18903TIP3    H278125   4.889   3.668  11.837  0.7375  0.0674 -1.0302
18904TIP3   OH278126   1.564   4.835   5.192  0.1947 -0.2658  0.3992
18904TIP3    H178127   1.477   4.875   5.196  0.5085  0.6455 -1.1469
18904TIP3    H278128   1.569   4.795   5.105  1.2019 -0.5939  0.5893
18905TIP3   OH278129   3.712   0.098  11.489  0.1483 -0.6312 -0.2160
18905TIP3    H178130   3.710   0.103  11.393 -0.6490  0.1586 -0.1805
18905TIP3    H278131   3.781   0.035  11.509  0.9052 -0.1793 -1.2934
18906TIP3   OH278132   1.709   2.749   2.086 -0.0094 -0.4130  0.8648
18906TIP3    H178133   1.800   2.767   2.063 -0.1630 -2.0362 -1.3096
18906TIP3    H278134   1.713   2.718   2.177  1.4589  0.4488  1.1175
18907TIP3   OH278135   4.933   2.150   2.848  0.3658  0.0470 -0.4360
18907TIP3    H178136   4.887   2.103   2.778  1.5715  0.1612 -1.3364
18907TIP3    H278137   4.928   2.091   2.923 -1.1386  0.0145 -0.5341
18908TIP3   OH278138   5.298   0.939   4.485 -0.1272 -0.4419 -0.2584
18908TIP3    H178139   5.332   1.001   4.421 -0.6439 -0.2088 -0.3163
18908TIP3    H278140   5.220   0.902   4.443  0.4179 -1.4659 -0.4048
18909TIP3   OH278141   4.664   3.092   5.889  0.3000  0.0864  0.3443
18909TIP3    H178142   4.678   3.025   5.957  2.1683 -0.5664 -0.6099
18909TIP3    H278143   4.716   3.166   5.917  2.3200 -0.7211 -1.0230
18910TIP3   OH278144   5.033   0.420   1.289  0.1431 -0.4629  0.6283
18910TIP3    H178145   5.121   0.402   1.254 -0.0995 -0.1774 -0.1712
18910TIP3    H278146   4.980   0.347   1.259 -0.0457 -0.2705  0.4902
18911TIP3   OH278147   4.256   1.306  12.526  0.2803  0.1873 -0.0414
18911TIP3    H178148   4.213   1.371  12.471  0.9985  0.3680 -0.4060
18911TIP3    H278149   4.185   1.252  12.560 -0.4199  1.7162  1.0042
18912TIP3   OH278150   6.414   1.647   2.751  0.4123  0.0583  0.2819
18912TIP3    H178151   6.463   1.664   2.831 -1.9802 -0.4352  1.9561
18912TIP3    H278152   6.385   1.733   2.721  1.3685  0.2498 -0.1320
18913TIP3   OH278153   1.242   5.198   4.036  0.1614 -0.0241  0.3258
18913TIP3    H178154   1.318   5.256   4.045 -0.0612  0.8084 -2.3633
18913TIP3    H278155   1.278   5.114   4.008  0.1440  0.2650 -0.5891
18914TIP3   OH278156   4.542   2.707  16.161  0.3372 -0.3960  0.3066
18914TIP3    H178157   4.613   2.662  16.116 -1.2499 -1.7568 -0.9359
18914TIP3    H278158   4.504   2.765  16.095  0.9403  1.1941  1.2770
18915TIP3   OH278159   5.347   0.804   4.138  0.8482 -0.5568 -0.4164
18915TIP3    H178160   5.278   0.739   4.128 -0.4952  0.5885  0.9918
18915TIP3    H278161   5.426   0.753   4.155 -0.3937 -1.8204  1.9923
18916TIP3   OH278162   3.330   1.782   3.918  0.3245 -0.0263 -0.2357
18916TIP3    H178163   3.239   1.754   3.910  0.6007 -0.6015 -1.8998
18916TIP3    H278164   3.355   1.805   3.828  2.0231 -0.5975  0.0528
18917TIP3   OH278165   4.628   3.487  11.592  0.4044  0.1344  0.3200
18917TIP3    H178166   4.677   3.417  11.635 -1.0596 -0.2837  1.4091
18917TIP3    H278167   4.659   3.567  11.632  0.0860 -0.1403  1.1376
18918TIP3   OH278168   6.242   1.177  16.009 -0.3768  0.1231  0.5020
18918TIP3    H178169   6.203   1.216  16.088 -0.7785 -0.8444  0.7966
18918TIP3    H278170   6.204   1.090  16.004 -1.4796  0.6522 -1.5959
18919TIP3   OH278171   4.900   6.726   1.963  0.3564  0.0844 -0.2601
18919TIP3    H178172   4.922   6.762   2.049  0.1214  0.8057 -0.4941
18919TIP3    H278173   4.819   6.771   1.938 -1.1269 -2.0920  0.3298
18920TIP3   OH278174   2.239   6.360   3.352 -0.1049  0.3040  0.0897
18920TIP3    H178175   2.273   6.377   3.264  0.2968  0.1237  0.2046
18920TIP3    H278176   2.156   6.314   3.338  2.3527 -4.7204 -0.3162
18921TIP3   OH278177   0.412   3.142   5.281 -0.0467  0.1532  0.2154
18921TIP3    H178178   0.408   3.103   5.368 -1.0570 -2.6183 -0.9506
18921TIP3    H278179   0.322   3.135   5.248  0.8577 -1.7020 -2.1287
18922TIP3   OH278180   0.837   1.657   2.368 -0.3306  0.0117  0.2690
18922TIP3    H178181   0.913   1.618   2.324  1.0009  0.9470  1.6394
18922TIP3    H278182   0.803   1.587   2.424  0.2269 -0.0722  0.5066
18923TIP3   OH278183   1.100   0.111  13.099  0.2675  0.4612  0.5213
18923TIP3    H178184   1.047   0.054  13.043  1.0572  1.3752 -1.2248
18923TIP3    H278185   1.041   0.183  13.123  0.0761  0.3328  0.4441
18924TIP3   OH278186   2.836   5.465  12.021  0.8221 -0.1389  0.1494
18924TIP3    H178187   2.838   5.552  11.980 -0.1404 -0.4152 -0.5130
18924TIP3    H278188   2.848   5.404  11.948 -2.1348 -0.6955 -0.0026
18925TIP3   OH278189   5.072   2.355  11.003 -0.1647  0.4914  0.0521
18925TIP3    H178190   5.069   2.397  11.089  1.0572 -0.3996  0.5705
18925TIP3    H278191   5.060   2.426  10.941  0.5747  1.4198  0.9314
18926TIP3   OH278192   1.170   3.477  16.750  0.2556  0.0811 -0.5104
18926TIP3    H178193   1.086   3.430  16.754  0.9456 -1.1635  0.0557
18926TIP3    H278194   1.233   3.414  16.785  1.6278  0.5472 -2.0422
18927TIP3   OH278195   4.787   0.517   4.302 -0.7225 -0.2469  0.4678
18927TIP3    H178196   4.860   0.551   4.354 -0.8682 -0.0107  0.5192
18927TIP3    H278197   4.717   0.502   4.365 -1.1651  0.7736  0.2438
18928TIP3   OH278198   2.068   2.906   2.274 -0.0791 -0.4630  0.2972
18928TIP3    H178199   2.042   2.999   2.275  1.0114 -0.1429  0.8578
18928TIP3    H278200   2.012   2.866   2.208 -0.1369  0.7314 -0.4024
18929TIP3   OH278201   1.692   2.243  15.465  0.6387 -0.0350  0.3015
18929TIP3    H178202   1.710   2.235  15.559 -1.0595  0.7918  0.7321
18929TIP3    H278203   1.748   2.315  15.437 -0.1508  0.9163  1.0878
18930TIP3   OH278204   2.938   3.677   5.514  0.0671 -0.3683  0.2509
18930TIP3    H178205   2.951   3.647   5.605 -0.5428  1.7413  1.0837
18930TIP3    H278206   2.997   3.752   5.505  0.7483 -1.0567 -1.4141
18931TIP3   OH278207   0.312   2.570  12.824 -0.0924  0.2021 -0.1868
18931TIP3    H178208   0.397   2.598  12.789 -0.6894 -0.4786 -2.3273
18931TIP3    H278209   0.331   2.538  12.912  1.9442 -0.2960 -0.7622
18932TIP3   OH278210   3.870   2.190   1.972  0.0294 -0.4020 -0.6726
18932TIP3    H178211   3.900   2.113   1.924 -0.8642 -0.3129 -1.3927
18932TIP3    H278212   3.934   2.199   2.043 -0.6314 -2.6542  0.2996
18933TIP3   OH278213   2.070   0.037  12.171 -0.1773  0.1695 -0.4276
18933TIP3    H178214   2.158   0.001  12.178  0.0617  0.7081 -0.6487
18933TIP3    H278215   2.083   0.129  12.148 -0.8042 -0.3695 -3.3029
18934TIP3   OH278216   0.073   1.866  16.812 -0.1005  0.0023 -0.5925
18934TIP3    H178217  -0.000   1.817  16.849  0.6462 -1.4791 -1.0070
18934TIP3    H278218   0.032   1.933  16.757 -1.1501 -0.3004 -0.2014
18935TIP3   OH278219   6.548   1.740  13.449 -0.6940 -0.0212  0.4089
18935TIP3    H178220   6.614   1.800  13.417 -1.8139  0.9241 -0.2038
18935TIP3    H278221   6.544   1.670  13.384 -0.7568  0.2679  0.0993
18936TIP3   OH278222   0.557   2.694  12.851 -0.3304  0.1738 -0.0614
18936TIP3    H178223   0.554   2.790  12.860 -0.9769  0.2110 -0.6514
18936TIP3    H278224   0.588   2.664  12.936  1.9831  1.0290 -0.5126
18937TIP3   OH278225   4.147   0.637   0.432 -0.5310 -0.6749 -0.0987
18937TIP3    H178226   4.215   0.683   0.382 -1.0606 -1.1921 -1.3441
18937TIP3    H278227   4.077   0.622   0.368 -1.8935 -0.0142  1.1948
18938TIP3   OH278228   2.500   3.755  15.807 -0.0180 -0.1292  0.2475
18938TIP3    H178229   2.473   3.663  15.810  0.9566 -0.4252  0.3613
18938TIP3    H278230   2.521   3.776  15.898 -0.9348  0.4317  0.3405
18939TIP3   OH278231   2.749   6.281  13.101  0.5910  0.5815 -0.1252
18939TIP3    H178232   2.715   6.227  13.172  0.6125  0.3364 -0.3018
18939TIP3    H278233   2.705   6.366  13.113  2.4339  1.3813  1.6644
18940TIP3   OH278234   6.258   4.989   0.639  1.4327  0.2726 -0.1009
18940TIP3    H178235   6.240   4.988   0.545  0.5967  3.0845 -0.0843
18940TIP3    H278236   6.189   5.044   0.676  1.5165 -1.0611  2.2468
18941TIP3   OH278237   2.639   1.915  13.906 -0.0573  0.0436  0.0738
18941TIP3    H178238   2.561   1.867  13.933 -1.3107  2.1566  0.4546
18941TIP3    H278239   2.626   1.932  13.813  0.1059  0.1467  0.0696
18942TIP3   OH278240   1.457   5.120   6.127  0.0733 -0.1595  0.2873
18942TIP3    H178241   1.548   5.141   6.106  0.2464 -0.9681  0.1841
18942TIP3    H278242   1.430   5.060   6.057 -0.7007  0.4494  0.0467
18943TIP3   OH278243   5.963   4.159   5.605  0.0321 -0.0370  0.2604
18943TIP3    H178244   5.910   4.105   5.546  2.3464 -2.7266  0.4432
18943TIP3    H278245   6.040   4.182   5.553  1.9613 -2.1861  1.9734
18944TIP3   OH278246   3.273   6.794   3.155 -0.2845  0.0856 -0.0916
18944TIP3    H178247   3.248   6.715   3.202 -0.0969  1.4235  2.3851
18944TIP3    H278248   3.191   6.826   3.117 -0.7876 -0.0891  0.8304
18945TIP3   OH278249   6.368   0.002  12.153 -0.3186 -0.0019  0.2245
18945TIP3    H178250   6.302  -0.040  12.098 -0.8305  1.5761 -0.4208
18945TIP3    H278251   6.378  -0.057  12.228  0.5880 -2.3717 -1.6181
18946TIP3   OH278252   0.787   6.232   4.769  0.1040 -0.0820  0.1280
18946TIP3    H178253   0.816   6.148   4.733  0.2396  0.2659 -0.6105
18946TIP3    H278254   0.694   6.220   4.788  0.4945 -0.9270  1.6585
18947TIP3   OH278255   5.765   5.306   4.420  1.1386 -0.2970 -0.0024
18947TIP3    H178256   5.763   5.215   4.448 -0.8523  0.1436  1.5260
18947TIP3    H278257   5.677   5.323   4.387  0.7591  1.6138  1.7768
18948TIP3   OH278258   3.098   2.722   0.599  0.2229 -0.3494  0.8857
18948TIP3    H178259   3.111   2.661   0.526  3.4297  0.0499  0.9791
18948TIP3    H278260   3.071   2.666   0.672 -1.5601 -0.9503 -0.1694
18949TIP3   OH278261   1.745   6.474   4.611  0.2699 -0.4296 -0.3992
18949TIP3    H178262   1.801   6.510   4.542  0.1824  0.8069  0.1551
18949TIP3    H278263   1.660   6.461   4.569  0.3984 -0.3252 -0.6973
18950TIP3   OH278264   5.620   3.846  14.423 -0.0907 -0.0979  0.1724
18950TIP3    H178265   5.571   3.848  14.341  0.1966 -1.1681 -0.0391
18950TIP3    H278266   5.590   3.923  14.471 -0.6399  0.2540 -0.7191
18951TIP3   OH278267   4.429   2.797   4.151  0.2691 -0.2219 -0.1465
18951TIP3    H178268   4.340   2.813   4.181 -0.0615 -1.0592 -0.6407
18951TIP3    H278269   4.449   2.708   4.182  1.1488  0.1789  0.4662
18952TIP3   OH278270   6.248   2.047   0.667  0.2315  0.4958  0.6982
18952TIP3    H178271   6.196   2.080   0.593 -0.2783  1.0710  1.3003
18952TIP3    H278272   6.332   2.092   0.660  0.6520 -0.4189 -0.2696
18953TIP3   OH278273   5.045   2.522  11.217 -0.1790 -0.2861 -0.4359
18953TIP3    H178274   5.011   2.532  11.306 -0.9590 -1.8230 -0.5187
18953TIP3    H278275   5.000   2.590  11.167 -0.0452  0.3261  0.2566
18954TIP3   OH278276   1.379   5.874  13.558 -0.3149 -0.3084 -0.5497
18954TIP3    H178277   1.345   5.809  13.620 -1.2446 -0.1136 -0.8322
18954TIP3    H278278   1.318   5.870  13.484  0.1477  0.2381 -0.9716
18955TIP3   OH278279   3.657   0.857  15.882  0.1867 -1.0861 -0.6732
18955TIP3    H178280   3.673   0.784  15.822  1.1315 -0.5109 -1.1372
18955TIP3    H278281   3.608   0.818  15.954  1.3097 -2.3530 -0.5496
18956TIP3   OH278282   0.353   1.244  15.287 -0.1352  0.9159  0.0295
18956TIP3    H178283   0.374   1.228  15.379  1.1992 -1.6187 -0.6473
18956TIP3    H278284   0.427   1.295  15.254  0.4187  0.0423 -0.1077
18957TIP3   OH278285   3.633   3.461  16.989 -0.9585  0.4574  0.3616
18957TIP3    H178286   3.599   3.428  17.072  1.1880 -0.3028  0.9961
18957TIP3    H278287   3.667   3.383  16.945  0.3908  1.2181  0.0005
18958TIP3   OH278288   5.740   3.735  12.416 -0.0618  0.3096 -0.2625
18958TIP3    H178289   5.650   3.703  12.407 -0.0332  0.0826  0.2559
18958TIP3    H278290   5.745   3.811  12.357 -0.2087 -0.4698 -1.3200
18959TIP3   OH278291   4.069   4.433   1.138  0.1420 -0.5278 -0.0299
18959TIP3    H178292   4.098   4.466   1.223 -2.5553  1.8352  0.1322
18959TIP3    H278293   4.119   4.483   1.074 -1.3600  1.4616  0.2469
18960TIP3   OH278294   4.630   6.200   5.582  0.2239 -0.0521  0.3784
18960TIP3    H178295   4.592   6.279   5.544 -0.0256 -0.4015 -0.1037
18960TIP3    H278296   4.579   6.186   5.662 -1.0921 -0.8445 -0.5548
18961TIP3   OH278297   5.046   1.539   3.379  0.2400 -0.5868  0.1836
18961TIP3    H178298   5.022   1.592   3.303  0.4032  0.6249  0.9566
18961TIP3    H278299   4.962   1.520   3.422  0.0121 -2.3060 -0.9191
18962TIP3   OH278300   4.863   3.401   1.047  0.0473  0.1102  0.1580
18962TIP3    H178301   4.892   3.447   1.125  0.8770 -0.5081  0.2309
18962TIP3    H278302   4.768   3.413   1.046  0.2405  1.8222  0.1419
18963TIP3   OH278303   6.044   4.907  13.240 -0.3154  0.2284 -0.2939
18963TIP3    H178304   6.030   4.823  13.195  1.0989  0.9904 -2.2737
18963TIP3    H278305   5.965   4.958  13.220 -0.2830  0.0834 -0.7965
18964TIP3   OH278306   3.214   6.221  15.688  0.4854 -0.2856 -0.4273
18964TIP3    H178307   3.135   6.175  15.714  0.2412  0.4922  0.2659
18964TIP3    H278308   3.187   6.313  15.682  1.0665 -0.1605 -1.3133
18965TIP3   OH278309   6.686   6.008  17.156 -0.0730 -0.1459  0.9350
18965TIP3    H178310   6.691   6.102  17.141 -0.8326  0.0538  1.8062
18965TIP3    H278311   6.644   5.973  17.078 -1.5384  0.5056  1.3936
18966TIP3   OH278312   5.047   4.952  10.446  0.7185  0.2324 -0.1999
18966TIP3    H178313   4.958   4.916  10.443  0.7768  0.1312 -0.9302
18966TIP3    H278314   5.035   5.046  10.436  0.8093  0.0323 -3.0677
18967TIP3   OH278315   2.900   1.558  14.825  0.1862 -0.2398 -0.3737
18967TIP3    H178316   2.843   1.482  14.830 -1.2035  0.8327  0.8285
18967TIP3    H278317   2.921   1.566  14.732 -1.1161 -1.0309 -0.7514
18968TIP3   OH278318   5.913   3.234  13.086  0.2533 -0.0254 -0.5853
18968TIP3    H178319   5.989   3.178  13.101 -0.7498 -1.1791  0.4637
18968TIP3    H278320   5.941   3.321  13.116  0.4733 -0.8960  1.9856
18969TIP3   OH278321   5.662   5.731  13.000  0.1678 -0.2831  0.0455
18969TIP3    H178322   5.653   5.771  13.087 -1.6715 -2.9239  1.1924
18969TIP3    H278323   5.672   5.638  13.018  1.6929 -0.7012 -2.5681
18970TIP3   OH278324   6.289   6.380   1.635  0.6662 -0.3376 -0.4704
18970TIP3    H178325   6.298   6.437   1.712 -1.4671 -0.9606  0.3173
18970TIP3    H278326   6.247   6.436   1.569  1.5641 -0.0921 -0.8410
18971TIP3   OH278327   6.091   6.734   3.678  0.0824 -0.3050 -0.1008
18971TIP3    H178328   6.121   6.668   3.740  0.5858  1.1044  1.2130
18971TIP3    H278329   6.000   6.712   3.661  0.2887 -1.4285  0.1650
18972TIP3   OH278330   3.721   6.402  13.380 -0.1086  0.4218  0.4229
18972TIP3    H178331   3.630   6.433  13.372 -0.0206  0.7336  0.6286
18972TIP3    H278332   3.718   6.335  13.448 -0.0840  0.8329  0.8308
18973TIP3   OH278333   6.245   4.311  15.019 -0.9248  0.2819 -0.2336
18973TIP3    H178334   6.337   4.332  15.032 -0.3349  0.1934 -3.3500
18973TIP3    H278335   6.210   4.388  14.972 -1.5551 -0.9543 -1.8990
18974TIP3   OH278336   1.193   5.236  14.765  0.6014  0.4938  0.2280
18974TIP3    H178337   1.111   5.221  14.811  0.5650 -1.4433 -0.3861
18974TIP3    H278338   1.248   5.285  14.827 -0.4060  0.3296  1.2649
18975TIP3   OH278339   4.702   6.315  13.651 -0.3080  0.3474 -0.5603
18975TIP3    H178340   4.621   6.340  13.606 -0.6995  0.1377  0.0226
18975TIP3    H278341   4.755   6.275  13.583 -0.9099  0.0058 -0.8377
18976TIP3   OH278342   5.810   0.824   5.222 -0.0979 -0.0039  0.0324
18976TIP3    H178343   5.783   0.846   5.132  0.9810  1.6991  0.0769
18976TIP3    H278344   5.728   0.821   5.271 -0.7451 -1.2962 -1.0364
18977TIP3   OH278345   3.658   1.152  12.595 -0.4266  0.3972 -0.0733
18977TIP3    H178346   3.711   1.168  12.673 -1.4291 -0.0545  0.7186
18977TIP3    H278347   3.592   1.089  12.622  0.1364 -0.9781 -1.7141
18978TIP3   OH278348   4.486   2.663  13.345  0.2036  0.2164 -0.3547
18978TIP3    H178349   4.553   2.639  13.409  0.8896 -0.7629 -1.4178
18978TIP3    H278350   4.515   2.748  13.311  2.0056 -1.0575 -2.2015
18979TIP3   OH278351   4.074   0.843   3.598 -0.0649  0.4100  0.3158
18979TIP3    H178352   4.143   0.780   3.617  0.1138  0.3296 -0.5606
18979TIP3    H278353   4.001   0.815   3.653  0.6257  0.5695  1.3387
18980TIP3   OH278354   1.941   5.636   3.094 -0.5098  0.4861  0.1366
18980TIP3    H178355   1.955   5.541   3.100 -0.4549  0.3227 -1.8900
18980TIP3    H278356   1.861   5.645   3.041 -0.0925  1.5744 -0.3298
18981TIP3   OH278357   6.648   1.583  14.278 -0.2609 -0.1704 -0.0440
18981TIP3    H178358   6.644   1.655  14.341  0.8348 -1.6568  1.8150
18981TIP3    H278359   6.563   1.584  14.235 -0.1464  2.4481 -0.3578
18982TIP3   OH278360   0.589   5.292   4.059  0.0319 -0.1330  0.0834
18982TIP3    H178361   0.595   5.203   4.093  1.0362 -0.3388 -0.5850
18982TIP3    H278362   0.643   5.291   3.979  0.1460  1.0959  0.1233
18983TIP3   OH278363   1.989   5.951   4.341 -0.4817 -0.1262  0.1505
18983TIP3    H178364   1.993   5.966   4.247 -1.6674 -0.9692 -0.0485
18983TIP3    H278365   1.928   6.018   4.373 -1.1023 -0.6698  0.1207
18984TIP3   OH278366   0.735   2.157  15.762  0.4321  0.0075  0.0226
18984TIP3    H178367   0.749   2.182  15.670  2.3031  1.7121  0.6848
18984TIP3    H278368   0.640   2.145  15.770  0.0855  1.1349 -1.8331
18985TIP3   OH278369   2.945   3.810   4.641  0.0609 -0.5595  0.3379
18985TIP3    H178370   2.942   3.905   4.645 -0.4397 -0.4258 -1.8817
18985TIP3    H278371   3.000   3.785   4.715  0.1467  1.4334  1.0137
18986TIP3   OH278372   4.305   6.037   4.149 -0.4135 -0.3774 -0.2470
18986TIP3    H178373   4.397   6.061   4.159 -0.2014 -0.1821 -2.1806
18986TIP3    H278374   4.306   5.963   4.088 -1.5482 -0.1457 -0.5760
18987TIP3   OH278375   5.680   1.016  15.029  0.0976  0.1080  0.2155
18987TIP3    H178376   5.760   1.060  15.001  0.7057 -0.2009  1.3915
18987TIP3    H278377   5.710   0.932  15.064 -0.7914 -0.2049  0.2517
18988TIP3   OH278378   3.017   1.884   1.126  0.2444 -0.4452  0.2597
18988TIP3    H178379   3.023   1.853   1.217 -1.8651 -0.9202  0.2864
18988TIP3    H278380   3.107   1.881   1.094  0.7425 -2.5397  1.6093
18989TIP3   OH278381   5.164   1.052  17.123  0.3815 -0.1044  0.0538
18989TIP3    H178382   5.121   1.123  17.076  0.0553  0.1327  0.7039
18989TIP3    H278383   5.120   1.048  17.207  0.0658 -1.3888 -0.1390
18990TIP3   OH278384   2.119   5.230  13.652 -0.4102 -0.3038  0.3872
18990TIP3    H178385   2.074   5.260  13.732 -0.0392  1.0631  0.1107
18990TIP3    H278386   2.083   5.285  13.583  1.8880  1.0969  0.2042
18991TIP3   OH278387   5.701   2.127  16.473  0.5162 -0.0175 -0.3852
18991TIP3    H178388   5.712   2.061  16.405 -2.7684 -0.6300 -0.4884
18991TIP3    H278389   5.692   2.210  16.425  0.5550 -0.1077 -0.5494
18992TIP3   OH278390   1.786   4.775   1.711 -0.1218 -0.4074 -0.4209
18992TIP3    H178391   1.729   4.804   1.640 -0.2302 -0.0910 -0.2045
18992TIP3    H278392   1.865   4.745   1.667 -0.2285 -0.3081 -0.6831
18993TIP3   OH278393   4.080   0.679  13.425 -0.1267 -0.2080 -0.2736
18993TIP3    H178394   4.086   0.584  13.427  0.1079 -0.2572 -1.9172
18993TIP3    H278395   4.026   0.698  13.348  0.1640  0.9915 -0.2012
18994TIP3   OH278396   2.837   1.292   0.410  0.0407 -0.9729  0.1055
18994TIP3    H178397   2.869   1.382   0.407  0.7489 -1.2350 -2.2172
18994TIP3    H278398   2.883   1.253   0.484  0.7059  0.2391  0.3598
18995TIP3   OH278399   1.488   5.469   6.346  0.3650 -0.0627  0.0288
18995TIP3    H178400   1.550   5.474   6.273 -0.9694  0.0751 -1.1520
18995TIP3    H278401   1.459   5.378   6.347 -0.1975  0.1117 -0.1249
18996TIP3   OH278402   5.582   2.422   3.207  0.0550  0.2283 -0.1611
18996TIP3    H178403   5.645   2.402   3.138  0.1213  1.4981 -0.4991
18996TIP3    H278404   5.539   2.339   3.226  0.8477 -0.3654 -0.9154
18997TIP3   OH278405   2.584   3.702  14.428 -0.0110  0.1208  0.2415
18997TIP3    H178406   2.492   3.693  14.452 -0.2616 -1.7629 -1.1855
18997TIP3    H278407   2.584   3.769  14.359 -0.2563  0.3720  0.4832
18998TIP3   OH278408   1.434   5.569   3.310 -0.3853  0.2478 -0.3955
18998TIP3    H178409   1.358   5.549   3.255 -0.3179  0.1066 -0.4379
18998TIP3    H278410   1.469   5.484   3.333  0.0391  0.3207 -0.7629
18999TIP3   OH278411   4.958   2.993   0.355 -0.1248 -0.4794  0.9508
18999TIP3    H178412   5.044   2.959   0.381  1.5531  3.0176  0.5369
18999TIP3    H278413   4.969   3.018   0.264 -0.8822  1.8852  1.4479
19000TIP3   OH278414   1.111   2.201   4.346  0.4013  0.2155  0.0752
19000TIP3    H178415   1.032   2.209   4.292 -1.2158  0.9556  2.3713
19000TIP3    H278416   1.101   2.117   4.391  2.2362 -0.8853 -1.4240
19001TIP3   OH278417   5.492   5.831   6.202 -0.4301 -0.0727 -0.4459
19001TIP3    H178418   5.413   5.802   6.155 -1.8248 -0.8490  2.1675
19001TIP3    H278419   5.461   5.901   6.260  0.2495 -1.8278  2.1981
19002TIP3   OH278420   2.411   4.526   6.024 -0.0917 -0.1984 -0.1739
19002TIP3    H178421   2.332   4.522   5.971 -0.7107  2.0927  0.4547
19002TIP3    H278422   2.410   4.614   6.063  1.1952 -1.1568  2.2672
19003TIP3   OH278423   4.490   0.465  13.422 -0.1667 -0.5380 -0.5110
19003TIP3    H178424   4.530   0.402  13.363  1.0973 -0.2826  0.0244
19003TIP3    H278425   4.451   0.531  13.365  1.6986  0.1140 -1.1000
19004TIP3   OH278426   2.070   3.010  12.768 -0.5946  0.2774 -0.0321
19004TIP3    H178427   2.110   3.063  12.699  0.6103 -1.9113 -1.1367
19004TIP3    H278428   2.143   2.990  12.827 -0.5531 -1.5863 -0.6413
19005TIP3   OH278429   4.707   1.988  11.220  0.5349  0.3629 -0.3698
19005TIP3    H178430   4.802   1.993  11.227  0.8508 -0.9241 -2.6528
19005TIP3    H278431   4.674   2.025  11.302  3.0049 -0.0818  0.9016
19006TIP3   OH278432   6.313   0.737   4.977 -0.7171 -0.0975  0.0742
19006TIP3    H178433   6.335   0.681   4.903  1.2959  0.5035  0.1776
19006TIP3    H278434   6.350   0.692   5.053  1.5293  1.6096  0.0813
19007TIP3   OH278435   0.226   4.807  14.775  0.7035 -0.1725 -0.1852
19007TIP3    H178436   0.138   4.843  14.764  1.0193  0.4967 -0.5734
19007TIP3    H278437   0.221   4.719  14.739  0.2176 -0.0891 -0.3225
19008TIP3   OH278438   5.115   6.308  16.071  0.8395  0.2833  0.0862
19008TIP3    H178439   5.030   6.343  16.098  0.8161  1.2104 -1.1136
19008TIP3    H278440   5.179   6.365  16.114  0.8816 -0.3983  0.9682
19009TIP3   OH278441   2.265   2.188   6.032 -0.1876  0.1753 -0.1682
19009TIP3    H178442   2.320   2.137   5.973  0.8948  1.4466 -0.3119
19009TIP3    H278443   2.297   2.278   6.022 -0.9966  0.6397  1.2204
19010TIP3   OH278444   2.106   0.606   0.997 -0.4329 -0.0238 -0.0956
19010TIP3    H178445   2.065   0.520   0.986  1.1890 -0.8216 -0.1817
19010TIP3    H278446   2.158   0.618   0.918  0.7787  0.2246  0.7177
19011TIP3   OH278447   2.665   0.780   0.806 -0.7535  0.6111 -0.5543
19011TIP3    H178448   2.699   0.748   0.722  1.5126  2.0880 -0.3027
19011TIP3    H278449   2.594   0.839   0.782 -2.0721 -1.1705 -1.2322
19012TIP3   OH278450   2.738   5.067   4.773 -0.4595  0.4789  0.1651
19012TIP3    H178451   2.670   4.999   4.779 -0.1918 -0.0072 -1.8194
19012TIP3    H278452   2.709   5.124   4.702  1.6636 -0.3216 -1.4461
19013TIP3   OH278453   4.889   1.788  11.613  0.5322  0.0432  0.1157
19013TIP3    H178454   4.867   1.870  11.657  0.4255 -0.6276  1.3802
19013TIP3    H278455   4.903   1.812  11.522 -0.0233  1.3746  0.3590
19014TIP3   OH278456   3.785   2.911  15.908 -0.5259 -0.5604  0.4171
19014TIP3    H178457   3.694   2.882  15.898 -0.6027 -0.1729 -0.0057
19014TIP3    H278458   3.799   2.973  15.837 -0.4988  0.7843  1.5655
19015TIP3   OH278459   3.635   5.206   5.904  0.3615  0.1245 -0.0713
19015TIP3    H178460   3.719   5.228   5.942  0.4106  1.1335 -0.7438
19015TIP3    H278461   3.615   5.278   5.843 -1.5682  0.5806  1.0022
19016TIP3   OH278462   3.930   1.380  16.048 -0.1137  0.3002  0.5626
19016TIP3    H178463   3.902   1.297  16.086  0.7939 -0.9475 -1.3486
19016TIP3    H278464   3.939   1.362  15.954 -0.0734  2.6191  0.0619
19017TIP3   OH278465   1.298   5.520   4.368  0.3404  0.2282 -0.6920
19017TIP3    H178466   1.281   5.571   4.288  2.2169  1.8394 -0.1558
19017TIP3    H278467   1.378   5.560   4.405  0.6725 -1.7760  0.9213
19018TIP3   OH278468   4.529   6.258  15.055 -0.2201 -0.3082  0.3684
19018TIP3    H178469   4.522   6.304  14.971  1.5516 -0.3358  0.1649
19018TIP3    H278470   4.621   6.270  15.081 -0.4411 -1.3169  1.7136
19019TIP3   OH278471   3.801   2.506  16.708 -0.7053 -0.6497  0.9340
19019TIP3    H178472   3.791   2.459  16.790  1.3041 -0.7480  1.1783
19019TIP3    H278473   3.877   2.465  16.666  0.2570  1.4403  0.5147
19020TIP3   OH278474   4.815   5.026  11.356  0.0277 -0.4950 -0.2684
19020TIP3    H178475   4.875   5.051  11.285  0.3110  1.2245  0.5231
19020TIP3    H278476   4.819   4.930  11.357  1.4251 -0.4964 -1.3794
19021TIP3   OH278477   4.183   1.830  12.698 -0.3898  0.3523  0.1728
19021TIP3    H178478   4.135   1.907  12.670 -0.8586  0.4994  1.3251
19021TIP3    H278479   4.244   1.811  12.626 -0.1007  1.9288 -0.0217
19022TIP3   OH278480   2.040   1.706  14.730 -0.0506 -0.0541 -0.2600
19022TIP3    H178481   2.134   1.719  14.742 -0.0810 -0.5946  0.7427
19022TIP3    H278482   2.018   1.752  14.650  1.5738 -2.1085 -2.0059
19023TIP3   OH278483   4.293   4.566   5.593 -0.3335  0.2237  0.5115
19023TIP3    H178484   4.323   4.481   5.623 -1.8290  0.2126  2.1195
19023TIP3    H278485   4.253   4.549   5.507  1.6155 -0.2178 -0.3471
19024TIP3   OH278486   3.726   3.092  16.341  0.5379  0.2095  0.0265
19024TIP3    H178487   3.788   3.020  16.351  0.9204  0.1798 -2.0484
19024TIP3    H278488   3.775   3.160  16.296 -0.5770  0.6609 -0.5599
19025TIP3   OH278489   0.453   0.798  13.616 -0.0280  0.1440  0.4272
19025TIP3    H178490   0.371   0.758  13.647 -0.2239  0.5956  0.5062
19025TIP3    H278491   0.430   0.837  13.532  0.2448 -0.1912  0.1966
19026TIP3   OH278492   4.777   0.989   5.047 -0.2989  0.2732 -0.1533
19026TIP3    H178493   4.849   0.956   4.993 -1.4864  1.2922 -2.4876
19026TIP3    H278494   4.769   1.081   5.021 -1.1777  0.6983  1.5336
19027TIP3   OH278495   0.327   6.047  12.550  0.2657 -0.6764  0.4894
19027TIP3    H178496   0.392   5.990  12.508 -0.6324 -1.2882 -0.0966
19027TIP3    H278497   0.375   6.128  12.569  1.1510 -1.0473 -0.0996
19028TIP3   OH278498   0.372   6.556   6.357 -0.0449 -0.3256 -0.6086
19028TIP3    H178499   0.438   6.487   6.355 -0.7733 -1.0326 -2.0930
19028TIP3    H278500   0.301   6.519   6.410 -0.7161 -1.0294 -1.9513
19029TIP3   OH278501   3.178   6.022  10.534  0.3835  0.3432  0.2221
19029TIP3    H178502   3.204   6.105  10.575 -0.0123  0.5728  0.0157
19029TIP3    H278503   3.091   6.005  10.569  1.2461 -1.0345  1.8337
19030TIP3   OH278504   5.832   1.787   1.856 -0.1689  0.7026 -0.2667
19030TIP3    H178505   5.813   1.780   1.949 -2.0395  1.2094 -0.5787
19030TIP3    H278506   5.861   1.877   1.843 -1.1622  1.0192 -0.3607
19031TIP3   OH278507   2.485   4.642  11.438  0.6113  0.4083 -0.3828
19031TIP3    H178508   2.402   4.595  11.437  0.0496  1.3526 -1.5265
19031TIP3    H278509   2.521   4.627  11.525 -0.6046 -0.2918  0.0146
19032TIP3   OH278510   5.579   2.125  12.201  0.1144  0.2169  0.1441
19032TIP3    H178511   5.660   2.123  12.253 -0.0769  0.7651  0.4716
19032TIP3    H278512   5.553   2.217  12.202 -0.0348  0.1842 -0.7106
19033TIP3   OH278513   0.114   2.917   5.617 -0.5733  0.2843 -0.6741
19033TIP3    H178514   0.056   2.841   5.625 -1.4930  0.9063 -1.2304
19033TIP3    H278515   0.071   2.973   5.552 -0.8417  2.1330  1.0002
19034TIP3   OH278516   6.403   5.482  13.859 -0.7982 -0.1668  0.0799
19034TIP3    H178517   6.374   5.554  13.914 -0.5622 -0.4542  0.5952
19034TIP3    H278518   6.499   5.483  13.866 -0.7169  0.3370 -1.0340
19035TIP3   OH278519   4.697   1.448  15.056 -0.2026  0.6100  0.2288
19035TIP3    H178520   4.667   1.397  15.131 -1.1583 -0.3381 -0.7561
19035TIP3    H278521   4.792   1.438  15.056 -0.2514  0.0937  0.9466
19036TIP3   OH278522   1.466   1.056   3.186  0.4791 -0.1294  0.2179
19036TIP3    H178523   1.400   0.988   3.200  0.4512 -0.5145 -1.6269
19036TIP3    H278524   1.516   1.027   3.110  0.3382  1.9867 -0.7666
19037TIP3   OH278525   6.757   4.443  15.112 -0.7132 -0.1838 -0.1792
19037TIP3    H178526   6.779   4.511  15.048  0.9081 -0.6754 -0.1814
19037TIP3    H278527   6.800   4.364  15.078 -0.2250 -0.5651  1.2703
19038TIP3   OH278528   0.866   0.699  14.822 -0.4445 -0.3976 -0.4143
19038TIP3    H178529   0.909   0.760  14.883 -1.7298  1.1243 -0.9767
19038TIP3    H278530   0.885   0.734  14.735 -0.9927 -0.9523 -0.7659
19039TIP3   OH278531   1.002   2.333   2.010 -0.0974 -0.0193  0.2617
19039TIP3    H178532   1.053   2.313   2.088 -0.2881  0.5684  0.5459
19039TIP3    H278533   0.938   2.262   2.004 -0.4156  0.1988  0.9381
19040TIP3   OH278534   5.913   4.437  14.295  0.2683 -0.0422 -0.9340
19040TIP3    H178535   5.864   4.380  14.354 -0.3431  1.7620  0.4222
19040TIP3    H278536   5.870   4.522  14.304  1.4642  0.7641 -2.4505
19041TIP3   OH278537   3.170   3.293  15.582 -0.1737  0.6150  0.1418
19041TIP3    H178538   3.229   3.222  15.555 -0.3145  0.3409  0.5444
19041TIP3    H278539   3.182   3.360  15.516 -0.1721  0.1405 -0.3512
19042TIP3   OH278540   2.170   1.896   4.279 -0.1327  0.1233  0.2247
19042TIP3    H178541   2.113   1.820   4.267  0.0869  0.1340 -1.0414
19042TIP3    H278542   2.200   1.917   4.191  0.7345  0.9710  0.7061
19043TIP3   OH278543   4.400   6.130  11.856 -0.2417 -0.4223  0.3937
19043TIP3    H178544   4.385   6.085  11.773 -0.3183 -0.5591  0.4825
19043TIP3    H278545   4.482   6.178  11.843 -0.0057 -0.8203  0.4019
19044TIP3   OH278546   4.870   1.978   0.755  0.2406 -0.0671 -0.1156
19044TIP3    H178547   4.952   1.929   0.753  1.4443  1.2675  4.4977
19044TIP3    H278548   4.889   2.060   0.711  0.8729 -0.3959 -0.4593
19045TIP3   OH278549   4.618   1.273   3.448  0.4905 -0.3415 -0.1836
19045TIP3    H178550   4.613   1.181   3.421 -3.0918 -0.3896  0.1462
19045TIP3    H278551   4.622   1.270   3.543  0.5763 -0.1531 -0.1808
19046TIP3   OH278552   2.797   2.391  14.685 -0.4868 -0.2684 -0.1594
19046TIP3    H178553   2.805   2.417  14.594 -0.5231 -2.8840 -0.9968
19046TIP3    H278554   2.868   2.328  14.698 -0.9461 -0.5083  1.4120
19047TIP3   OH278555   5.863   4.508   5.859 -0.3670 -0.0199  0.6128
19047TIP3    H178556   5.858   4.575   5.791 -1.2422 -1.2342 -0.5762
19047TIP3    H278557   5.955   4.505   5.883 -0.3053  1.5835  0.6875
19048TIP3   OH278558   3.271   6.361  16.445  0.3374  0.3103  0.0368
19048TIP3    H178559   3.319   6.279  16.432  0.3131  0.0073  1.7096
19048TIP3    H278560   3.180   6.338  16.430  0.5353  0.6258 -1.9705
19049TIP3   OH278561   3.814   5.700  16.907  0.2156 -0.0188  0.0404
19049TIP3    H178562   3.733   5.716  16.859  0.3866 -0.4530 -0.4135
19049TIP3    H278563   3.856   5.785  16.913 -0.9673  0.5006  1.6112
19050TIP3   OH278564   4.709   2.993   3.464  0.7625 -0.4250 -0.3026
19050TIP3    H178565   4.725   2.945   3.382  0.3152 -1.4644  0.2030
19050TIP3    H278566   4.793   2.989   3.510  0.2627 -2.3279  0.5333
19051TIP3   OH278567   0.601   1.316  15.316 -0.2003  0.1271 -0.1406
19051TIP3    H178568   0.663   1.269  15.370 -0.1989 -1.5170 -1.5003
19051TIP3    H278569   0.649   1.392  15.284  0.3333  0.1697  0.7528
19052TIP3   OH278570   0.064   6.572  14.623  0.1599 -0.6613 -0.2980
19052TIP3    H178571   0.026   6.513  14.687  1.0949  0.5237  1.4347
19052TIP3    H278572   0.061   6.658  14.665  0.3612  0.2466 -2.0548
19053TIP3   OH278573   0.101   3.611   5.298 -0.1194 -0.0791 -0.1327
19053TIP3    H178574   0.038   3.601   5.369 -0.9513  2.5378 -0.4172
19053TIP3    H278575   0.176   3.557   5.325 -1.4304 -1.2089  1.4384
19054TIP3   OH278576   2.564   5.075   4.301  0.2894 -0.1963 -0.0896
19054TIP3    H178577   2.576   5.155   4.249 -0.4031 -0.3748 -0.5366
19054TIP3    H278578   2.585   5.004   4.240  0.3199 -0.3776  0.1328
19055TIP3   OH278579   5.286   5.424  11.499  0.1532 -0.7066 -0.2841
19055TIP3    H178580   5.337   5.501  11.474 -1.6843  0.4242 -0.7635
19055TIP3    H278581   5.205   5.460  11.536 -1.6959 -2.3110 -2.4716
19056TIP3   OH278582   6.364   3.234  12.325  0.2593 -0.2147 -0.6798
19056TIP3    H178583   6.317   3.202  12.249 -1.9417  1.5424 -0.1609
19056TIP3    H278584   6.341   3.174  12.396 -0.2359 -0.0659 -0.7116
19057TIP3   OH278585   5.773   0.722   5.592  0.2803 -0.2602 -1.0991
19057TIP3    H178586   5.867   0.725   5.579  1.1357  0.7637  3.5257
19057TIP3    H278587   5.742   0.810   5.571  0.7974  0.0942 -0.4063
19058TIP3   OH278588   3.076   3.474  14.906 -0.3905 -0.5988 -0.0964
19058TIP3    H178589   3.093   3.461  14.812  1.5596 -0.4068  0.1932
19058TIP3    H278590   2.983   3.497  14.910 -0.7825 -1.6781 -1.8680
19059TIP3   OH278591   6.776   5.692  11.604 -0.0808  0.5729  0.3103
19059TIP3    H178592   6.842   5.645  11.552 -0.0754 -1.3879  1.9295
19059TIP3    H278593   6.694   5.676  11.558 -0.1887 -1.7635  1.1831
19060TIP3   OH278594   2.592   4.234  16.089  0.0922 -0.0589 -0.0688
19060TIP3    H178595   2.593   4.209  15.997 -0.5307  1.0656 -0.4096
19060TIP3    H278596   2.630   4.160  16.135 -1.2859 -1.4278 -1.0494
19061TIP3   OH278597   4.663   6.364  14.045  0.4120 -0.3130  0.1161
19061TIP3    H178598   4.607   6.374  13.968  2.0869  0.4093 -1.0625
19061TIP3    H278599   4.718   6.442  14.046  0.6145 -0.4236  1.9231
19062TIP3   OH278600   4.587   4.537   5.806 -0.3350  0.6214 -0.2583
19062TIP3    H178601   4.538   4.459   5.781 -0.0255 -0.4196  2.1073
19062TIP3    H278602   4.655   4.504   5.866 -0.7927  2.7694  1.5796
19063TIP3   OH278603   6.798   0.874   4.537 -0.4137 -0.3827  0.6043
19063TIP3    H178604   6.850   0.886   4.617 -0.1801  1.4372  0.2251
19063TIP3    H278605   6.859   0.836   4.474 -0.6817 -2.1354  1.3333
19064TIP3   OH278606   5.744   0.400   2.452 -0.0763 -0.7380 -0.3415
19064TIP3    H178607   5.803   0.331   2.482  0.1356 -1.0700 -1.4964
19064TIP3    H278608   5.693   0.360   2.382 -1.9553 -0.5697  0.8678
19065TIP3   OH278609   0.012   0.479   4.208 -0.0831 -0.1360 -0.1286
19065TIP3    H178610   0.037   0.414   4.143  0.2188 -1.0231  0.8388
19065TIP3    H278611  -0.078   0.503   4.186  0.0913 -0.2609 -0.9853
19066TIP3   OH278612   2.579   4.922   2.991  0.0220  0.4580  0.0003
19066TIP3    H178613   2.657   4.945   2.940  0.5477 -3.1731 -1.1266
19066TIP3    H278614   2.509   4.916   2.926  0.0711 -1.4726  0.0711
19067TIP3   OH278615   0.859   4.270  12.579 -0.5859 -0.6788  0.3604
19067TIP3    H178616   0.808   4.336  12.532  0.6599  0.6166  0.7866
19067TIP3    H278617   0.811   4.188  12.564 -3.2262  0.5714  1.3423
19068TIP3   OH278618   1.142   4.670  15.287 -0.1577  0.8436  0.1015
19068TIP3    H178619   1.153   4.609  15.213  1.0693  1.2065 -0.0354
19068TIP3    H278620   1.232   4.690  15.314 -0.5765  1.8898  0.7311
19069TIP3   OH278621   5.885   6.476   2.239  0.0825 -0.2441  0.2768
19069TIP3    H178622   5.798   6.476   2.279 -0.2382 -1.8521 -0.3613
19069TIP3    H278623   5.935   6.540   2.290 -0.5037 -1.6700  2.7716
19070TIP3   OH278624   6.768   3.560  13.968 -0.0575 -0.0721 -0.1376
19070TIP3    H178625   6.723   3.629  13.919 -1.5165 -1.2471 -0.5389
19070TIP3    H278626   6.718   3.480  13.948  0.2714 -0.8764  1.9691
19071TIP3   OH278627   1.730   1.106  15.314  0.1270 -0.6102  0.1044
19071TIP3    H178628   1.745   1.176  15.378  0.3145 -0.1160 -0.4709
19071TIP3    H278629   1.662   1.140  15.256  3.5790  1.3133 -3.2610
19072TIP3   OH278630   3.864   3.913   4.987  0.2748 -0.1998  0.5359
19072TIP3    H178631   3.847   3.982   5.051 -0.2580 -0.0062  0.1931
19072TIP3    H278632   3.896   3.960   4.910  2.3709 -0.5451  1.1402
19073TIP3   OH278633   4.476   4.611   4.649 -0.4449  0.6063 -0.1137
19073TIP3    H178634   4.442   4.626   4.737 -0.3837 -2.0970  0.4322
19073TIP3    H278635   4.547   4.549   4.661 -1.3663 -0.9486 -2.1792
19074TIP3   OH278636   0.369   4.975   5.302  0.3457 -0.4680 -0.0669
19074TIP3    H178637   0.325   5.055   5.333  0.5651  0.0497 -1.0541
19074TIP3    H278638   0.384   4.991   5.209  1.4472 -1.1852 -0.0243
19075TIP3   OH278639   2.994   4.753   3.947  0.0357  0.3818 -0.0934
19075TIP3    H178640   2.971   4.710   3.865  2.7173 -0.0654 -0.7322
19075TIP3    H278641   3.088   4.773   3.937  0.4542  0.2845  2.8606
19076TIP3   OH278642   3.697   4.505   0.818 -0.5844  0.3021 -0.0158
19076TIP3    H178643   3.658   4.592   0.817 -1.3971 -0.0401  0.2667
19076TIP3    H278644   3.683   4.471   0.729  0.7659  0.8896 -0.4615
19077TIP3   OH278645   0.235   2.938  11.099  0.1087 -0.0843 -0.0236
19077TIP3    H178646   0.319   2.924  11.141  1.1076  0.1140 -1.8649
19077TIP3    H278647   0.224   3.033  11.096 -0.9062 -0.1255  1.5288
19078TIP3   OH278648   5.561   6.124  13.075  0.0173 -0.3362 -0.4289
19078TIP3    H178649   5.510   6.050  13.041  0.4847 -0.6619 -0.4419
19078TIP3    H278650   5.628   6.139  13.008  0.7688 -0.7961  0.1903
19079TIP3   OH278651   1.948   4.147  13.529  0.4807 -0.0691 -0.2858
19079TIP3    H178652   1.950   4.232  13.573  1.5580 -0.1850 -0.1003
19079TIP3    H278653   1.886   4.160  13.456 -0.5523  0.4150  0.6391
19080TIP3   OH278654   3.049   1.084   5.038 -0.0658 -0.0498  0.2148
19080TIP3    H178655   3.040   0.990   5.055  1.9717 -0.1244  1.1378
19080TIP3    H278656   3.134   1.093   4.994 -0.8856  1.2314 -1.2340
19081TIP3   OH278657   1.726   5.410  16.770 -0.6473  0.4608 -0.6116
19081TIP3    H178658   1.642   5.452  16.788 -0.5476  0.6821 -0.6583
19081TIP3    H278659   1.736   5.417  16.675 -1.0922 -0.5507 -0.7386
19082TIP3   OH278660   2.967   0.411  13.460  0.3180  0.3756 -0.0420
19082TIP3    H178661   2.986   0.414  13.553  0.8483  0.1227 -0.1416
19082TIP3    H278662   3.052   0.421  13.417  0.0470  0.7855 -0.5004
19083TIP3   OH278663   4.354   4.694   0.203  0.2667  0.1896  0.3722
19083TIP3    H178664   4.369   4.643   0.282  1.6327  0.9737  0.6535
19083TIP3    H278665   4.413   4.656   0.138 -0.2510  0.0718 -0.0349
19084TIP3   OH278666   0.525   1.787   3.210  0.3067 -0.0236 -0.5985
19084TIP3    H178667   0.540   1.870   3.164 -0.1371  0.3754 -0.0333
19084TIP3    H278668   0.449   1.749   3.167  0.0322  0.2423 -0.3606
19085TIP3   OH278669   0.527   5.676  14.788  0.1444  0.4312  0.0937
19085TIP3    H178670   0.529   5.582  14.804  0.0047 -0.0793 -2.5687
19085TIP3    H278671   0.465   5.710  14.853  0.1758 -1.2938  1.0663
19086TIP3   OH278672   1.218   1.201   3.357  0.5895 -0.0356 -0.1963
19086TIP3    H178673   1.295   1.155   3.323  0.6474  0.1016 -0.2533
19086TIP3    H278674   1.253   1.258   3.426  0.2316 -1.6449  1.3728
19087TIP3   OH278675   3.701   1.799   4.849  0.3960 -0.5076  0.1464
19087TIP3    H178676   3.679   1.721   4.900  1.2522 -1.7118 -1.2295
19087TIP3    H278677   3.656   1.786   4.765 -0.0185  0.8492  0.1256
19088TIP3   OH278678   5.500   3.577   1.413  0.2257 -0.6244  0.1434
19088TIP3    H178679   5.577   3.553   1.361 -1.1163  0.2461 -2.3984
19088TIP3    H278680   5.471   3.661   1.377 -2.1138 -1.0887  0.7427
19089TIP3   OH278681   4.168   4.305  12.716 -0.0772 -0.0741 -0.3493
19089TIP3    H178682   4.261   4.286  12.707 -0.5245 -1.9557 -1.4613
19089TIP3    H278683   4.139   4.252  12.790 -0.6509 -1.1183 -1.2977
19090TIP3   OH278684   0.390   2.698   3.954 -0.2947 -0.2437  0.4209
19090TIP3    H178685   0.483   2.719   3.953  0.3009 -2.5402  1.7582
19090TIP3    H278686   0.358   2.735   4.036  0.0684 -1.7443  1.2655
19091TIP3   OH278687   0.439   5.656  16.919  0.2125 -0.5243 -0.4797
19091TIP3    H178688   0.511   5.698  16.967  0.6038 -2.4858  0.7361
19091TIP3    H278689   0.366   5.717  16.928  0.9115  0.1788  0.7431
19092TIP3   OH278690   4.452   0.257   4.265  0.1693 -0.3685  0.6573
19092TIP3    H178691   4.489   0.328   4.318 -0.4309  0.0196  0.5658
19092TIP3    H278692   4.405   0.302   4.195  0.6254 -0.8736  0.0167
19093TIP3   OH278693   4.900   0.436  13.467 -0.2499 -0.5052 -0.1604
19093TIP3    H178694   4.993   0.413  13.468 -0.2569 -0.5352 -0.1821
19093TIP3    H278695   4.895   0.514  13.411 -0.0653  0.2327  0.8107
19094TIP3   OH278696   0.105   2.669   1.348  0.1483  0.5519 -0.4446
19094TIP3    H178697   0.117   2.741   1.286  0.0363  1.7980  0.9210
19094TIP3    H278698   0.144   2.593   1.304  1.1538  1.6486 -1.5350
19095TIP3   OH278699   0.600   5.202   5.346  0.1599  0.1181 -0.3516
19095TIP3    H178700   0.555   5.163   5.421  0.8069  0.8010  0.4102
19095TIP3    H278701   0.645   5.278   5.382  0.2382  0.6284 -1.5041
19096TIP3   OH278702   0.341   1.167  14.062 -0.0110  0.1963  0.3432
19096TIP3    H178703   0.257   1.125  14.081  1.8115 -4.0655  0.0550
19096TIP3    H278704   0.400   1.137  14.132  1.7113  1.7672 -0.3384
19097TIP3   OH278705   2.434   1.248  16.371 -0.3111  0.6958  0.1166
19097TIP3    H178706   2.444   1.204  16.455 -1.6384  1.3685  0.6722
19097TIP3    H278707   2.412   1.178  16.309  1.3042  0.1124  0.1725
19098TIP3   OH278708   0.098   1.132  14.685  0.5838  0.3752  0.0568
19098TIP3    H178709   0.177   1.169  14.724  0.4499  2.4263 -1.4279
19098TIP3    H278710   0.122   1.042  14.663  2.0650  0.5591  0.7937
19099TIP3   OH278711   2.064   1.679  12.937  0.0951 -0.1140  0.9065
19099TIP3    H178712   2.027   1.767  12.926  1.5944  0.4366  0.0478
19099TIP3    H278713   2.074   1.646  12.847  1.0022 -0.5246  1.1496
19100TIP3   OH278714   2.144   4.048  13.114 -0.2848  0.4669  0.3199
19100TIP3    H178715   2.139   4.012  13.203  1.5877 -0.1683  0.2086
19100TIP3    H278716   2.102   4.134  13.120  0.0457  0.5451  1.8737
19101TIP3   OH278717   4.609   6.385  17.108  0.6072 -0.4946 -0.7823
19101TIP3    H178718   4.652   6.314  17.156  0.2419  1.2319  2.3875
19101TIP3    H278719   4.665   6.461  17.122 -0.2729  0.3951 -1.9485
19102TIP3   OH278720   1.313   3.512   0.166 -0.3096 -0.5617 -0.5602
19102TIP3    H178721   1.230   3.558   0.184 -0.5317 -0.1558 -2.4188
19102TIP3    H278722   1.360   3.516   0.249 -1.8642 -0.1877  0.3519
19103TIP3   OH278723   1.563   3.319  11.932  0.5022  0.8219 -0.1617
19103TIP3    H178724   1.525   3.232  11.944  0.3313  0.8032 -0.7795
19103TIP3    H278725   1.584   3.349  12.020 -0.7792  0.7576  0.1808
19104TIP3   OH278726   0.531   0.697  12.048 -0.3900  0.3649 -0.1023
19104TIP3    H178727   0.524   0.698  11.953 -0.7633 -0.1985 -0.0890
19104TIP3    H278728   0.454   0.647  12.077 -0.2521  0.4841  0.4913
19105TIP3   OH278729   2.186   6.768   4.967  0.1706 -0.1235  0.2180
19105TIP3    H178730   2.201   6.705   5.038 -0.4154 -1.8796 -1.1468
19105TIP3    H278731   2.268   6.766   4.916 -0.8921 -2.2001 -1.5745
19106TIP3   OH278732   1.114   1.131   1.701 -0.3464  0.0845 -0.7537
19106TIP3    H178733   1.071   1.195   1.757  0.8320 -1.2498  1.8627
19106TIP3    H278734   1.044   1.073   1.671 -0.7110 -1.6688  2.8968
19107TIP3   OH278735   0.623   3.058   4.614 -0.5733 -0.3254 -0.1394
19107TIP3    H178736   0.678   3.031   4.540 -0.7545 -0.1373 -0.3430
19107TIP3    H278737   0.538   3.019   4.595 -0.7161  0.0180 -0.2090
19108TIP3   OH278738   0.811   2.522   4.973 -0.3816  0.4165  0.9702
19108TIP3    H178739   0.860   2.440   4.978 -0.8084  0.0350 -0.6106
19108TIP3    H278740   0.878   2.590   4.970  0.3391 -0.1843 -3.6263
19109TIP3   OH278741   2.393   0.557   0.145 -0.3347 -0.3982 -0.0735
19109TIP3    H178742   2.433   0.615   0.081 -1.8205 -0.8670 -1.4797
19109TIP3    H278743   2.308   0.533   0.107 -1.4321 -0.4234  2.2171
19110TIP3   OH278744   3.969   0.979   0.453  0.4526  0.1992 -0.5858
19110TIP3    H178745   3.939   1.006   0.540 -1.4813 -0.6284 -0.9453
19110TIP3    H278746   4.060   0.954   0.465  0.2577  0.2458  1.1688
19111TIP3   OH278747   5.758   1.229  14.689  0.1199 -0.8680  0.1820
19111TIP3    H178748   5.677   1.203  14.646  1.6319 -3.2243 -1.4655
19111TIP3    H278749   5.766   1.168  14.762  0.3208 -0.5058  0.4639
19112TIP3   OH278750   0.348   2.282   0.628  0.4920  0.1221  0.0426
19112TIP3    H178751   0.362   2.197   0.669  0.5999  0.3487  0.4863
19112TIP3    H278752   0.426   2.333   0.651  0.7099  0.1426 -0.7365
19113TIP3   OH278753   4.977   6.000   4.123 -0.6523 -0.0941  0.3300
19113TIP3    H178754   4.927   5.988   4.042 -2.0159 -1.6690  1.3562
19113TIP3    H278755   4.990   6.095   4.129 -0.0650  0.0488 -1.9557
19114TIP3   OH278756   3.881   3.375  12.880  0.3730  0.3428  0.2010
19114TIP3    H178757   3.809   3.315  12.860  0.1705  0.5417  0.3295
19114TIP3    H278758   3.869   3.396  12.972  0.6622  0.2893  0.2498
19115TIP3   OH278759   0.647   1.892   4.004 -0.3387 -0.6546  0.0689
19115TIP3    H178760   0.560   1.865   4.034  0.5153 -2.5520  1.0156
19115TIP3    H278761   0.701   1.893   4.083  0.7967 -0.8000 -0.6664
19116TIP3   OH278762   0.568   1.596   0.444 -0.4533 -0.3911 -0.4592
19116TIP3    H178763   0.520   1.675   0.467 -1.3865 -1.2229  0.5442
19116TIP3    H278764   0.532   1.570   0.359 -0.9714 -0.3772 -0.2447
19117TIP3   OH278765   2.698   5.415  13.781 -0.3489 -0.2141  0.5919
19117TIP3    H178766   2.650   5.333  13.777  0.6284 -0.8454  1.1955
19117TIP3    H278767   2.786   5.390  13.809  1.0407  0.5974 -2.5755
19118TIP3   OH278768   0.151   5.844   5.433 -0.2687  0.3915 -0.1430
19118TIP3    H178769   0.170   5.926   5.386  0.9061  0.1793 -0.0604
19118TIP3    H278770   0.200   5.851   5.515 -2.9697  1.1439  1.5495
19119TIP3   OH278771   2.704   6.695  13.574 -0.0025  0.2254 -0.0860
19119TIP3    H178772   2.679   6.734  13.490  2.6960  1.6055 -0.3823
19119TIP3    H278773   2.659   6.748  13.639  0.1738  1.0641 -0.6277
19120TIP3   OH278774   1.890   5.961  13.587  0.8666 -0.2053 -0.2984
19120TIP3    H178775   1.976   6.003  13.587 -0.0879  1.8580 -1.3088
19120TIP3    H278776   1.870   5.949  13.680  1.2520  1.4652  0.0324
19121TIP3   OH278777   1.741   2.360   1.341  0.3773 -0.6622 -0.3256
19121TIP3    H178778   1.677   2.324   1.280 -1.2385  2.4522 -0.6301
19121TIP3    H278779   1.764   2.286   1.398 -3.3807 -2.0081 -0.3186
19122TIP3   OH278780   6.244   5.425  11.476 -0.3866 -0.7541 -0.0858
19122TIP3    H178781   6.265   5.419  11.383 -0.8143 -0.5976 -0.1945
19122TIP3    H278782   6.328   5.411  11.520 -0.3621 -1.8854 -0.4649
19123TIP3   OH278783   5.342   4.325  14.388  0.1772  0.1271  0.2589
19123TIP3    H178784   5.265   4.270  14.372  0.1071  0.4882 -0.7088
19123TIP3    H278785   5.306   4.409  14.416  0.1729  0.5246 -0.8834
19124TIP3   OH278786   3.724   3.812   0.753 -0.2055 -0.3424 -0.2098
19124TIP3    H178787   3.713   3.906   0.743 -0.9756 -0.6343 -3.2922
19124TIP3    H278788   3.635   3.779   0.768 -0.1694 -0.6894 -0.7246
19125TIP3   OH278789   3.284   6.005  15.251  0.0561 -0.3607  0.0867
19125TIP3    H178790   3.246   6.084  15.290 -0.0899  0.7514 -2.1779
19125TIP3    H278791   3.214   5.939  15.258 -0.0610 -0.1341  1.3718
19126TIP3   OH278792   3.329   4.852  15.405 -0.1320 -0.0400 -0.4623
19126TIP3    H178793   3.375   4.934  15.423  0.0207  0.2983 -2.2607
19126TIP3    H278794   3.399   4.788  15.392 -0.2513 -0.4682  0.8116
19127TIP3   OH278795   5.760   3.212  16.063 -0.0193 -0.1469  0.2280
19127TIP3    H178796   5.813   3.193  15.987 -0.3246 -0.9583  0.2127
19127TIP3    H278797   5.693   3.273  16.031  0.6143  0.5121  0.1453
19128TIP3   OH278798   4.850   3.943   5.507  0.6654  0.2809 -0.1870
19128TIP3    H178799   4.909   3.938   5.432  0.3348  0.4989 -0.4667
19128TIP3    H278800   4.805   4.027   5.497  0.0951 -0.0137 -0.1428
19129TIP3   OH278801   1.712   5.665   2.939 -0.0128  0.9158 -0.5115
19129TIP3    H178802   1.742   5.711   2.861 -0.5344  2.5979  0.2203
19129TIP3    H278803   1.657   5.729   2.985  0.0777 -0.0977  1.1085
19130TIP3   OH278804   6.765   1.694  15.587 -0.3155  0.3621  0.8920
19130TIP3    H178805   6.802   1.757  15.648 -1.1522  0.3452  1.4409
19130TIP3    H278806   6.839   1.639  15.560  1.0033  3.0329 -1.5187
19131TIP3   OH278807   5.236   2.850   0.197  0.7509 -0.2470 -0.0606
19131TIP3    H178808   5.221   2.943   0.210  0.3569 -0.3177  0.0252
19131TIP3    H278809   5.150   2.815   0.174  0.8991 -0.5848 -0.1118
19132TIP3   OH278810   2.919   1.366   1.817 -0.1514 -0.1549 -0.7071
19132TIP3    H178811   2.974   1.302   1.771  0.6187  0.2342 -0.3528
19132TIP3    H278812   2.866   1.313   1.877 -1.9130 -0.7894 -2.6741
19133TIP3   OH278813   6.216   4.703   2.123 -0.2730  0.1176  0.2712
19133TIP3    H178814   6.231   4.797   2.116  1.5168 -0.1165  0.5094
19133TIP3    H278815   6.293   4.670   2.169  0.4922 -1.8273 -2.2046
19134TIP3   OH278816   5.707   3.682  15.237 -0.1399 -0.0949  0.3083
19134TIP3    H178817   5.763   3.605  15.248  1.4534  0.7445 -1.3827
19134TIP3    H278818   5.689   3.685  15.143 -0.9330  1.0803  0.4806
19135TIP3   OH278819   1.357   3.021  16.861  0.1921  0.0593  0.1775
19135TIP3    H178820   1.330   3.010  16.769 -1.6329 -0.5082  0.7250
19135TIP3    H278821   1.349   2.933  16.898  0.1641  0.4276  1.0532
19136TIP3   OH278822   5.447   5.005   1.369 -0.0820  0.1012  0.6169
19136TIP3    H178823   5.431   5.049   1.286 -0.7736 -0.2004  0.5845
19136TIP3    H278824   5.409   5.063   1.435 -3.4623 -1.6014  0.3807
19137TIP3   OH278825   3.129   2.451   0.515  0.1233  0.6419 -0.1071
19137TIP3    H178826   3.221   2.428   0.499 -0.5380 -0.8958 -1.9436
19137TIP3    H278827   3.085   2.367   0.526 -1.5870  1.1853 -2.3086
19138TIP3   OH278828   4.239   1.080  15.209 -0.1619 -0.3726  0.0203
19138TIP3    H178829   4.216   1.173  15.218 -1.8222 -0.7064 -0.4917
19138TIP3    H278830   4.195   1.037  15.283 -0.5699 -0.9320 -0.5360
19139TIP3   OH278831   1.555   5.765  13.212  0.0755 -0.6015 -0.4483
19139TIP3    H178832   1.605   5.700  13.163 -0.8316 -0.6441 -1.3400
19139TIP3    H278833   1.589   5.759  13.302  0.2990 -1.9831 -0.6142
19140TIP3   OH278834   1.802   6.772   0.756 -0.3043 -0.3693  0.0466
19140TIP3    H178835   1.775   6.736   0.841 -0.0753  0.2663  0.3994
19140TIP3    H278836   1.823   6.864   0.775 -0.7034 -0.0944 -0.7924
19141TIP3   OH278837   1.951   1.137   0.310 -0.1467  0.4908  0.0359
19141TIP3    H178838   1.978   1.183   0.390  2.1181 -0.2502 -0.2175
19141TIP3    H278839   1.947   1.045   0.336  0.4070  0.2648 -0.6510
19142TIP3   OH278840   5.713   5.943   4.076  0.4047  0.1017 -0.2180
19142TIP3    H178841   5.800   5.952   4.037  0.3048  0.6459 -0.3106
19142TIP3    H278842   5.709   5.851   4.104  0.8612 -0.0263 -0.5637
19143TIP3   OH278843   5.338   1.338   6.356 -0.0413 -0.3646  0.6501
19143TIP3    H178844   5.348   1.432   6.376  2.2333  0.2640 -2.6930
19143TIP3    H278845   5.422   1.299   6.379  0.0778 -0.9600 -0.6887
19144TIP3   OH278846   4.170   0.520   0.026  0.0222 -0.0188  0.3867
19144TIP3    H178847   4.104   0.583  -0.003  0.6672  0.8916  0.8839
19144TIP3    H278848   4.253   0.554  -0.007  0.1391 -1.8614 -1.4197
19145TIP3   OH278849   0.948   6.289   3.365  0.1977  0.4261 -0.2585
19145TIP3    H178850   0.934   6.268   3.273  1.0168 -1.9161  0.0843
19145TIP3    H278851   1.030   6.245   3.388 -0.2580  0.5019  1.7122
19146TIP3   OH278852   4.329   4.856   5.579 -0.1144 -0.0908  0.2246
19146TIP3    H178853   4.267   4.911   5.626 -0.9522 -0.9015  0.0783
19146TIP3    H278854   4.288   4.770   5.574 -0.3006  0.0681 -2.3975
19147TIP3   OH278855   0.572   5.532  14.156  0.0801 -0.7939  0.4477
19147TIP3    H178856   0.601   5.621  14.172 -2.2573  0.5774 -2.0994
19147TIP3    H278857   0.608   5.510  14.070  0.4825 -2.3126  0.9607
19148TIP3   OH278858   3.661   2.674  12.288 -0.1556 -0.0208 -0.0611
19148TIP3    H178859   3.647   2.584  12.260  0.5082  0.2198 -1.2412
19148TIP3    H278860   3.581   2.698  12.334 -0.6357 -0.9686 -0.3816
19149TIP3   OH278861   3.648   4.184  13.168 -0.1401 -0.0045 -0.2621
19149TIP3    H178862   3.679   4.268  13.134 -1.9140  0.1461 -1.6809
19149TIP3    H278863   3.611   4.205  13.253  0.4330  0.4361 -0.1148
19150TIP3   OH278864   6.553   0.252   6.276  0.2011  0.0149 -0.1506
19150TIP3    H178865   6.629   0.262   6.219 -1.1391  1.5589 -1.8030
19150TIP3    H278866   6.488   0.207   6.222 -0.5334 -0.0252  0.7375
19151TIP3   OH278867   0.540   0.355  13.094 -0.4684 -0.9062  0.3247
19151TIP3    H178868   0.632   0.332  13.107 -0.2694 -0.2598  0.1046
19151TIP3    H278869   0.519   0.412  13.168  0.8538  3.3274 -2.2099
19152TIP3   OH278870   2.312   6.116   5.742  0.3388  0.5248 -0.5699
19152TIP3    H178871   2.386   6.110   5.803  0.2760  0.2948 -0.5155
19152TIP3    H278872   2.333   6.054   5.672 -0.4786 -0.6169  0.1698
19153TIP3   OH278873   3.946   2.941   4.414  0.6226  0.1831  0.1200
19153TIP3    H178874   3.984   2.946   4.327 -0.6440 -0.0724 -0.4618
19153TIP3    H278875   3.853   2.956   4.401  0.2843 -0.7203  1.3095
19154TIP3   OH278876   2.426   3.970  13.862  0.2874 -0.7806  0.2941
19154TIP3    H178877   2.443   4.044  13.920 -0.3939 -0.0303 -0.4443
19154TIP3    H278878   2.512   3.950  13.824  0.1654  0.8382 -0.9046
19155TIP3   OH278879   4.813   0.657  11.515  0.4416 -0.2856 -0.0087
19155TIP3    H178880   4.897   0.662  11.561  0.3035 -0.3837  0.2590
19155TIP3    H278881   4.790   0.748  11.496  0.9395 -0.2966 -0.6931
19156TIP3   OH278882   0.311   6.203   5.173  0.7116  0.0139  0.4178
19156TIP3    H178883   0.230   6.235   5.214  1.1190  1.5937  0.0677
19156TIP3    H278884   0.292   6.202   5.080  1.3219  1.2174  0.2526
19157TIP3   OH278885   1.747   2.883  13.357  0.3799 -0.4782 -0.1740
19157TIP3    H178886   1.777   2.970  13.331  1.1407 -0.1307  1.6782
19157TIP3    H278887   1.654   2.896  13.380  0.1293 -0.4632 -1.1668
19158TIP3   OH278888   4.740   1.946  16.299  0.0077  0.2931 -0.2512
19158TIP3    H178889   4.690   1.892  16.238 -1.1710  3.2491 -2.0983
19158TIP3    H278890   4.753   1.890  16.375 -4.4697 -1.3283 -0.4238
19159TIP3   OH278891   4.849   4.455   1.229 -0.5229 -0.8838 -0.5277
19159TIP3    H178892   4.887   4.374   1.194 -0.6252 -0.3538 -1.9252
19159TIP3    H278893   4.893   4.525   1.180 -2.1987 -0.1934 -1.1112
19160TIP3   OH278894   2.068   6.084  14.452  0.1541  0.6636  0.5378
19160TIP3    H178895   2.027   6.170  14.446  0.5204  0.8662  0.8331
19160TIP3    H278896   2.023   6.031  14.387 -0.7287  0.8066  1.0188
19161TIP3   OH278897   2.776   2.709   3.963  0.1025 -0.3481 -0.0597
19161TIP3    H178898   2.819   2.625   3.952 -0.5234 -0.3836 -3.1703
19161TIP3    H278899   2.845   2.774   3.944  0.2285 -0.1541  0.9627
19162TIP3   OH278900   2.152   2.920  11.227 -0.4113  0.0562  0.1706
19162TIP3    H178901   2.224   2.860  11.245  1.9291  3.2069  2.3673
19162TIP3    H278902   2.130   2.905  11.135  1.4714 -2.5797  0.0463
19163TIP3   OH278903   2.629   6.249  16.298  0.3165  0.2749  0.3087
19163TIP3    H178904   2.679   6.260  16.379  1.5094 -0.4650 -0.2941
19163TIP3    H278905   2.695   6.230  16.232 -0.8702 -3.7614 -0.0100
19164TIP3   OH278906   4.378   2.435  12.411  0.1906 -0.5958 -0.5757
19164TIP3    H178907   4.442   2.470  12.349 -1.1708  1.7099 -0.8211
19164TIP3    H278908   4.431   2.394  12.479  1.9570  1.1285 -0.8079
19165TIP3   OH278909   2.488   3.591  12.883 -0.0438  0.1600  0.3270
19165TIP3    H178910   2.541   3.552  12.953  0.7255  1.2986  0.3991
19165TIP3    H278911   2.465   3.517  12.826  0.4322 -0.5693  1.0562
19166TIP3   OH278912   1.404   0.341  15.990 -0.5014 -0.0811  0.1382
19166TIP3    H178913   1.482   0.324  15.936  1.1130 -1.2553  2.6752
19166TIP3    H278914   1.425   0.304  16.075 -3.3582  0.7820  1.3317
19167TIP3   OH278915   1.565   4.943   4.165 -0.4071  0.4889 -0.1524
19167TIP3    H178916   1.628   5.013   4.149  0.1545 -0.0118 -0.1574
19167TIP3    H278917   1.617   4.870   4.197 -1.4120  1.2986  3.8347
19168TIP3   OH278918   4.257   5.764  12.965 -0.0220  0.1459  0.3149
19168TIP3    H178919   4.310   5.737  12.890 -0.6322 -0.7576  0.1959
19168TIP3    H278920   4.215   5.844  12.937  0.6258  0.4237  0.1087
19169TIP3   OH278921   2.381   1.564  13.257 -0.7135 -0.2397 -0.1264
19169TIP3    H178922   2.318   1.513  13.207 -0.5949 -0.6740  0.1639
19169TIP3    H278923   2.365   1.655  13.230 -1.1715 -0.3898 -0.3703
19170TIP3   OH278924   0.202   3.044   4.807  0.1902 -0.0979  1.2443
19170TIP3    H178925   0.262   3.037   4.732  0.2684 -0.6269  1.3527
19170TIP3    H278926   0.125   2.994   4.781  0.5469 -0.9800  1.8350
19171TIP3   OH278927   5.107   1.790   4.659 -0.3857  0.7013  0.0013
19171TIP3    H178928   5.118   1.785   4.754  1.6248  1.3248 -0.1562
19171TIP3    H278929   5.054   1.713   4.637  1.2740 -0.9363  1.3595
19172TIP3   OH278930   0.877   3.663  16.832  0.2799 -0.3640  0.2343
19172TIP3    H178931   0.842   3.621  16.753  0.4177 -0.0228 -0.0126
19172TIP3    H278932   0.949   3.717  16.799 -0.7059  1.0781  0.3659
19173TIP3   OH278933   1.291   1.122  13.215  1.3561 -0.1272  0.2361
19173TIP3    H178934   1.282   1.028  13.233 -0.7273  0.3047  1.8260
19173TIP3    H278935   1.335   1.126  13.131  1.0835 -2.5568 -0.0913
19174TIP3   OH278936   0.023   4.786  15.133 -0.2464  0.1923  0.5078
19174TIP3    H178937   0.078   4.859  15.105 -1.7267  1.2209  0.2013
19174TIP3    H278938   0.012   4.733  15.054  2.0614 -1.2592  1.0624
19175TIP3   OH278939   6.740   5.859   1.495  0.0106 -0.1056  0.0626
19175TIP3    H178940   6.733   5.855   1.590 -1.3074 -0.1912 -0.0117
19175TIP3    H278941   6.767   5.771   1.469  1.1905  0.1441  0.3974
19176TIP3   OH278942   1.456   5.754  15.393 -0.0537 -0.0651 -0.1459
19176TIP3    H178943   1.548   5.779  15.384  0.8532 -2.9675  0.0037
19176TIP3    H278944   1.427   5.799  15.473  1.5589  0.0928  0.3943
19177TIP3   OH278945   1.095   4.545   5.356  0.0499  0.6835 -0.8111
19177TIP3    H178946   1.034   4.509   5.421  1.2534 -0.4461 -0.2618
19177TIP3    H278947   1.048   4.619   5.318 -2.4126 -1.1606 -1.6780
19178TIP3   OH278948   1.410   1.071   1.751  0.0623  0.1291  0.3462
19178TIP3    H178949   1.322   1.051   1.718  0.8030 -0.8296 -1.1786
19178TIP3    H278950   1.408   1.166   1.765 -0.7401  0.4110 -1.2866
19179TIP3   OH278951   3.871   1.385  13.907  0.0737  0.2840 -0.0431
19179TIP3    H178952   3.866   1.302  13.954 -3.8503 -0.3780 -1.2342
19179TIP3    H278953   3.929   1.367  13.832  1.1690 -0.5804  0.9681
19180TIP3   OH278954   2.580   1.973  16.765  0.0847 -0.1057 -0.0919
19180TIP3    H178955   2.617   1.979  16.853 -0.2668  1.1462 -0.0054
19180TIP3    H278956   2.558   2.064  16.742  0.8754 -0.3102 -1.7859
19181TIP3   OH278957   0.281   6.791   2.630  0.2616  0.1016 -0.0904
19181TIP3    H178958   0.217   6.862   2.631 -0.6527 -0.6615 -1.2152
19181TIP3    H278959   0.229   6.711   2.639  1.1096 -0.4981 -0.3630
19182TIP3   OH278960   6.447   0.157   2.555  0.1675 -0.4044 -0.2990
19182TIP3    H178961   6.484   0.225   2.499 -0.2869  2.3838  2.4601
19182TIP3    H278962   6.362   0.192   2.582 -1.2124 -3.2397 -0.6337
19183TIP3   OH278963   2.681   2.065  14.167  0.5615 -0.0623  0.2990
19183TIP3    H178964   2.694   2.159  14.160 -0.4168 -0.0026 -1.0552
19183TIP3    H278965   2.688   2.033  14.077  1.1517 -1.3267  0.7755
19184TIP3   OH278966   5.569   0.941  16.901  0.8042  0.5172 -0.3049
19184TIP3    H178967   5.558   1.016  16.960 -0.9100  1.4209 -1.6760
19184TIP3    H278968   5.480   0.910  16.884  1.2001  0.3697 -2.4739
19185TIP3   OH278969   1.548   0.496   3.147 -0.0922 -0.5010  0.1229
19185TIP3    H178970   1.542   0.495   3.243  1.2769  1.5447  0.2961
19185TIP3    H278971   1.594   0.415   3.125  1.2270 -0.1249  1.3772
19186TIP3   OH278972   4.863   4.897  14.009 -0.0296 -0.1141 -0.0155
19186TIP3    H178973   4.885   4.810  14.044 -1.6137 -0.0857  1.1532
19186TIP3    H278974   4.909   4.901  13.925  1.3466 -1.4477  0.6202
19187TIP3   OH278975   4.451   4.548  13.463 -0.7795  0.4020 -0.2649
19187TIP3    H178976   4.439   4.599  13.543  0.7453  1.5513 -0.7364
19187TIP3    H278977   4.472   4.613  13.395 -0.4309 -0.6950 -1.2416
19188TIP3   OH278978   4.179   0.686  15.306 -0.0374 -0.3814  0.4206
19188TIP3    H178979   4.134   0.626  15.246  0.4515  0.6346 -1.0246
19188TIP3    H278980   4.249   0.724  15.253  0.7981  0.1228  1.8363
19189TIP3   OH278981   0.823   6.373  17.146 -0.8354  0.0247 -0.7593
19189TIP3    H178982   0.860   6.313  17.211  0.0775  1.0604 -0.2888
19189TIP3    H278983   0.732   6.385  17.174 -0.6783 -0.1793 -0.1390
19190TIP3   OH278984   4.271   0.734  11.165 -0.0359  0.3379  0.6605
19190TIP3    H178985   4.196   0.716  11.108 -0.2653  2.7323  0.1215
19190TIP3    H278986   4.233   0.740  11.253  0.0571 -1.5951  0.8807
19191TIP3   OH278987   0.138   6.626  13.783 -0.0333  0.6895 -0.0568
19191TIP3    H178988   0.138   6.588  13.871 -1.9717 -2.7976 -1.4018
19191TIP3    H278989   0.047   6.648  13.766  0.0781  0.0546 -1.6361
19192TIP3   OH278990   4.695   2.423   4.040 -0.8798 -0.1805  0.0264
19192TIP3    H178991   4.665   2.429   3.950  0.8119 -0.1344 -0.5719
19192TIP3    H278992   4.788   2.443   4.036 -1.1238  1.7397  2.0485
19193TIP3   OH278993   4.258   3.466   3.922  0.1978  0.5382 -0.4595
19193TIP3    H178994   4.241   3.372   3.914  0.0703  0.5027  0.1818
19193TIP3    H278995   4.353   3.473   3.912  0.8150 -0.1645  3.5345
19194TIP3   OH278996   5.659   2.861   2.602 -0.3035  0.1044  0.4786
19194TIP3    H178997   5.668   2.896   2.514 -2.1844 -1.9092 -0.6402
19194TIP3    H278998   5.747   2.863   2.639  1.5141 -2.8529 -3.0790
19195TIP3   OH278999   5.571   0.100   0.031  0.3367 -0.0827  0.4510
19195TIP3    H179000   5.567   0.073   0.122 -0.0129  1.2974  0.8727
19195TIP3    H279001   5.515   0.178   0.027 -1.4302 -1.3375 -1.3983
19196TIP3   OH279002   3.956   5.395  10.446 -0.7847 -0.6073  0.5530
19196TIP3    H179003   3.995   5.453  10.512  2.0951 -0.8726 -0.7719
19196TIP3    H279004   3.953   5.310  10.489 -2.0009 -0.1793  1.3894
19197TIP3   OH279005   2.947   5.899  12.866 -0.6621 -0.0848 -0.1708
19197TIP3    H179006   2.936   5.935  12.778  2.1400 -0.7466 -0.8900
19197TIP3    H279007   2.940   5.804  12.854  0.1622 -0.2071  0.2083
19198TIP3   OH279008   4.142   3.955  11.636  0.0033  0.6029  0.2220
19198TIP3    H179009   4.198   3.895  11.686 -0.9944 -1.0051 -0.4994
19198TIP3    H279010   4.053   3.936  11.668 -0.4051  1.1486 -0.5766
19199TIP3   OH279011   1.649   2.192  11.252  0.0863  0.1059 -0.2198
19199TIP3    H179012   1.708   2.143  11.196  1.2516  1.1427  0.0489
19199TIP3    H279013   1.585   2.128  11.283  1.4643 -1.1946  0.0050
19200TIP3   OH279014   4.770   2.057  13.436  0.3105  0.4171 -0.1604
19200TIP3    H179015   4.718   2.055  13.517 -0.5068  0.2097 -0.6712
19200TIP3    H279016   4.852   2.098  13.461 -0.4138  1.5250  0.4978
19201TIP3   OH279017   3.564   4.850  11.314  0.3964 -0.3247  0.0514
19201TIP3    H179018   3.658   4.852  11.298  0.2565 -0.3900 -0.8865
19201TIP3    H279019   3.530   4.788  11.249 -0.1467 -1.3356  1.2590
19202TIP3   OH279020   2.538   5.720   2.431  0.3323  0.0796 -0.0297
19202TIP3    H179021   2.556   5.691   2.342  1.1157  0.9471 -0.1582
19202TIP3    H279022   2.445   5.700   2.444  0.2225 -0.0925 -1.0167
19203TIP3   OH279023   6.586   6.699   2.549 -0.2234  0.5227 -0.4267
19203TIP3    H179024   6.587   6.792   2.526 -0.0399  0.1477 -2.1302
19203TIP3    H279025   6.640   6.658   2.481 -0.9420 -0.9235 -0.1602
19204TIP3   OH279026   2.440   4.599  16.526 -0.0468  0.5438  0.1517
19204TIP3    H179027   2.514   4.657  16.537  0.3191 -0.1779  1.8221
19204TIP3    H279028   2.365   4.647  16.562 -0.2391  0.9407 -0.7604
19205TIP3   OH279029   4.097   1.409  13.711 -0.1581 -0.1782  0.3093
19205TIP3    H179030   4.141   1.427  13.794 -0.0271 -0.8901  0.3952
19205TIP3    H279031   4.152   1.452  13.645 -0.3631  0.5456  0.6000
19206TIP3   OH279032   6.512   6.470   6.484  0.5796  0.8300  0.1155
19206TIP3    H179033   6.606   6.489   6.488  0.5210  1.4771 -1.0392
19206TIP3    H279034   6.504   6.380   6.516  2.0773 -0.5376 -2.9244
19207TIP3   OH279035   5.920   5.336  14.982  0.0485  0.5433  1.0736
19207TIP3    H179036   5.920   5.261  15.042  0.0374 -0.3372  0.0059
19207TIP3    H279037   5.835   5.332  14.938  1.0667 -0.4554 -0.9321
19208TIP3   OH279038   4.927   2.205   0.621  0.0913  0.3237 -0.0713
19208TIP3    H179039   4.910   2.253   0.540 -1.2338 -1.0078 -0.6353
19208TIP3    H279040   5.009   2.242   0.653 -0.7626  2.8266 -0.5155
19209TIP3   OH279041   0.472   3.687   4.233  0.0280 -1.0538 -0.1194
19209TIP3    H179042   0.471   3.777   4.266  1.7643 -1.5467  1.4516
19209TIP3    H279043   0.380   3.662   4.230 -0.3892  0.0758  1.5204
19210TIP3   OH279044   0.076   4.207   1.147 -0.0173 -0.0518 -0.1785
19210TIP3    H179045  -0.019   4.220   1.149 -0.0548  0.2288 -1.9897
19210TIP3    H279046   0.098   4.203   1.054  1.7722 -0.0139  0.1981
19211TIP3   OH279047   5.646   5.440   1.311  0.4473 -0.6329 -0.2522
19211TIP3    H179048   5.635   5.388   1.231 -0.1747  0.3090 -0.8040
19211TIP3    H279049   5.607   5.524   1.290  0.3990 -0.3181  1.0127
19212TIP3   OH279050   4.322   0.451   1.294  0.3565 -0.2410 -0.1184
19212TIP3    H179051   4.363   0.464   1.379  1.1815  0.8498 -0.6666
19212TIP3    H279052   4.280   0.365   1.301  0.3571 -0.1424  1.3967
19213TIP3   OH279053   2.123   5.348  14.323 -0.0832  0.3261  0.0031
19213TIP3    H179054   2.182   5.276  14.302 -0.6495  0.2062 -1.2978
19213TIP3    H279055   2.067   5.314  14.392 -0.0196 -0.3189 -0.2568
19214TIP3   OH279056   1.385   4.831   1.524  0.0438 -0.5400 -0.0950
19214TIP3    H179057   1.480   4.826   1.509 -0.0693 -0.1140 -1.0916
19214TIP3    H279058   1.375   4.905   1.584  0.3919 -1.0300  0.5713
19215TIP3   OH279059   3.994   4.675   6.267  0.1206 -0.1018  0.3914
19215TIP3    H179060   4.024   4.765   6.251  2.9393 -0.6970  1.5792
19215TIP3    H279061   4.067   4.621   6.237 -1.1601 -1.9648  0.5168
19216TIP3   OH279062   5.323   1.489  13.149 -0.1215  0.0970  0.4562
19216TIP3    H179063   5.301   1.572  13.191 -0.5768  1.5980 -2.4855
19216TIP3    H279064   5.418   1.481  13.162  0.4722  2.5852 -1.4462
19217TIP3   OH279065   3.272   0.850  13.968 -0.4573  0.0582  0.0380
19217TIP3    H179066   3.270   0.946  13.972  1.9120  0.1401  1.0600
19217TIP3    H279067   3.208   0.822  14.033 -0.7075  0.9487  0.1972
19218TIP3   OH279068   4.887   3.830  10.562 -0.4148 -0.1186  0.1260
19218TIP3    H179069   4.978   3.819  10.536 -1.0112 -0.6448 -1.9144
19218TIP3    H279070   4.859   3.910  10.520 -1.0723 -0.2869  0.2311
19219TIP3   OH279071   5.941   3.816   1.096  0.0454  0.1520  0.1755
19219TIP3    H179072   5.984   3.901   1.090  2.0137 -0.7415  0.6649
19219TIP3    H279073   5.888   3.810   1.017 -0.0383  1.7569  0.0687
19220TIP3   OH279074   6.015   3.555  16.249  0.0292 -0.7335  0.2212
19220TIP3    H179075   6.024   3.648  16.267  2.2360 -0.5407 -1.4778
19220TIP3    H279076   5.976   3.551  16.162 -0.9142 -1.4426  0.6580
19221TIP3   OH279077   3.181   0.421   1.229  0.0005 -0.1592 -0.3782
19221TIP3    H179078   3.086   0.417   1.220  0.0461  0.1559 -1.1004
19221TIP3    H279079   3.207   0.332   1.252 -0.4511 -0.2980 -0.3999
19222TIP3   OH279080   3.012   1.116  11.596  0.3352 -0.3721  0.3718
19222TIP3    H179081   2.958   1.193  11.582  0.1081 -0.8481 -1.7849
19222TIP3    H279082   3.091   1.148  11.638  0.5222  1.1863 -1.0598
19223TIP3   OH279083   2.534   0.484   4.760 -0.2655 -0.1144  0.1902
19223TIP3    H179084   2.440   0.487   4.742  0.0947  1.1272 -1.9274
19223TIP3    H279085   2.563   0.401   4.724 -0.1761  0.7058 -1.7703
19224TIP3   OH279086   5.501   1.903   0.899  0.0626  0.2659  0.0609
19224TIP3    H179087   5.522   1.922   0.990 -1.3420  0.9464  0.2594
19224TIP3    H279088   5.518   1.809   0.890  1.0669  0.3644  0.7654
19225TIP3   OH279089   0.436   0.824   1.666  0.3942  0.8818  0.3432
19225TIP3    H179090   0.366   0.812   1.602 -0.5627  3.1906  0.8414
19225TIP3    H279091   0.394   0.807   1.751  0.7036  1.2349  0.5731
19226TIP3   OH279092   2.457   3.719  14.683  0.3302 -0.2461 -0.2142
19226TIP3    H179093   2.409   3.748  14.761 -1.1539 -2.2663 -0.3076
19226TIP3    H279094   2.533   3.777  14.679 -0.2469  0.7671  1.9740
19227TIP3   OH279095   3.317   4.792  14.367 -0.2472 -0.0560  0.6227
19227TIP3    H179096   3.262   4.723  14.404 -0.6186 -0.6386 -0.9491
19227TIP3    H279097   3.400   4.748  14.347 -0.2160  0.1388  0.3179
19228TIP3   OH279098   1.175   2.687  14.298 -1.1673  0.0524  0.3380
19228TIP3    H179099   1.108   2.632  14.339 -0.7898 -0.9365 -0.3553
19228TIP3    H279100   1.144   2.701  14.209 -1.0899  0.6815  0.4081
19229TIP3   OH279101   3.591   5.982   1.361  0.9556 -0.3252 -0.0886
19229TIP3    H179102   3.591   5.961   1.455  0.6077 -2.5000 -0.5238
19229TIP3    H279103   3.579   5.897   1.318  2.8388  0.3801 -2.1593
19230TIP3   OH279104   0.596   3.491   6.097  0.2416  0.1096 -0.3923
19230TIP3    H179105   0.525   3.500   6.161 -0.0619 -0.6877 -0.6029
19230TIP3    H279106   0.669   3.538   6.136 -0.5556  1.4222 -0.4170
19231TIP3   OH279107   1.133   1.990   4.047  0.0132  0.1846 -0.2746
19231TIP3    H179108   1.148   1.966   4.139  0.7503  0.0450 -0.4221
19231TIP3    H279109   1.183   1.925   3.998 -1.6731 -0.7442 -0.8545
19232TIP3   OH279110   5.867   5.544  12.646 -0.4400 -0.6117  0.4119
19232TIP3    H179111   5.895   5.633  12.668  0.2107 -0.8812  0.6876
19232TIP3    H279112   5.925   5.487  12.696  0.3161 -1.2194 -1.0922
19233TIP3   OH279113   5.367   2.785   3.847  0.2296  0.3006  0.4288
19233TIP3    H179114   5.444   2.841   3.846 -0.9576  2.1918 -3.1198
19233TIP3    H279115   5.399   2.699   3.819  1.1815  0.8558 -0.2320
19234TIP3   OH279116   6.056   4.989   2.613  0.2289 -0.1316 -0.2036
19234TIP3    H179117   6.008   5.067   2.642  1.3695  0.6825 -0.4076
19234TIP3    H279118   6.144   5.002   2.648  0.5779 -1.0732 -0.7172
19235TIP3   OH279119   5.034   5.574   0.509  0.5984 -0.4198  0.1152
19235TIP3    H179120   5.015   5.661   0.544  0.7065  0.4307 -1.8290
19235TIP3    H279121   4.947   5.533   0.500  0.4857 -0.2254  0.3054
19236TIP3   OH279122   5.768   4.638  13.784  0.3328  0.2722 -0.4444
19236TIP3    H179123   5.768   4.717  13.730  2.1611  0.2125 -0.5935
19236TIP3    H279124   5.787   4.669  13.872 -1.3481  0.2190 -0.0125
19237TIP3   OH279125   1.811   3.858   5.287 -0.2077 -0.7102 -0.9496
19237TIP3    H179126   1.746   3.825   5.224 -0.4405 -2.2459  0.0233
19237TIP3    H279127   1.871   3.784   5.300  1.2474  0.3837 -1.1484
19238TIP3   OH279128   0.640   5.613  12.329  0.0121  0.1181  0.3567
19238TIP3    H179129   0.691   5.640  12.253 -1.6592  0.1195 -0.8215
19238TIP3    H279130   0.677   5.528  12.354  0.6475  0.1569 -0.4032
19239TIP3   OH279131   1.975   0.995  15.294  0.5410  0.2510 -0.7541
19239TIP3    H179132   1.964   0.928  15.227 -2.1150 -1.4916  1.1836
19239TIP3    H279133   1.889   1.035  15.302  0.7479  0.3736  1.5452
19240TIP3   OH279134   5.644   5.001  16.936  0.3989  0.3479 -0.0276
19240TIP3    H179135   5.633   5.069  17.003  1.1067 -0.5968  1.0782
19240TIP3    H279136   5.711   4.943  16.971 -0.6938 -1.3444 -0.6299
19241TIP3   OH279137   0.086   1.583   3.269  0.0805 -0.1634  0.1674
19241TIP3    H179138   0.012   1.617   3.319  0.9879  1.6664  0.3688
19241TIP3    H279139   0.047   1.522   3.206 -1.7578  1.6633 -0.5691
19242TIP3   OH279140   6.299   4.238  12.294 -0.3424  0.5127 -0.1739
19242TIP3    H179141   6.364   4.175  12.325 -0.9147  1.1474  2.5890
19242TIP3    H279142   6.216   4.203  12.326 -0.7730  2.1304  0.5389
19243TIP3   OH279143   1.590   2.734  16.774 -0.3017  0.0575  0.5138
19243TIP3    H179144   1.528   2.795  16.813  0.0545  1.6340 -1.3046
19243TIP3    H279145   1.574   2.738  16.680  1.5881 -0.5711  0.1116
19244TIP3   OH279146   5.294   3.169   5.543 -0.2524 -0.3151  1.0105
19244TIP3    H179147   5.379   3.199   5.512 -0.4151 -0.4856  0.3785
19244TIP3    H279148   5.302   3.168   5.638  0.1418  0.5766  0.9959
19245TIP3   OH279149   1.170   6.657   1.348 -0.3269 -0.1954 -0.0691
19245TIP3    H179150   1.137   6.716   1.417  0.8004  0.5124 -0.1131
19245TIP3    H279151   1.201   6.580   1.396 -0.7899 -0.2881  0.0893
19246TIP3   OH279152   2.727   4.295  13.447  0.3126  1.2408 -0.1181
19246TIP3    H179153   2.673   4.290  13.526  1.1838  0.1594  0.4373
19246TIP3    H279154   2.669   4.267  13.376  0.6786 -2.2401  0.7807
19247TIP3   OH279155   1.072   6.304  16.492  0.5070 -0.4678 -0.0178
19247TIP3    H179156   1.102   6.333  16.578 -0.8711 -0.3730  0.4500
19247TIP3    H279157   1.037   6.216  16.508 -0.8536  0.0219 -0.2331
19248TIP3   OH279158   6.251   6.553   3.852  0.1656  0.1943 -0.1402
19248TIP3    H179159   6.197   6.478   3.877  0.5728 -0.7315 -1.8984
19248TIP3    H279160   6.337   6.515   3.832 -0.0123  0.8784 -2.4699
19249TIP3   OH279161   0.276   1.233  10.669  0.0279 -0.3139  0.3700
19249TIP3    H179162   0.286   1.323  10.640  1.2959  0.0736  1.8408
19249TIP3    H279163   0.353   1.188  10.635 -0.2186 -0.6637  0.2677
19250TIP3   OH279164   3.510   0.901   0.605  0.6656 -0.0382 -0.0081
19250TIP3    H179165   3.462   0.869   0.528 -0.0774 -0.7739  0.7470
19250TIP3    H279166   3.522   0.823   0.660 -0.4596  0.7982  1.4889
19251TIP3   OH279167   0.901   6.793   3.992  0.0168 -0.3920  0.1667
19251TIP3    H179168   0.871   6.705   4.011 -0.7681 -0.2722 -0.4714
19251TIP3    H279169   0.995   6.784   3.975  0.0845 -0.9791  0.8401
19252TIP3   OH279170   6.694   0.533  16.525  0.0266  0.1696  0.8265
19252TIP3    H179171   6.763   0.598  16.508 -0.5809  0.7662  0.5953
19252TIP3    H279172   6.711   0.463  16.462  0.4442  0.2960  0.7951
19253TIP3   OH279173   3.527   4.245   4.183 -0.2920 -0.2292 -0.2359
19253TIP3    H179174   3.619   4.228   4.205 -0.3830 -0.8274 -0.2996
19253TIP3    H279175   3.501   4.316   4.241 -0.2493 -1.1148  0.8925
19254TIP3   OH279176   4.355   5.068  15.637 -0.2292  0.1238  0.4132
19254TIP3    H179177   4.304   5.022  15.704 -0.0734 -1.4142 -0.4912
19254TIP3    H279178   4.438   5.087  15.680 -0.7077  0.5972  1.1588
19255TIP3   OH279179   6.604   4.293   1.160 -0.1067 -0.1565 -0.4511
19255TIP3    H179180   6.543   4.247   1.102  0.5657 -1.1449 -0.4027
19255TIP3    H279181   6.566   4.285   1.247 -0.2914 -0.1145 -0.5288
19256TIP3   OH279182   1.240   5.935  14.738  0.1197  0.2707 -0.0162
19256TIP3    H179183   1.148   5.947  14.712 -0.2451 -0.5150  0.8296
19256TIP3    H279184   1.272   6.023  14.756 -1.6876  0.3750  3.5559
19257TIP3   OH279185   0.331   5.152   2.204 -0.3541  0.6270 -0.3052
19257TIP3    H179186   0.366   5.062   2.207  3.4463  1.9179 -0.4419
19257TIP3    H279187   0.317   5.169   2.112 -0.1884  0.4622 -0.3637
19258TIP3   OH279188   4.470   1.880   0.232 -0.5429  0.2092 -0.5955
19258TIP3    H179189   4.564   1.861   0.220 -0.8267 -1.0696 -0.9875
19258TIP3    H279190   4.426   1.805   0.192 -1.7267  0.3455  0.4099
19259TIP3   OH279191   6.305   3.195  15.878 -0.4323  0.3796  0.6120
19259TIP3    H179192   6.378   3.212  15.937  0.8178 -1.0786 -0.4236
19259TIP3    H279193   6.252   3.129  15.923  0.9045 -1.2611 -0.1283
19260TIP3   OH279194   0.155   6.511  12.462  0.6567 -0.3332  0.2966
19260TIP3    H179195   0.200   6.485  12.382 -1.4565 -3.3309 -0.1013
19260TIP3    H279196   0.091   6.576  12.434  1.9814  0.9743  0.1844
19261TIP3   OH279197   3.855   4.062   1.804 -0.0422  0.6774 -0.1475
19261TIP3    H179198   3.882   3.973   1.782 -1.4894  0.2173 -0.1604
19261TIP3    H279199   3.870   4.069   1.898 -0.9385  0.0368  0.0524
19262TIP3   OH279200   1.775   5.594  11.491 -0.3272  0.0443  0.4918
19262TIP3    H179201   1.758   5.500  11.492  1.3527 -0.3923 -1.8135
19262TIP3    H279202   1.869   5.601  11.508  0.0094  1.0845 -1.4835
19263TIP3   OH279203   2.012   0.100   0.929 -0.0784 -0.1662  0.4146
19263TIP3    H179204   1.930   0.149   0.917  1.0536  1.7146  0.0550
19263TIP3    H279205   2.081   0.161   0.902  1.4029 -2.0608 -0.2925
19264TIP3   OH279206   1.979   2.831   0.961 -0.1564  0.1675 -0.3471
19264TIP3    H179207   2.057   2.885   0.976 -0.9431  1.1052  0.4738
19264TIP3    H279208   2.013   2.742   0.955  0.9688  0.5376  0.1507
19265TIP3   OH279209   4.383   1.146  16.677 -0.2989 -0.5307  0.2957
19265TIP3    H179210   4.431   1.200  16.615  0.0525 -1.0813  0.0856
19265TIP3    H279211   4.387   1.057  16.641  1.0575 -1.1065  1.7457
19266TIP3   OH279212   0.130   2.524  14.447  0.8315 -0.3306 -0.0480
19266TIP3    H179213   0.197   2.590  14.463  0.9695 -0.7177  1.0088
19266TIP3    H279214   0.115   2.483  14.532 -0.4603 -0.5288 -0.3463
19267TIP3   OH279215   1.297   2.966   4.256 -0.3491  0.3470  0.2860
19267TIP3    H179216   1.283   2.873   4.238 -1.4273  0.3421  1.0692
19267TIP3    H279217   1.360   2.967   4.327  0.8822  0.2758 -0.7643
19268TIP3   OH279218   0.252   3.465   5.859  0.1909  0.8563  0.1204
19268TIP3    H179219   0.250   3.385   5.807 -0.0314  1.1682 -0.3614
19268TIP3    H279220   0.185   3.452   5.926  0.1447  0.6467  0.0349
19269TIP3   OH279221   1.807   2.959  12.843  0.5868 -0.7423  0.8792
19269TIP3    H179222   1.818   2.921  12.930  1.4012  0.2105  1.2046
19269TIP3    H279223   1.893   2.997  12.822  0.2326 -0.4496 -0.0949
19270TIP3   OH279224   3.240   4.602   4.390  0.3456  0.0761 -0.7433
19270TIP3    H179225   3.146   4.586   4.401  0.4716 -0.8622 -0.9320
19270TIP3    H279226   3.252   4.606   4.295  0.7788 -1.7179 -0.7886
19271TIP3   OH279227   4.949   4.456   0.839  0.1031  0.1075 -0.2837
19271TIP3    H179228   4.895   4.533   0.856  0.4362 -0.1396  2.1603
19271TIP3    H279229   4.903   4.384   0.881  1.2915 -0.4778  0.0595
19272TIP3   OH279230   0.234   6.503   5.590  0.3312 -0.3441  0.1161
19272TIP3    H179231   0.202   6.588   5.619 -1.1327 -0.5660 -0.7086
19272TIP3    H279232   0.190   6.440   5.646  0.7211 -0.5986  0.1426
19273TIP3   OH279233   0.435   5.915   3.144 -0.0474  0.0031 -0.5135
19273TIP3    H179234   0.491   5.959   3.209  0.5859  0.5729 -1.4254
19273TIP3    H279235   0.365   5.977   3.127 -0.9833 -0.7044  0.6161
19274TIP3   OH279236   1.985   5.594   3.835  0.4590 -0.2598  0.2659
19274TIP3    H179237   1.979   5.581   3.740  0.9976  0.3142  0.1441
19274TIP3    H279238   2.035   5.518   3.866 -0.9261 -1.2007  0.3053
19275TIP3   OH279239   6.567   4.581   1.093 -0.3490 -0.2379 -0.2717
19275TIP3    H179240   6.536   4.494   1.069  0.5239 -0.4249 -0.7628
19275TIP3    H279241   6.659   4.569   1.117  0.1615  0.7373 -1.6161
19276TIP3   OH279242   6.577   0.296   1.813  0.3651 -0.0124  0.0931
19276TIP3    H179243   6.492   0.303   1.769 -0.3411 -0.9860  1.2355
19276TIP3    H279244   6.601   0.204   1.804  1.0575  0.1488  0.2292
19277TIP3   OH279245   1.358   0.315   5.045 -1.0490  0.1333 -0.5010
19277TIP3    H179246   1.300   0.256   5.094 -0.9217 -0.3251 -0.8926
19277TIP3    H279247   1.302   0.352   4.977 -0.9805 -0.0167 -0.6411
19278TIP3   OH279248   0.968   5.877  13.290 -0.3481 -0.6795  0.2922
19278TIP3    H179249   0.908   5.874  13.216  0.4035 -0.7327 -0.3238
19278TIP3    H279250   1.044   5.826  13.262  0.8986  1.1414  0.2204
19279TIP3   OH279251   2.573   2.914  13.939 -0.0150  0.1510  0.0866
19279TIP3    H179252   2.513   2.967  13.991 -0.4143  0.8809 -1.0615
19279TIP3    H279253   2.572   2.956  13.852 -0.1400 -1.5737 -0.7935
19280TIP3   OH279254   5.157   5.126   4.288 -0.2935 -0.3115  0.4338
19280TIP3    H179255   5.216   5.185   4.241 -0.3738 -1.1692 -0.7904
19280TIP3    H279256   5.184   5.132   4.380  1.5698 -0.5181 -0.0713
19281TIP3   OH279257   6.135   5.844   6.372 -0.2551 -0.0122  0.0225
19281TIP3    H179258   6.098   5.795   6.445 -0.7307 -0.3824 -0.4524
19281TIP3    H279259   6.202   5.900   6.411 -1.4232  0.8034  0.9550
19282TIP3   OH279260   3.265   4.030  16.430 -0.3456 -0.1493 -0.2526
19282TIP3    H179261   3.259   4.119  16.465  2.4605 -0.4736  1.3407
19282TIP3    H279262   3.250   4.041  16.336 -0.7160  1.9165 -0.0032
19283TIP3   OH279263   3.645   2.077   0.297 -0.5085  0.4075 -0.1391
19283TIP3    H179264   3.589   2.001   0.315  0.3923  0.1243  1.6922
19283TIP3    H279265   3.631   2.135   0.372  1.4348  0.4423  0.2288
19284TIP3   OH279266   5.299   0.808   0.055 -0.2826  0.4381 -0.3322
19284TIP3    H179267   5.279   0.783   0.145 -1.5416 -1.7451 -1.1266
19284TIP3    H279268   5.362   0.879   0.062  0.5031 -0.4311  2.2566
19285TIP3   OH279269   1.087   4.158   4.906  0.3301 -0.5225  1.3286
19285TIP3    H179270   1.062   4.248   4.927 -1.8630 -0.1503 -2.0141
19285TIP3    H279271   1.157   4.167   4.842  1.1069 -1.2588  2.0619
19286TIP3   OH279272   4.578   1.494   2.813 -0.0426  0.3054  0.4548
19286TIP3    H179273   4.560   1.403   2.835 -0.6578  0.7901  2.0827
19286TIP3    H279274   4.667   1.509   2.845 -0.8697  0.9580  2.5898
19287TIP3   OH279275   3.034   5.159   2.134  0.3568  0.3648  0.9880
19287TIP3    H179276   3.031   5.066   2.115 -0.8149  0.3457  1.1981
19287TIP3    H279277   2.998   5.167   2.222  1.3289  0.9270  1.3508
19288TIP3   OH279278   6.297   3.648  14.322 -0.1404  0.2996 -0.2530
19288TIP3    H179279   6.236   3.576  14.327  1.8516 -1.4812 -0.0573
19288TIP3    H279280   6.246   3.726  14.344 -2.2040 -1.1193  0.1705
19289TIP3   OH279281   2.117   0.716  13.219 -0.1183  0.1320 -0.5335
19289TIP3    H179282   2.189   0.688  13.276 -0.7615 -0.3955  0.0300
19289TIP3    H279283   2.083   0.795  13.261 -0.3758 -0.0676 -0.3628
19290TIP3   OH279284   3.333   0.637   1.011  0.2951  0.3462 -0.3932
19290TIP3    H179285   3.300   0.718   1.051 -3.6590 -0.9593 -0.6220
19290TIP3    H279286   3.368   0.666   0.926  0.5447  1.9972  0.2282
19291TIP3   OH279287   3.751   1.041  12.202 -0.2783  0.2194 -0.0617
19291TIP3    H179288   3.781   1.052  12.293 -0.1540  1.1469 -0.2042
19291TIP3    H279289   3.813   0.979  12.164  0.4299  0.7973  0.1357
19292TIP3   OH279290   3.968   2.295   3.531 -0.0405  0.4670 -0.2715
19292TIP3    H179291   4.004   2.219   3.576 -1.2086  0.9777  1.5952
19292TIP3    H279292   4.014   2.369   3.569 -0.9665  0.8984  0.0351
19293TIP3   OH279293   0.536   5.855  11.848  0.3549  0.1030  0.8043
19293TIP3    H179294   0.591   5.854  11.770 -2.8989  0.9527 -1.7939
19293TIP3    H279295   0.509   5.764  11.860 -0.9809  0.2400 -0.6865
19294TIP3   OH279296   2.461   2.982   1.836 -0.1503 -0.2155 -0.0879
19294TIP3    H179297   2.468   3.066   1.790 -1.9593  0.1414  0.2262
19294TIP3    H279298   2.525   2.988   1.906  1.7397 -0.2513 -1.7200
19295TIP3   OH279299   5.851   3.329  11.264  0.2968  0.5103 -0.4739
19295TIP3    H179300   5.890   3.255  11.217  1.2606  0.3854  0.4774
19295TIP3    H279301   5.926   3.386  11.284  0.1249  0.0144  1.8688
19296TIP3   OH279302   2.361   0.129   2.564  0.4201 -0.4409 -0.0340
19296TIP3    H179303   2.397   0.054   2.610  1.5566 -0.2681 -0.6088
19296TIP3    H279304   2.388   0.118   2.473  1.8594  1.3697  0.1183
19297TIP3   OH279305   0.815   4.863  13.271  0.2415 -0.4949 -0.5216
19297TIP3    H179306   0.845   4.781  13.233 -0.2152 -1.1020  0.4174
19297TIP3    H279307   0.720   4.864  13.254  0.2276 -0.2039 -0.4400
19298TIP3   OH279308   6.012   5.229   1.884 -0.4407  0.2336 -0.1622
19298TIP3    H179309   5.960   5.271   1.815 -2.3526 -2.8350 -0.8085
19298TIP3    H279310   5.987   5.275   1.964 -1.6211  1.0212 -0.9402
19299TIP3   OH279311   5.170   3.923  11.824  0.1736 -0.2112  0.2630
19299TIP3    H179312   5.181   3.872  11.744  0.7749 -0.5189  0.5309
19299TIP3    H279313   5.081   3.906  11.852  0.5043 -1.4629  0.5842
19300TIP3   OH279314   6.273   3.670  11.404  0.3388  0.1786 -0.3175
19300TIP3    H179315   6.217   3.593  11.401  0.0803  0.3622 -0.2606
19300TIP3    H279316   6.352   3.641  11.450 -0.4040  0.3516  1.1455
19301TIP3   OH279317   3.900   4.409  14.160  0.5534  0.3193 -0.1777
19301TIP3    H179318   3.955   4.471  14.112  1.5051 -0.2706  0.1224
19301TIP3    H279319   3.940   4.405  14.247  0.6280 -0.8640 -0.2552
19302TIP3   OH279320   4.222   2.454   2.269 -0.0061 -0.1561 -0.0889
19302TIP3    H179321   4.177   2.411   2.342 -1.4179 -1.0114 -1.4002
19302TIP3    H279322   4.299   2.400   2.253  0.0829 -0.2073  0.4938
19303TIP3   OH279323   1.260   2.858   0.434 -0.1347  0.2904  0.1959
19303TIP3    H179324   1.230   2.945   0.411 -2.8088 -0.0174  2.1080
19303TIP3    H279325   1.300   2.868   0.520  1.1123 -0.1234 -0.3127
19304TIP3   OH279326   1.784   3.843  17.141  0.3423  0.2231 -0.0665
19304TIP3    H179327   1.799   3.892  17.060  1.3327 -2.5331 -1.6888
19304TIP3    H279328   1.871   3.815  17.168 -0.3206 -2.6533 -0.6278
19305TIP3   OH279329   3.859   2.722   3.900 -0.4871  0.3307  0.2846
19305TIP3    H179330   3.885   2.678   3.820  1.9985  3.9381 -1.1590
19305TIP3    H279331   3.765   2.737   3.890 -0.1804  0.9577 -2.1899
19306TIP3   OH279332   0.107   2.548  12.622  0.1747  0.1213 -0.0894
19306TIP3    H179333   0.196   2.553  12.657  0.7389 -1.0236 -1.2905
19306TIP3    H279334   0.109   2.474  12.562 -2.3343 -1.7372  1.9035
19307TIP3   OH279335   3.313   2.260  12.524 -0.0711 -0.5635  0.5105
19307TIP3    H179336   3.381   2.227  12.465  0.7735  0.3971  0.9300
19307TIP3    H279337   3.288   2.345  12.487 -1.9538 -1.4160 -0.3425
19308TIP3   OH279338   4.236   0.862  13.797  0.1378 -0.5195  0.1940
19308TIP3    H179339   4.238   0.789  13.736  0.9235  0.1973 -0.6749
19308TIP3    H279340   4.276   0.828  13.877 -0.7798 -1.4307  0.2819
19309TIP3   OH279341   1.771   5.001   5.228 -0.2628 -0.7418  0.4753
19309TIP3    H179342   1.761   5.078   5.172  0.6704  0.1581  1.4942
19309TIP3    H279343   1.694   4.948   5.209 -0.5769  0.1115 -0.7598
19310TIP3   OH279344   3.608   4.672  10.621  0.5440 -0.4097  0.7894
19310TIP3    H179345   3.654   4.590  10.604  0.3550 -0.6172  1.2855
19310TIP3    H279346   3.516   4.651  10.609  0.4390 -0.4521  1.6333
19311TIP3   OH279347   2.555   3.951   1.576  0.2713  0.3208 -0.1356
19311TIP3    H179348   2.639   3.993   1.595  0.0413  0.0383  1.6132
19311TIP3    H279349   2.521   3.999   1.500  1.8117  0.6906 -0.6269
19312TIP3   OH279350   0.098   1.926  15.958 -0.1034  0.5152 -0.3623
19312TIP3    H179351   0.011   1.889  15.942 -0.7926  2.3407 -1.1729
19312TIP3    H279352   0.099   1.946  16.052 -0.4101  0.1089 -0.2706
19313TIP3   OH279353   4.115   0.279  10.426 -0.5531  0.0228 -0.0376
19313TIP3    H179354   4.079   0.192  10.443 -0.5736  0.0848  0.2420
19313TIP3    H279355   4.203   0.261  10.393 -0.5876 -0.1076 -0.0603
19314TIP3   OH279356   4.389   6.434   1.220 -1.0941  0.1485  0.2457
19314TIP3    H179357   4.428   6.521   1.213  0.5576 -0.6825 -3.2748
19314TIP3    H279358   4.295   6.451   1.223 -0.9659  2.1443 -2.6427
19315TIP3   OH279359   1.443   0.302  14.911 -0.0535  0.4237 -0.1938
19315TIP3    H179360   1.505   0.230  14.899 -0.2273  0.3958 -0.9994
19315TIP3    H279361   1.495   0.374  14.946 -0.1028 -0.4727  1.8782
19316TIP3   OH279362   5.044   6.699  10.656  0.0513  0.1783  0.4503
19316TIP3    H179363   4.972   6.745  10.615  0.0639  1.5874  1.8742
19316TIP3    H279364   5.009   6.613  10.680 -0.4126 -0.0402 -0.9646
19317TIP3   OH279365   4.435   2.292  15.919 -0.4425  0.2734  0.4006
19317TIP3    H179366   4.449   2.292  16.013 -0.6080 -1.6065  0.4724
19317TIP3    H279367   4.487   2.366  15.887  0.5325  0.2561  1.8428
19318TIP3   OH279368   3.638   3.863   1.953 -0.0593  0.1676  0.1396
19318TIP3    H179369   3.566   3.925   1.968 -0.6850 -1.1848  3.4556
19318TIP3    H279370   3.601   3.800   1.891 -0.8092  0.8566 -0.1541
19319TIP3   OH279371   0.640   2.655  12.595 -0.0042 -0.4212  0.2093
19319TIP3    H179372   0.627   2.564  12.568  0.0634 -0.4098  0.1358
19319TIP3    H279373   0.612   2.658  12.686  0.2600 -0.5782  0.2976
19320TIP3   OH279374   0.775   3.353   5.712  0.3443  0.5570 -0.0548
19320TIP3    H179375   0.683   3.331   5.696  0.8103 -3.1517  1.4222
19320TIP3    H279376   0.786   3.343   5.807  2.1185  1.6789 -0.1045
19321TIP3   OH279377   3.332   0.460   4.510  0.3500  0.4895  0.4578
19321TIP3    H179378   3.331   0.515   4.588  0.8116 -0.3091  1.0444
19321TIP3    H279379   3.423   0.433   4.500 -0.2411 -2.3435  1.7802
19322TIP3   OH279380   3.100   0.989  14.398 -0.0815  0.0828 -0.0778
19322TIP3    H179381   3.008   0.997  14.424 -0.3440 -0.6717 -0.7252
19322TIP3    H279382   3.142   0.946  14.472 -0.2600  0.3987  0.2082
19323TIP3   OH279383   4.696   4.465  16.464  0.1894  0.4092 -0.2349
19323TIP3    H179384   4.608   4.455  16.501  0.4282 -0.9269  0.0317
19323TIP3    H279385   4.687   4.438  16.373  0.3945 -0.0985 -0.1064
19324TIP3   OH279386   0.619   1.497   4.730 -0.4324  0.6192  0.0194
19324TIP3    H179387   0.548   1.437   4.707  0.1269  0.4074 -1.2526
19324TIP3    H279388   0.596   1.579   4.686  0.3616  0.3912 -0.8428
19325TIP3   OH279389   4.345   4.246   4.232 -0.4905  0.3247 -0.4819
19325TIP3    H179390   4.270   4.302   4.251 -0.6683  0.2280 -0.9053
19325TIP3    H279391   4.347   4.184   4.305 -1.1382 -0.0048 -0.7413
19326TIP3   OH279392   1.180   1.404   1.321  0.3313 -0.0586 -0.5889
19326TIP3    H179393   1.097   1.361   1.299 -0.3666  0.8414  0.2212
19326TIP3    H279394   1.219   1.347   1.388  1.2482 -1.4284 -2.1944
19327TIP3   OH279395   6.305   3.699   6.356 -0.2690 -0.6500 -0.1286
19327TIP3    H179396   6.296   3.720   6.449 -0.4754  1.6218 -0.6013
19327TIP3    H279397   6.381   3.641   6.352  2.0876  2.0774  1.1803
19328TIP3   OH279398   0.993   2.390  15.098  0.1835  0.0024 -0.3403
19328TIP3    H179399   1.062   2.453  15.076 -0.6233  0.6310 -1.1466
19328TIP3    H279400   0.962   2.358  15.014 -0.4079 -0.3859  0.0208
19329TIP3   OH279401   6.014   3.397  15.114  0.7386  0.3256  0.1066
19329TIP3    H179402   5.966   3.349  15.182  1.3705  0.1434  0.4235
19329TIP3    H279403   5.949   3.410  15.045  0.2569 -0.0213  0.4839
19330TIP3   OH279404   2.031   1.182  11.340 -0.3051  0.3012  0.5931
19330TIP3    H179405   2.063   1.128  11.269  0.4247 -1.1390  1.9496
19330TIP3    H279406   2.110   1.211  11.386 -0.7822 -0.2219  1.7985
19331TIP3   OH279407   5.839   4.695  11.714 -0.1623  0.1752 -0.8125
19331TIP3    H179408   5.923   4.711  11.757 -0.8195 -1.8103  1.3985
19331TIP3    H279409   5.852   4.614  11.664 -0.8513 -0.4274 -0.0493
19332TIP3   OH279410   3.809   1.730   1.089 -0.3938 -0.1400 -1.2230
19332TIP3    H179411   3.870   1.702   1.021 -0.2101 -0.6667 -0.8436
19332TIP3    H279412   3.785   1.650   1.135  2.5776  0.5611  1.9474
19333TIP3   OH279413   2.754   4.224   6.006 -0.3759  0.1066  0.2595
19333TIP3    H179414   2.783   4.193   6.092  1.7477 -0.5478 -0.6489
19333TIP3    H279415   2.693   4.156   5.976 -2.3122  1.0477  1.7928
19334TIP3   OH279416   1.306   3.850  14.769 -0.2147  0.1444 -0.3512
19334TIP3    H179417   1.214   3.835  14.790 -0.1423  0.2945  0.1063
19334TIP3    H279418   1.354   3.796  14.833  0.0419  2.1291  1.2495
19335TIP3   OH279419   4.870   6.246   5.717  0.2575 -0.4794 -0.1113
19335TIP3    H179420   4.784   6.262   5.678 -0.8004  0.4973  2.3954
19335TIP3    H279421   4.867   6.154   5.744 -0.1771 -0.3616  0.2716
19336TIP3   OH279422   1.828   3.180   3.288 -0.3887  0.5891  0.6284
19336TIP3    H179423   1.737   3.149   3.286  0.3696 -1.8945 -1.9148
19336TIP3    H279424   1.857   3.162   3.377 -2.1217  0.5853  1.2306
19337TIP3   OH279425   4.511   1.657  13.969 -0.6725  0.2145  0.0653
19337TIP3    H179426   4.435   1.676  14.025 -0.5897  0.3158  0.1428
19337TIP3    H279427   4.482   1.682  13.882 -1.0278 -0.5393 -0.0423
19338TIP3   OH279428   5.980   5.923   4.450 -0.4594 -0.2547 -0.7152
19338TIP3    H179429   5.907   5.863   4.436 -2.4657  2.2741 -1.8916
19338TIP3    H279430   5.958   5.967   4.532  0.7164 -0.7213 -0.1346
19339TIP3   OH279431   2.149   5.596  14.464  0.5561  0.0375 -0.1755
19339TIP3    H179432   2.189   5.512  14.443 -0.2479 -0.0865 -1.2963
19339TIP3    H279433   2.058   5.587  14.436  0.4216  1.2364 -0.1842
19340TIP3   OH279434   0.385   0.184  15.715 -0.4649  0.0703 -0.1278
19340TIP3    H179435   0.394   0.091  15.735  0.4015  0.3504  0.8871
19340TIP3    H279436   0.418   0.194  15.626 -0.4125 -0.5659 -0.1799
19341TIP3   OH279437   1.316   0.950  16.778 -0.2485 -0.7220 -0.0927
19341TIP3    H179438   1.315   0.912  16.866  1.1003 -1.2444 -0.2853
19341TIP3    H279439   1.399   0.922  16.741  0.8125  2.3967 -0.2956
19342TIP3   OH279440   1.202   1.467   0.624 -0.0669 -0.5883  0.2167
19342TIP3    H179441   1.261   1.409   0.673  0.5617  1.1717  1.6644
19342TIP3    H279442   1.260   1.534   0.588 -0.8303 -0.5724 -1.0303
19343TIP3   OH279443   4.017   6.071  14.071 -0.3459  0.1759  0.7097
19343TIP3    H179444   4.042   6.000  14.130  1.7240  0.8810  0.7494
19343TIP3    H279445   3.925   6.054  14.051 -0.1926 -1.9175  1.5354
19344TIP3   OH279446   6.168   6.606   1.516 -0.1888 -1.6262 -0.3565
19344TIP3    H179447   6.074   6.588   1.513 -0.1728 -1.5816 -1.2368
19344TIP3    H279448   6.192   6.626   1.426  0.6809 -1.7009 -0.1505
19345TIP3   OH279449   1.851   4.772   3.416 -0.0088  0.2779 -0.4238
19345TIP3    H179450   1.923   4.835   3.420  1.3332 -1.2159  0.1397
19345TIP3    H279451   1.786   4.806   3.478 -0.0921  1.9723 -1.3847
19346TIP3   OH279452   3.046   3.306  16.237 -0.4630 -0.3203 -0.4201
19346TIP3    H179453   3.052   3.212  16.257  2.7657 -0.6819 -2.3197
19346TIP3    H279454   3.028   3.310  16.143  0.6794  0.8882 -0.6242
19347TIP3   OH279455   2.821   0.335  14.742 -0.0816 -0.6034  0.4277
19347TIP3    H179456   2.799   0.299  14.828  1.2614  0.9439  1.4761
19347TIP3    H279457   2.835   0.429  14.758 -0.6390 -0.1126 -1.6495
19348TIP3   OH279458   6.250   0.449  11.690 -0.0620 -0.5614  0.5582
19348TIP3    H179459   6.189   0.398  11.743 -0.7377  0.9202  1.2636
19348TIP3    H279460   6.203   0.468  11.609  1.0894 -3.1109 -0.8395
19349TIP3   OH279461   6.017   6.001  10.953  0.4522  0.4376 -0.0757
19349TIP3    H179462   6.079   5.963  11.015  0.4218  0.8168  0.1867
19349TIP3    H279463   6.066   6.006  10.871  0.2225 -0.8848 -0.3226
19350TIP3   OH279464   1.286   4.352   2.387  0.0649 -0.4259  0.0649
19350TIP3    H179465   1.306   4.322   2.298  1.4251 -1.3316  0.6449
19350TIP3    H279466   1.243   4.437   2.374 -2.0406 -1.6311 -1.5390
19351TIP3   OH279467   1.074   4.210  12.407  0.0546 -0.8369  0.2092
19351TIP3    H179468   1.072   4.248  12.320  0.3068  0.4216  0.7253
19351TIP3    H279469   0.989   4.234  12.446  1.5051  2.4651  1.7980
19352TIP3   OH279470   2.741   3.264   2.476 -0.1701  0.2515 -0.1436
19352TIP3    H179471   2.812   3.202   2.462  0.8772  1.4141 -0.1335
19352TIP3    H279472   2.672   3.212   2.518  0.9626 -0.7334  0.5618
19353TIP3   OH279473   6.304   3.851  13.267  0.2682  0.0093  0.0363
19353TIP3    H179474   6.389   3.840  13.224 -0.0616  0.1447 -0.6716
19353TIP3    H279475   6.324   3.860  13.360  1.0412  0.1819 -0.1437
19354TIP3   OH279476   5.255   4.669  17.164 -0.2088  0.3246 -0.0183
19354TIP3    H179477   5.162   4.658  17.181 -0.0869  0.0824  0.5313
19354TIP3    H279478   5.265   4.759  17.134 -0.5422  0.5213  0.4658
19355TIP3   OH279479   1.762   5.835   1.026 -0.0804 -0.1190 -0.5553
19355TIP3    H179480   1.704   5.762   1.048 -0.0129 -0.4142 -1.3371
19355TIP3    H279481   1.842   5.794   0.995  0.1345  0.2885 -0.5413
19356TIP3   OH279482   6.460   4.450  12.402 -0.4109 -1.1629  0.4799
19356TIP3    H179483   6.387   4.391  12.382 -1.1037 -0.2467  0.2263
19356TIP3    H279484   6.484   4.487  12.318  1.4125 -2.6095  0.3024
19357TIP3   OH279485   6.072   0.319  13.153 -0.0605  0.2981  0.6322
19357TIP3    H179486   6.159   0.315  13.113 -0.4680  0.7568 -0.3162
19357TIP3    H279487   6.089   0.349  13.243  0.7413  0.4803  0.4275
19358TIP3   OH279488   3.908   2.272   1.623  0.0282 -0.2562  0.0623
19358TIP3    H179489   3.873   2.335   1.687  0.9047  0.6539 -0.3206
19358TIP3    H279490   3.935   2.197   1.676  0.9616  0.5786  0.8215
19359TIP3   OH279491   4.253   2.810  13.392  0.2239 -0.5512 -0.3181
19359TIP3    H179492   4.252   2.863  13.312 -0.6144 -0.8938 -0.5393
19359TIP3    H279493   4.323   2.747  13.378 -2.1653 -2.9557 -2.3599
19360TIP3   OH279494   6.675   2.436   3.157  0.0324 -0.1542  0.0656
19360TIP3    H179495   6.707   2.440   3.067  4.0980 -1.8673  1.2127
19360TIP3    H279496   6.728   2.499   3.205 -2.0343  0.7106  1.3707
19361TIP3   OH279497   2.602   1.470  11.574 -0.5839  0.2808  0.2651
19361TIP3    H179498   2.601   1.386  11.620  1.5054 -0.5063 -1.0223
19361TIP3    H279499   2.612   1.535  11.644 -0.7250 -0.6388  1.1613
19362TIP3   OH279500   5.247   6.311  13.598  0.8282  0.5590  0.5424
19362TIP3    H179501   5.196   6.327  13.677  0.4828  2.5113 -0.0259
19362TIP3    H279502   5.184   6.322  13.527  0.4983 -3.6361 -0.0540
19363TIP3   OH279503   2.639   6.608  11.814 -0.5117 -0.0704 -0.2246
19363TIP3    H179504   2.655   6.628  11.906 -2.5703 -1.2852  0.4736
19363TIP3    H279505   2.672   6.519  11.802  1.1122  0.6054 -1.1130
19364TIP3   OH279506   4.013   0.408   0.522  0.0935  0.4694  0.5151
19364TIP3    H179507   4.052   0.495   0.506  1.0892  0.0747  0.7039
19364TIP3    H279508   4.009   0.401   0.617  0.6287  0.0534  0.5117
19365TIP3   OH279509   5.063   0.847   5.349 -0.8808  0.4061  0.1741
19365TIP3    H179510   5.000   0.876   5.415 -0.8163  0.8474  0.0480
19365TIP3    H279511   5.127   0.796   5.398  2.2056  4.9562  1.5850
19366TIP3   OH279512   1.302   0.563  16.070  0.1891  0.2236  0.2734
19366TIP3    H179513   1.255   0.539  16.150 -0.5447  0.5726 -0.0483
19366TIP3    H279514   1.348   0.483  16.044  0.0921 -0.0105  0.8059
19367TIP3   OH279515   5.950   0.127   4.591 -0.5619 -0.0845  0.0609
19367TIP3    H179516   5.947   0.116   4.686 -0.7785  1.4291  0.2573
19367TIP3    H279517   5.981   0.043   4.558  2.3665  0.2124  1.6777
19368TIP3   OH279518   3.515   0.687   5.347  0.1577 -0.7083 -0.0452
19368TIP3    H179519   3.608   0.675   5.330  0.0354 -0.3620 -1.0298
19368TIP3    H279520   3.495   0.626   5.418  0.5387 -2.9095 -1.7271
19369TIP3   OH279521   1.086   6.031  15.328  0.0759 -0.0116 -0.0927
19369TIP3    H179522   1.073   5.954  15.384 -0.0783  0.3393  0.3576
19369TIP3    H279523   0.998   6.052  15.297  0.0611  0.2170  0.1001
19370TIP3   OH279524   6.541   6.208   1.516 -0.1201  0.4208  0.4722
19370TIP3    H179525   6.494   6.223   1.434  0.6603  1.0925  0.1467
19370TIP3    H279526   6.491   6.138   1.559 -1.3554  1.0481  0.0886
19371TIP3   OH279527   0.848   1.749  15.332  0.1758 -0.0662  0.0620
19371TIP3    H179528   0.766   1.793  15.356  0.4968  1.2999 -1.2175
19371TIP3    H279529   0.821   1.667  15.292 -0.4986 -0.2833  0.9274
19372TIP3   OH279530   3.352   4.621   1.083 -0.5781 -0.2839  0.1250
19372TIP3    H179531   3.376   4.531   1.062 -0.1793 -0.4993  1.3925
19372TIP3    H279532   3.256   4.620   1.089 -0.6674 -0.3236 -1.0706
19373TIP3   OH279533   2.641   1.126   3.345 -0.2678 -0.5007 -0.1730
19373TIP3    H179534   2.716   1.186   3.352  0.1683 -0.9957 -0.4982
19373TIP3    H279535   2.678   1.039   3.363 -1.1931 -0.5232  1.8404
19374TIP3   OH279536   4.469   5.290   5.410 -0.0930  0.2954 -0.4625
19374TIP3    H179537   4.374   5.288   5.414 -0.0367 -0.8304  1.8756
19374TIP3    H279538   4.489   5.283   5.316 -2.2735 -0.9338 -0.9064
19375TIP3   OH279539   2.031   6.517   3.038 -0.1265 -0.1568 -0.7768
19375TIP3    H179540   1.961   6.452   3.049  0.2566 -0.3277  0.8224
19375TIP3    H279541   1.989   6.590   2.992 -1.3582 -0.2541  0.1518
19376TIP3   OH279542   2.840   4.173   2.366  0.1777  0.0985  0.3450
19376TIP3    H179543   2.810   4.093   2.410  0.7337  0.6979  1.9014
19376TIP3    H279544   2.932   4.155   2.346  0.2100  0.2264  0.3830
19377TIP3   OH279545   5.623   5.100   0.902 -1.1356  0.6962 -0.5451
19377TIP3    H179546   5.593   5.112   0.812 -1.3108  1.4035 -0.3961
19377TIP3    H279547   5.669   5.181   0.924  0.4884 -0.1745 -0.5941
19378TIP3   OH279548   2.807   5.772   4.600 -0.2384  0.3736 -0.0574
19378TIP3    H179549   2.881   5.712   4.590 -1.3440 -1.5142  2.1312
19378TIP3    H279550   2.778   5.759   4.690 -0.9919  3.7913  0.3483
19379TIP3   OH279551   1.783   2.328   3.487 -0.5355  0.0861 -0.1249
19379TIP3    H179552   1.800   2.299   3.576 -3.2726 -0.5078  0.2896
19379TIP3    H279553   1.790   2.424   3.491 -1.9314  0.1648  1.0804
19380TIP3   OH279554   5.162   2.364  16.102 -1.0565 -0.1816  0.7516
19380TIP3    H179555   5.219   2.406  16.037 -2.5746 -0.8043 -1.0716
19380TIP3    H279556   5.219   2.300  16.145  0.2189  0.8819  0.7304
19381TIP3   OH279557   4.637   1.831  10.767 -0.4393  0.4589  0.2813
19381TIP3    H179558   4.559   1.818  10.712  0.3949 -0.4013 -0.7339
19381TIP3    H279559   4.698   1.764  10.738  1.1961  1.9683  0.1347
19382TIP3   OH279560   4.854   3.386   2.167  0.2858 -0.3675  0.3494
19382TIP3    H179561   4.797   3.428   2.232  0.5788 -0.7394  0.8625
19382TIP3    H279562   4.929   3.356   2.219  0.5423 -0.6349 -0.1770
19383TIP3   OH279563   0.687   6.625   0.890 -0.1093  0.4384 -0.2788
19383TIP3    H179564   0.652   6.536   0.887 -3.4348  1.6037 -1.0288
19383TIP3    H279565   0.633   6.669   0.956  1.1347  2.0290 -0.2787
19384TIP3   OH279566   2.402   5.577  11.800  0.3262 -0.3957 -0.1802
19384TIP3    H179567   2.460   5.606  11.871 -0.6905 -1.3518  1.0908
19384TIP3    H279568   2.404   5.482  11.804 -1.5404 -0.4680  0.1122
19385TIP3   OH279569   5.310   5.209   0.441  0.4254  0.1785 -0.2620
19385TIP3    H179570   5.220   5.194   0.470  0.0309 -0.5747 -1.7385
19385TIP3    H279571   5.327   5.301   0.461 -0.2120  0.0090  1.1805
19386TIP3   OH279572   5.453   2.912   0.004 -0.2507  0.1773 -0.4258
19386TIP3    H179573   5.407   2.953   0.077  0.1871  0.5000 -0.3222
19386TIP3    H279574   5.399   2.837  -0.021 -0.5557  0.2447  0.0326
19387TIP3   OH279575   4.713   3.126   5.431 -0.9751 -0.0165  0.0060
19387TIP3    H179576   4.646   3.184   5.394 -0.4393  0.3280 -0.4246
19387TIP3    H279577   4.755   3.179   5.498 -1.0274 -0.1854  0.1737
19388TIP3   OH279578   6.098   2.404  12.935  0.1605  0.4546  0.3507
19388TIP3    H179579   6.037   2.415  13.008 -1.8089 -1.2475 -0.9066
19388TIP3    H279580   6.124   2.312  12.940 -1.8622 -0.4113 -2.2838
19389TIP3   OH279581   3.649   3.075  16.766  0.0450 -0.2272 -0.3025
19389TIP3    H179582   3.671   3.110  16.852  0.7914  0.4984 -0.7626
19389TIP3    H279583   3.570   3.023  16.780 -0.4831  0.7699  0.6276
19390TIP3   OH279584   6.797   0.980   3.473  0.4672 -0.6448  0.8728
19390TIP3    H179585   6.883   0.999   3.436  0.3920 -1.5657  0.1827
19390TIP3    H279586   6.738   1.043   3.431  0.7320 -0.3235  0.9879
19391TIP3   OH279587   0.301   1.625   4.740 -0.2630  0.1891  0.0695
19391TIP3    H179588   0.266   1.712   4.757 -1.9411 -0.1136 -1.4764
19391TIP3    H279589   0.367   1.638   4.672  0.0827  0.3558  0.4393
19392TIP3   OH279590   0.036   0.097  12.596  0.3297  0.1141  0.4650
19392TIP3    H179591   0.042   0.055  12.682  0.4926  0.3542  0.5715
19392TIP3    H279592   0.045   0.025  12.534 -0.3156 -0.1262  0.6515
19393TIP3   OH279593   3.362   0.544   1.463  0.8447 -0.2586  0.0739
19393TIP3    H179594   3.319   0.554   1.378  0.1280  0.3893  0.5014
19393TIP3    H279595   3.449   0.583   1.451  0.7916 -0.2832 -0.3938
19394TIP3   OH279596   4.663   1.247   3.961  0.0198  0.0891  0.2592
19394TIP3    H179597   4.632   1.174   4.015 -0.1470  1.1939  1.7010
19394TIP3    H279598   4.673   1.320   4.022 -0.3772  1.4488 -1.2401
19395TIP3   OH279599   2.025   6.478   0.433  0.0520  0.2818  0.5173
19395TIP3    H179600   2.057   6.465   0.522 -0.7608 -1.0738  0.6350
19395TIP3    H279601   1.978   6.562   0.437 -0.0238  0.2060  1.3829
19396TIP3   OH279602   4.209   6.569   5.569 -0.1631  0.0162  0.0362
19396TIP3    H179603   4.185   6.506   5.637  0.2067 -1.0339 -0.7801
19396TIP3    H279604   4.185   6.526   5.487 -1.1738  1.5176 -0.4839
19397TIP3   OH279605   4.504   4.937  11.908  0.1694 -0.7980 -0.5347
19397TIP3    H179606   4.496   4.854  11.955  1.1927 -1.3733 -1.3305
19397TIP3    H279607   4.446   4.997  11.955  0.9432 -1.4085  1.3108
19398TIP3   OH279608   0.467   6.367   1.834 -0.0648 -0.4482  0.2862
19398TIP3    H179609   0.558   6.350   1.859 -0.4930 -1.0442  1.5608
19398TIP3    H279610   0.417   6.351   1.915 -1.4236 -1.2481 -0.6637
19399TIP3   OH279611   1.281   0.348   0.243  0.0159 -1.0661  0.1422
19399TIP3    H179612   1.349   0.415   0.237 -0.2986 -0.7273  0.3580
19399TIP3    H279613   1.263   0.341   0.337 -0.9620 -0.4396  0.0076
19400TIP3   OH279614   5.692   1.514  10.769  0.0949 -0.1493  0.1083
19400TIP3    H179615   5.782   1.514  10.736 -0.3478 -1.2694 -1.1981
19400TIP3    H279616   5.665   1.605  10.766  0.7734  0.0367 -0.7060
19401TIP3   OH279617   5.150   0.205  11.557 -0.0510 -0.4418 -0.7712
19401TIP3    H179618   5.072   0.236  11.602  0.2336  0.6989 -1.0257
19401TIP3    H279619   5.204   0.165  11.626 -0.9350 -1.4366 -0.6332
19402TIP3   OH279620   1.938   1.323   2.120  0.3292  0.3028  0.0448
19402TIP3    H179621   2.019   1.372   2.133  0.1033  0.5738  0.4657
19402TIP3    H279622   1.958   1.260   2.051  0.8337  0.5118 -0.0004
19403TIP3   OH279623   1.584   1.691   0.470 -0.6776 -0.1002 -0.0710
19403TIP3    H179624   1.532   1.770   0.451 -0.2944  0.1766  0.0094
19403TIP3    H279625   1.606   1.655   0.384 -0.1766  0.3330 -0.1296
19404TIP3   OH279626   5.376   2.214  14.846  0.3569  0.5682  0.2825
19404TIP3    H179627   5.322   2.291  14.865 -0.1254  0.3027 -0.0169
19404TIP3    H279628   5.382   2.211  14.751  1.6234  1.0925  0.3208
19405TIP3   OH279629   4.846   5.873  16.775  0.5635 -0.2891  0.1808
19405TIP3    H179630   4.760   5.858  16.816 -0.5419 -1.9497 -2.4978
19405TIP3    H279631   4.904   5.891  16.849 -1.9362  0.3058  2.1624
19406TIP3   OH279632   0.476   2.682  10.951  0.0573 -0.4867  0.3394
19406TIP3    H179633   0.502   2.769  10.982 -0.3260  0.0117 -0.7118
19406TIP3    H279634   0.447   2.696  10.861  0.8940 -1.8600 -0.1748
19407TIP3   OH279635   1.326   3.894   2.229  0.0660  0.1080 -0.1110
19407TIP3    H179636   1.408   3.846   2.216  0.0651  0.3812 -1.2604
19407TIP3    H279637   1.347   3.959   2.296  0.2054 -1.1272  1.1013
19408TIP3   OH279638   6.273   2.564   2.115  0.2412 -0.0069 -0.0170
19408TIP3    H179639   6.278   2.612   2.033 -0.0548 -2.5948 -1.6891
19408TIP3    H279640   6.184   2.527   2.116  0.1789  0.0989  1.5817
19409TIP3   OH279641   0.458   5.258   0.755 -0.2756  0.0565  0.6066
19409TIP3    H179642   0.550   5.233   0.747  0.4111  1.7832  2.2787
19409TIP3    H279643   0.449   5.286   0.846 -2.2898  0.6282  0.2710
19410TIP3   OH279644   3.482   6.559  12.258  0.3503 -1.1924  0.1847
19410TIP3    H179645   3.477   6.575  12.352  0.1965  0.1309 -0.0289
19410TIP3    H279646   3.571   6.586  12.233  0.6607 -2.2872  0.0744
19411TIP3   OH279647   5.425   0.512  15.237  0.2106 -0.6906  0.5233
19411TIP3    H179648   5.464   0.598  15.229  1.1747 -1.0328  1.3586
19411TIP3    H279649   5.345   0.516  15.184  1.2232  0.1110 -0.9818
19412TIP3   OH279650   0.798   1.970   0.193 -0.1002  0.1394  0.2029
19412TIP3    H179651   0.875   2.007   0.236  2.4381 -0.9065 -3.0530
19412TIP3    H279652   0.800   1.877   0.216  1.7611 -0.6092 -2.4725
19413TIP3   OH279653   1.045   3.974   4.677  0.1283 -0.4137 -0.0325
19413TIP3    H179654   1.045   4.070   4.672 -1.8704 -0.4310 -1.4525
19413TIP3    H279655   1.058   3.955   4.770 -0.1152  1.2557  0.3710
19414TIP3   OH279656   5.179   6.782  13.093  0.4166 -0.7245 -0.0236
19414TIP3    H179657   5.116   6.840  13.050  0.5143 -1.9837 -2.0007
19414TIP3    H279658   5.261   6.830  13.090  0.0451 -0.0414  0.4328
19415TIP3   OH279659   4.557   0.465   6.207 -0.8130 -0.2322  0.8132
19415TIP3    H179660   4.649   0.461   6.180  0.0542 -0.9524  3.5461
19415TIP3    H279661   4.519   0.534   6.153  1.5291  0.6475  0.1662
19416TIP3   OH279662   0.628   2.668   4.192 -0.1751  0.5876  0.3275
19416TIP3    H179663   0.574   2.608   4.244 -1.2888  2.5348  1.5182
19416TIP3    H279664   0.691   2.611   4.148 -2.2051 -1.6347  0.0985
19417TIP3   OH279665   1.194   5.247  11.759  0.0376  0.0571  0.2408
19417TIP3    H179666   1.142   5.258  11.839  0.0744 -0.9873  0.4270
19417TIP3    H279667   1.172   5.324  11.706 -1.5613 -0.2403  0.3952
19418TIP3   OH279668   6.231   0.369  11.117 -0.0236 -0.5587  0.3823
19418TIP3    H179669   6.210   0.304  11.051 -0.7489 -0.2648  0.3198
19418TIP3    H279670   6.302   0.420  11.078  0.0372 -0.8372  0.1237
19419TIP3   OH279671   2.074   1.165   5.143  0.5101  0.3190  0.1008
19419TIP3    H179672   1.994   1.114   5.151  1.7641 -1.6039  1.5214
19419TIP3    H279673   2.080   1.214   5.225  0.2599  1.3138 -0.4623
19420TIP3   OH279674   4.623   4.888   0.701 -0.2379  0.2473 -0.2420
19420TIP3    H179675   4.718   4.890   0.700 -0.2236 -0.3326 -0.3072
19420TIP3    H279676   4.601   4.800   0.731 -0.7509  0.3053 -0.4377
19421TIP3   OH279677   2.517   0.404   2.107  0.5640 -0.3212 -0.0999
19421TIP3    H179678   2.424   0.428   2.105  0.4831 -0.6545 -0.4170
19421TIP3    H279679   2.563   0.482   2.078  0.5678  0.7044  2.4246
19422TIP3   OH279680   3.141   5.110   2.593  0.0234 -0.2590 -0.5384
19422TIP3    H179681   3.084   5.113   2.517 -0.3857  0.3614 -0.2160
19422TIP3    H279682   3.090   5.150   2.664  1.0833  0.9469 -0.4145
19423TIP3   OH279683   5.214   0.871  10.859  0.1188 -0.1575  0.1992
19423TIP3    H179684   5.286   0.816  10.829 -0.0814 -1.2825  1.6545
19423TIP3    H279685   5.139   0.812  10.862 -0.3454  0.4460  0.7825
19424TIP3   OH279686   0.522   5.388  15.502 -0.7910  0.0653 -0.2328
19424TIP3    H179687   0.556   5.351  15.421 -0.4972  1.0204 -0.5652
19424TIP3    H279688   0.435   5.420  15.478 -1.1805 -0.7133  0.1378
19425TIP3   OH279689   6.274   4.618   2.686  0.2113 -0.5446 -0.6133
19425TIP3    H179690   6.272   4.523   2.670 -0.3716 -0.9628  1.5792
19425TIP3    H279691   6.322   4.627   2.769  1.1194  1.1870 -1.2708
19426TIP3   OH279692   6.648   5.634  15.240  0.0172  0.5759  0.4537
19426TIP3    H179693   6.556   5.638  15.213  0.3436  0.1403 -0.7600
19426TIP3    H279694   6.649   5.565  15.307 -0.2936 -0.5735 -0.6784
19427TIP3   OH279695   2.393   3.495   2.089  0.2701 -0.6613 -0.4127
19427TIP3    H179696   2.351   3.577   2.063 -0.4705 -0.7642  0.3808
19427TIP3    H279697   2.461   3.480   2.024 -1.7966 -1.1899 -2.5662
19428TIP3   OH279698   6.749   4.027  14.505  0.3704  0.0216 -0.1438
19428TIP3    H179699   6.817   4.025  14.438  1.6049  1.5576  0.9897
19428TIP3    H279700   6.688   4.095  14.477 -0.5406 -1.0838 -0.9557
19429TIP3   OH279701   3.354   4.762  11.546 -0.6641  0.0645  0.1799
19429TIP3    H179702   3.339   4.823  11.474 -0.9693  0.5785  0.6669
19429TIP3    H279703   3.426   4.706  11.516 -2.1273 -1.0737 -1.3290
19430TIP3   OH279704   5.972   1.267  15.263 -0.1459  0.5068  0.0134
19430TIP3    H179705   5.939   1.228  15.344  0.6621  0.5239  0.3665
19430TIP3    H279706   5.999   1.192  15.210  0.8931  0.5337  0.4673
19431TIP3   OH279707   0.064   0.689  12.791 -0.3601  0.2093  0.1762
19431TIP3    H179708   0.035   0.781  12.791  1.2667  0.7723 -0.8799
19431TIP3    H279709   0.146   0.691  12.743 -1.1712 -2.1167 -1.4263
19432TIP3   OH279710   0.556   4.315  13.903 -0.1100  0.6808 -0.3003
19432TIP3    H179711   0.539   4.305  13.996  0.6656  0.5191 -0.1702
19432TIP3    H279712   0.552   4.226  13.868  1.8525  0.4230 -0.0054
19433TIP3   OH279713   2.725   1.803  14.246 -0.0588 -0.2431 -0.1821
19433TIP3    H179714   2.734   1.831  14.337 -1.6509  0.0754 -0.0917
19433TIP3    H279715   2.691   1.881  14.200  0.3595 -0.5121 -0.9660
19434TIP3   OH279716   2.945   3.319  15.970 -0.2408 -0.3592 -0.5128
19434TIP3    H179717   2.881   3.331  15.900 -0.0496 -2.6127 -1.1558
19434TIP3    H279718   3.021   3.281  15.927  0.2416 -0.9219  0.7681
19435TIP3   OH279719   2.590   6.534   2.854 -0.3350  0.3028 -0.3622
19435TIP3    H179720   2.569   6.547   2.947 -2.5393 -0.6100 -0.6642
19435TIP3    H279721   2.550   6.609   2.810 -2.2008 -0.9285 -0.8566
19436TIP3   OH279722   5.621   1.404  11.334 -0.6341 -0.2840 -0.1311
19436TIP3    H179723   5.639   1.498  11.341  1.7248 -0.7741  2.0007
19436TIP3    H279724   5.558   1.387  11.404 -0.2852 -0.4348  0.1487
19437TIP3   OH279725   6.730   4.292   5.464  1.5053  0.3905 -0.1891
19437TIP3    H179726   6.804   4.273   5.522  1.4405 -0.1230 -0.2762
19437TIP3    H279727   6.762   4.360   5.405  2.6058 -1.2326 -1.5642
19438TIP3   OH279728   5.985   3.624  12.967 -0.3179  0.1104  0.3470
19438TIP3    H179729   6.030   3.708  12.962 -0.1614 -0.0421 -1.0435
19438TIP3    H279730   5.934   3.618  12.887  1.3312 -2.0250 -0.6614
19439TIP3   OH279731   0.574   2.517   6.491  0.2168 -0.0987 -0.0206
19439TIP3    H179732   0.557   2.460   6.416 -0.6070  0.1635 -0.0529
19439TIP3    H279733   0.629   2.465   6.549 -0.6158 -0.9892  0.0085
19440TIP3   OH279734   1.618   0.522  11.968  0.5977 -0.2391 -0.8015
19440TIP3    H179735   1.708   0.503  11.995  0.5899  0.3835 -0.2979
19440TIP3    H279736   1.606   0.473  11.887  0.6843 -2.0627  0.2510
19441TIP3   OH279737   5.774   1.854  10.756 -0.2095 -0.3134  0.2913
19441TIP3    H179738   5.681   1.872  10.768 -0.0373  0.4616  0.4728
19441TIP3    H279739   5.784   1.840  10.662 -0.3615  0.4522  0.1549
19442TIP3   OH279740   3.766   5.385   0.686  0.1842 -0.4250 -0.2300
19442TIP3    H179741   3.822   5.328   0.634 -1.6951 -1.2988 -1.4201
19442TIP3    H279742   3.710   5.429   0.623  1.3936  2.6718  0.6781
19443TIP3   OH279743   2.847   2.757  15.086 -0.1593 -0.1495 -0.5629
19443TIP3    H179744   2.912   2.714  15.142 -1.7223 -0.2905  1.2223
19443TIP3    H279745   2.896   2.782  15.008  1.8789 -0.8686  0.4178
19444TIP3   OH279746   4.912   6.070  13.750 -0.4289  0.2118  0.3884
19444TIP3    H179747   4.991   6.040  13.706 -0.7729  0.0813 -0.1513
19444TIP3    H279748   4.878   6.139  13.693 -0.5518  0.4642  0.7629
19445TIP3   OH279749   0.798   0.787  10.961 -0.0568 -0.4373 -0.3874
19445TIP3    H179750   0.875   0.793  10.904 -0.2781 -0.5433 -0.6959
19445TIP3    H279751   0.786   0.876  10.994  0.0081 -0.3551 -0.5867
19446TIP3   OH279752   3.516   2.885  15.914  0.4222 -0.3587  0.7139
19446TIP3    H179753   3.432   2.921  15.883 -0.1732 -1.0559  1.4766
19446TIP3    H279754   3.510   2.890  16.010  2.0451  1.3444  0.7793
19447TIP3   OH279755   1.399   2.343  16.348 -0.7597 -0.4217  0.3604
19447TIP3    H179756   1.306   2.346  16.372 -1.1027 -1.0735 -0.7842
19447TIP3    H279757   1.434   2.427  16.377 -1.6300 -0.3031  1.1137
19448TIP3   OH279758   3.504   6.124  11.809 -1.0619 -0.5820  0.5096
19448TIP3    H179759   3.565   6.061  11.846  2.0644  0.5810 -2.1165
19448TIP3    H279760   3.535   6.209  11.842 -1.9279 -0.0365 -0.0407
19449TIP3   OH279761   0.127   1.536  14.282  0.9658 -0.4911 -0.5593
19449TIP3    H179762   0.125   1.473  14.354  0.3515 -0.0800 -0.2133
19449TIP3    H279763   0.039   1.572  14.278  1.6935  1.5546  0.3315
19450TIP3   OH279764   0.871   5.876  15.768 -0.1671  0.2958  0.1580
19450TIP3    H179765   0.782   5.895  15.737 -0.0406  1.1084  0.2715
19450TIP3    H279766   0.867   5.785  15.796 -1.0301  0.3867  0.3824
19451TIP3   OH279767   2.623   2.652   5.135  0.4249  0.1803 -0.6780
19451TIP3    H179768   2.615   2.575   5.192  0.3377  1.2714  0.8586
19451TIP3    H279769   2.679   2.711   5.185  2.7895  0.0801 -3.0157
19452TIP3   OH279770   0.340   2.912   2.752 -0.6298 -0.1409 -0.2800
19452TIP3    H179771   0.297   2.954   2.677 -0.5101  1.5979  0.5743
19452TIP3    H279772   0.345   2.981   2.818 -0.1454 -1.4594  1.1005
19453TIP3   OH279773   2.761   1.553  14.027  0.7968  0.0479 -0.0112
19453TIP3    H179774   2.749   1.459  14.040  1.1379  0.1249  0.9171
19453TIP3    H279775   2.779   1.587  14.114  1.0566  0.9248 -0.3991
19454TIP3   OH279776   2.629   6.573   5.492  0.3667 -0.3416 -0.5732
19454TIP3    H179777   2.565   6.576   5.420  1.4355  0.9948 -1.5157
19454TIP3    H279778   2.687   6.647   5.476  0.6393  0.0058  1.7000
19455TIP3   OH279779   6.211   3.011   6.470 -0.3711 -0.2827 -0.1922
19455TIP3    H179780   6.245   3.053   6.550 -1.8210 -1.6048  1.2051
19455TIP3    H279781   6.245   3.064   6.399  2.4645 -0.0529  1.1929
19456TIP3   OH279782   5.763   6.377  13.962  0.5059  0.6815 -0.3540
19456TIP3    H179783   5.818   6.445  14.000  1.0555 -0.8046  1.7324
19456TIP3    H279784   5.821   6.328  13.904  0.1671  1.8060 -1.6784
19457TIP3   OH279785   2.202   2.260  15.013 -0.2104  0.2482  0.1708
19457TIP3    H179786   2.295   2.254  15.033 -0.6048 -0.9823  1.8336
19457TIP3    H279787   2.171   2.336  15.063 -0.0867  0.7904 -0.5531
19458TIP3   OH279788   4.253   3.094  13.755  0.5882  0.7090  0.0282
19458TIP3    H179789   4.221   3.004  13.754  0.9062  0.5967 -1.4790
19458TIP3    H279790   4.346   3.086  13.736  0.9019  1.2731  1.2408
19459TIP3   OH279791   0.984   4.083   0.773 -0.1804  0.3126  0.1874
19459TIP3    H179792   1.014   3.994   0.753  0.7666 -0.3799  3.9805
19459TIP3    H279793   0.917   4.101   0.707  0.0099 -2.9487 -1.0788
19460TIP3   OH279794   4.241   5.605   4.260  0.6037 -0.2983  0.1529
19460TIP3    H179795   4.295   5.668   4.308 -0.1348 -1.0310  2.0169
19460TIP3    H279796   4.293   5.525   4.260  0.9203 -0.1102 -0.9654
19461TIP3   OH279797   2.315   4.337   5.702  0.5446 -0.1324  0.6961
19461TIP3    H179798   2.226   4.336   5.737 -0.0806  1.5985 -0.7238
19461TIP3    H279799   2.359   4.408   5.749  1.2231 -0.9835  1.4000
19462TIP3   OH279800   6.644   5.642  16.038 -0.7533 -0.3617  0.4023
19462TIP3    H179801   6.734   5.614  16.056 -0.2829  0.5408 -0.4289
19462TIP3    H279802   6.649   5.682  15.951 -1.8815  0.0940  0.5326
19463TIP3   OH279803   5.320   3.630  16.761  0.2895  0.1339  0.0835
19463TIP3    H179804   5.395   3.632  16.701  0.3350  1.4405  0.1495
19463TIP3    H279805   5.358   3.607  16.846  0.3894 -0.6409 -0.1649
19464TIP3   OH279806   6.046   4.046   4.233 -0.5400 -0.4263  0.1647
19464TIP3    H179807   6.141   4.051   4.228 -0.5363 -0.2146  0.4027
19464TIP3    H279808   6.026   3.953   4.232 -0.3469 -0.4633 -0.1941
19465TIP3   OH279809   2.146   6.652   3.494 -0.0638 -0.0225  0.2679
19465TIP3    H179810   2.160   6.569   3.449  1.8524  1.0260 -1.2138
19465TIP3    H279811   2.054   6.674   3.476 -0.6299 -1.8334  0.7846
19466TIP3   OH279812   5.766   2.844  12.498 -0.1276  0.1033  0.0388
19466TIP3    H179813   5.761   2.897  12.419 -2.3526 -0.5801 -0.3268
19466TIP3    H279814   5.760   2.907  12.570  2.0608  0.7409 -0.2656
19467TIP3   OH279815   4.397   1.916   2.222  0.2033 -0.7710 -0.0099
19467TIP3    H179816   4.380   1.925   2.316 -0.4270  0.9206 -0.2554
19467TIP3    H279817   4.352   1.835   2.198 -2.2831  0.3021  0.6239
19468TIP3   OH279818   3.797   4.260  17.034  0.0073  0.6872 -0.3712
19468TIP3    H179819   3.874   4.215  16.999 -1.6767 -1.5421 -1.4910
19468TIP3    H279820   3.730   4.192  17.040 -2.1438  2.6862 -0.1918
19469TIP3   OH279821   2.042   4.182   4.725 -0.3541 -0.3221  0.5725
19469TIP3    H179822   2.110   4.249   4.713  0.9782 -1.8131 -0.5729
19469TIP3    H279823   2.034   4.174   4.820 -0.0274  0.9515  0.7300
19470TIP3   OH279824   0.043   5.194   2.479  0.1828  0.8640 -0.1123
19470TIP3    H179825  -0.019   5.168   2.411  0.3213  1.9953 -0.6856
19470TIP3    H279826   0.111   5.242   2.433  1.4411 -0.2409  0.5357
19471TIP3   OH279827   6.736   4.573  16.807  0.6541  0.5746  0.1868
19471TIP3    H179828   6.701   4.641  16.750  0.3307  0.1123 -0.1688
19471TIP3    H279829   6.831   4.579  16.796  0.5505 -0.8175 -1.9591
19472TIP3   OH279830   5.554   1.850  13.683 -0.2577 -0.3311  0.1199
19472TIP3    H179831   5.489   1.780  13.671 -1.5653  0.7240  0.7750
19472TIP3    H279832   5.521   1.900  13.758  1.5580 -0.0079  0.7428
19473TIP3   OH279833   0.833   1.261  16.756  0.0558  0.0190 -0.0765
19473TIP3    H179834   0.912   1.310  16.733  1.1016 -1.5441  0.0475
19473TIP3    H279835   0.865   1.185  16.803 -1.5138 -0.8600 -0.3727
19474TIP3   OH279836   0.082   4.168   0.865  0.6497 -0.1092 -0.4144
19474TIP3    H179837   0.030   4.243   0.836  2.4242  0.5996 -1.9633
19474TIP3    H279838   0.022   4.094   0.860 -1.5094  1.2548  2.2331
19475TIP3   OH279839   6.591   0.817  14.129 -0.2360  0.5732 -0.1941
19475TIP3    H179840   6.522   0.752  14.116 -1.2254  1.8742 -2.0118
19475TIP3    H279841   6.634   0.791  14.210 -2.3541 -0.7599  0.5843
19476TIP3   OH279842   2.364   4.983  12.138  0.4347  0.1600 -0.2125
19476TIP3    H179843   2.338   5.002  12.229  1.6203 -0.6257  0.3034
19476TIP3    H279844   2.393   5.068  12.104 -1.7917  0.8782 -0.5100
19477TIP3   OH279845   6.307   2.066  15.031  0.0623  0.1014 -0.0346
19477TIP3    H179846   6.286   2.100  14.944 -0.4627  1.1923  0.4984
19477TIP3    H279847   6.340   1.977  15.015 -2.1164 -0.5784 -1.1613
19478TIP3   OH279848   1.383   0.265   4.340  0.3015 -0.0727 -0.1123
19478TIP3    H179849   1.434   0.336   4.380  1.6808 -1.2050  0.2280
19478TIP3    H279850   1.438   0.187   4.350 -0.7349 -1.0179 -1.3515
19479TIP3   OH279851   2.272   1.370   4.315  0.1840 -0.2091 -0.7991
19479TIP3    H179852   2.313   1.451   4.344  0.1147 -0.1153 -0.9618
19479TIP3    H279853   2.344   1.319   4.278 -0.1198  0.7292 -2.8206
19480TIP3   OH279854   3.503   6.508   0.378 -0.2692  0.5518  0.0384
19480TIP3    H179855   3.462   6.459   0.308  0.2846  0.3971 -0.1859
19480TIP3    H279856   3.446   6.495   0.454 -0.1214 -0.4607 -0.0132
19481TIP3   OH279857   2.024   5.628   4.757 -0.2267 -0.3947  0.1352
19481TIP3    H179858   2.037   5.589   4.670  0.5958 -0.1421  0.1299
19481TIP3    H279859   2.113   5.636   4.792 -0.3489  1.5739  0.0934
19482TIP3   OH279860   1.804   5.265  13.649  0.1042  0.1809 -0.2885
19482TIP3    H179861   1.869   5.202  13.681 -1.8229 -1.6088  0.3461
19482TIP3    H279862   1.783   5.319  13.726  1.4146  1.3581 -0.7151
19483TIP3   OH279863   3.548   2.554  14.205  0.2871  0.9103 -0.6737
19483TIP3    H179864   3.554   2.556  14.109  1.1068  3.4013 -0.6356
19483TIP3    H279865   3.625   2.603  14.235 -0.0306  0.2941  1.2678
19484TIP3   OH279866   4.736   0.612  12.219  0.1001  0.0159  0.7633
19484TIP3    H179867   4.752   0.663  12.140  0.2438 -0.5734  0.3997
19484TIP3    H279868   4.822   0.577  12.243 -0.0263 -0.2175  0.8823
19485TIP3   OH279869   1.851   2.805  16.050 -0.1913  0.3314  0.5021
19485TIP3    H179870   1.860   2.713  16.023 -0.2583  0.8419 -1.3509
19485TIP3    H279871   1.761   2.828  16.028 -0.0013  1.0108  0.4136
19486TIP3   OH279872   6.064   5.914  11.520  0.3943 -0.1809  0.7607
19486TIP3    H179873   6.104   5.827  11.515  1.1884  0.1895  0.4917
19486TIP3    H279874   5.974   5.901  11.491  0.5894 -0.8661  0.4466
19487TIP3   OH279875   1.181   4.892  12.608  0.3911 -0.2202 -0.2897
19487TIP3    H179876   1.097   4.852  12.627  0.1279  0.9790  1.2852
19487TIP3    H279877   1.193   4.881  12.513 -0.7907 -1.7537 -0.2854
19488TIP3   OH279878   6.362   2.046  14.335 -0.5281  0.4930  0.3742
19488TIP3    H179879   6.388   2.085  14.251 -0.9443 -1.0709 -0.5069
19488TIP3    H279880   6.361   2.120  14.396  0.8932  1.4823 -0.7221
19489TIP3   OH279881   5.999   6.415  11.266 -0.5386  0.0458  0.2348
19489TIP3    H179882   5.954   6.468  11.331  1.7384 -0.3424  2.2830
19489TIP3    H279883   6.004   6.328  11.306 -0.2631 -0.5514 -1.0634
19490TIP3   OH279884   5.231   2.111  12.116 -0.0965 -0.6460  0.1133
19490TIP3    H179885   5.268   2.182  12.063 -1.3076  1.0333  1.4452
19490TIP3    H279886   5.281   2.114  12.198 -1.7959  0.3596  1.1544
19491TIP3   OH279887   1.953   0.219   2.406 -0.5915 -0.3695  0.1877
19491TIP3    H179888   1.874   0.271   2.391 -0.8123 -1.6634 -4.7183
19491TIP3    H279889   1.920   0.134   2.434 -0.6553  0.0062  1.3129
19492TIP3   OH279890   1.303   3.857  14.323  0.4044 -0.6085 -0.1020
19492TIP3    H179891   1.241   3.863  14.250 -0.2076  0.5725  0.4833
19492TIP3    H279892   1.389   3.849  14.281  0.0283 -0.3312 -0.9483
19493TIP3   OH279893   2.806   4.560  13.514 -0.3934 -0.1281  0.1652
19493TIP3    H179894   2.772   4.554  13.603  1.9601 -1.6351  1.0506
19493TIP3    H279895   2.772   4.482  13.470  0.4922 -0.7259  0.5286
19494TIP3   OH279896   5.610   6.578  16.169  0.3263  0.6684  0.5186
19494TIP3    H179897   5.679   6.511  16.167 -1.9550 -1.8473 -0.0339
19494TIP3    H279898   5.627   6.627  16.249  1.7720 -1.0062  1.3186
19495TIP3   OH279899   0.454   0.021   1.577  0.5808 -0.3104 -0.3998
19495TIP3    H179900   0.531   0.077   1.573 -0.1115  0.6031 -2.6154
19495TIP3    H279901   0.488  -0.066   1.596  1.8243  0.5243  1.5758
19496TIP3   OH279902   3.569   0.475   6.201  0.3510 -0.1316  0.0826
19496TIP3    H179903   3.535   0.564   6.197  0.9360  0.2626  2.5408
19496TIP3    H279904   3.494   0.420   6.224  0.2233 -0.1159 -0.2933
19497TIP3   OH279905   0.729   1.818  13.381  0.0982 -0.5432  0.0324
19497TIP3    H179906   0.815   1.825  13.423 -0.9960  1.3517  2.1829
19497TIP3    H279907   0.677   1.765  13.442 -1.1346  1.0850  0.4660
19498TIP3   OH279908   4.567   0.435   4.516  0.2104  0.3011  0.0435
19498TIP3    H179909   4.492   0.476   4.558  0.1369 -1.0931  1.3621
19498TIP3    H279910   4.622   0.404   4.588  1.6285  0.5348 -0.9022
19499TIP3   OH279911   3.383   6.311  15.291  0.0978 -0.1401  0.0161
19499TIP3    H179912   3.441   6.307  15.215 -0.1092  1.8900 -0.3084
19499TIP3    H279913   3.442   6.318  15.366  0.2950  0.3497 -0.1807
19500TIP3   OH279914   6.703   6.067  15.063  0.4401  0.0762 -0.4849
19500TIP3    H179915   6.796   6.080  15.081  0.2115  1.9033 -0.4586
19500TIP3    H279916   6.699   5.984  15.015  1.7441 -1.5221  1.9877
19501TIP3   OH279917   5.934   0.178   3.941 -0.5075 -0.2108 -0.3569
19501TIP3    H179918   5.959   0.178   4.033  0.4047 -0.1028 -0.5964
19501TIP3    H279919   5.895   0.264   3.926  1.0421  0.4899 -0.5117
19502TIP3   OH279920   2.659   3.005   5.932  0.6366  0.1667  0.3433
19502TIP3    H179921   2.630   3.069   5.868 -3.0000 -1.7976 -0.2184
19502TIP3    H279922   2.652   3.050   6.016  1.7166  1.5583 -0.2686
19503TIP3   OH279923   4.275   2.574  11.205 -0.2852  0.1931 -0.5145
19503TIP3    H179924   4.287   2.496  11.150 -0.9822 -1.7553  1.9045
19503TIP3    H279925   4.191   2.610  11.179  0.6156  1.0026 -2.5491
19504TIP3   OH279926   3.622   0.926  14.417 -0.2023  0.9710  0.4754
19504TIP3    H179927   3.635   0.876  14.497  0.6878  0.4397  0.0128
19504TIP3    H279928   3.678   1.002  14.426  0.0859  0.7864  0.2564
19505TIP3   OH279929   6.727   6.526  16.986  0.8233  0.0870  0.0807
19505TIP3    H179930   6.759   6.583  16.916 -1.3048  1.5629  0.2042
19505TIP3    H279931   6.707   6.586  17.058  0.6193 -1.1131  1.0491
19506TIP3   OH279932   4.730   0.910  11.474 -0.1949 -0.8174 -0.4164
19506TIP3    H179933   4.668   0.982  11.469  0.3657 -0.2571  0.4805
19506TIP3    H279934   4.799   0.941  11.532 -0.6684 -2.6250  1.2448
19507TIP3   OH279935   3.287   2.916  14.807  0.2192 -0.3566 -0.6976
19507TIP3    H179936   3.243   2.861  14.873  1.0709 -0.9889 -0.6286
19507TIP3    H279937   3.287   2.862  14.728 -0.4666  0.2532 -1.1302
19508TIP3   OH279938   4.988   5.278   0.208  0.2613 -0.0931 -0.1606
19508TIP3    H179939   5.036   5.195   0.217  0.8499  0.2860  0.3234
19508TIP3    H279940   4.937   5.268   0.128 -2.0705 -2.1104  1.4307
19509TIP3   OH279941   0.273   5.847  15.541  0.1469  0.2774 -0.3479
19509TIP3    H179942   0.274   5.841  15.636  0.6938 -1.6279 -0.4421
19509TIP3    H279943   0.202   5.790  15.513  2.2921 -2.1815 -1.1755
19510TIP3   OH279944   3.946   3.835  15.100  0.5315  0.1772 -0.0525
19510TIP3    H179945   3.901   3.915  15.071 -0.1672 -0.3143 -0.3703
19510TIP3    H279946   3.899   3.810  15.180  1.3575  0.5927  0.5740
19511TIP3   OH279947   2.078   0.966   5.578  0.3333  0.2061 -0.4660
19511TIP3    H179948   2.003   0.908   5.569 -0.5472  1.5768 -2.6699
19511TIP3    H279949   2.153   0.907   5.581 -0.6502 -1.1110 -0.6928
19512TIP3   OH279950   0.631   1.786   1.631 -0.0326 -0.1678  0.2217
19512TIP3    H179951   0.725   1.782   1.611 -0.0961 -0.0449 -0.1092
19512TIP3    H279952   0.589   1.756   1.550 -0.3451  1.6509 -0.3262
19513TIP3   OH279953   2.157   0.280  15.262 -0.0746  0.3734  0.2537
19513TIP3    H179954   2.125   0.355  15.312 -0.8457  1.2945 -1.5283
19513TIP3    H279955   2.120   0.292  15.175  1.9353 -0.6667 -0.8092
19514TIP3   OH279956   4.026   6.063  11.730 -0.0261 -0.0981  0.6109
19514TIP3    H179957   4.032   5.974  11.765 -1.1711 -0.0216  1.0646
19514TIP3    H279958   3.990   6.052  11.642  0.0115 -0.1013  0.5958
19515TIP3   OH279959   6.523   1.230  13.658 -0.7852 -0.1333  0.3626
19515TIP3    H179960   6.470   1.194  13.587 -0.9036 -0.7476  0.7573
19515TIP3    H279961   6.566   1.306  13.619  0.2421 -1.2560 -0.7888
19516TIP3   OH279962   1.544   3.319   5.112  0.4706  0.2617  0.3838
19516TIP3    H179963   1.549   3.345   5.020  1.8214  1.0916  0.6605
19516TIP3    H279964   1.484   3.244   5.113  0.3619  0.3027 -1.1503
19517TIP3   OH279965   6.653   2.584  14.397 -0.0533 -0.0492 -0.1162
19517TIP3    H179966   6.594   2.572  14.472 -0.3188 -0.0277 -0.3215
19517TIP3    H279967   6.739   2.597  14.437 -0.0782 -0.6988  0.1709
19518TIP3   OH279968   6.232   3.121  10.945 -0.4140 -0.2921  0.3715
19518TIP3    H179969   6.240   3.217  10.948  1.3347 -0.4304  1.5322
19518TIP3    H279970   6.289   3.095  10.873  3.1628 -0.6998  3.0965
19519TIP3   OH279971   4.687   6.319   3.333 -0.4163 -0.1800 -0.3010
19519TIP3    H179972   4.708   6.233   3.369  0.1929  0.6783  1.4878
19519TIP3    H279973   4.748   6.379   3.376  0.6959  0.9163 -3.1108
19520TIP3   OH279974   2.972   0.962  13.819 -0.3586 -0.4050 -0.1006
19520TIP3    H179975   2.916   0.992  13.748 -0.9114  0.1789  0.5606
19520TIP3    H279976   3.000   1.042  13.863 -0.5231 -0.7729  0.6957
19521TIP3   OH279977   2.044   6.428  16.180  0.1788 -0.5255  0.4301
19521TIP3    H179978   2.111   6.394  16.121 -1.2383 -1.5436 -0.6735
19521TIP3    H279979   1.961   6.404  16.138 -0.8849  0.0054  2.1268
19522TIP3   OH279980   2.435   3.182   1.440  0.1264 -0.1471 -0.1548
19522TIP3    H179981   2.488   3.130   1.379  0.6487 -0.6221  0.6880
19522TIP3    H279982   2.345   3.155   1.422  0.4129 -1.6544  0.5254
19523TIP3   OH279983   1.670   5.078   1.760 -0.0492  0.0243  0.5800
19523TIP3    H179984   1.617   5.009   1.719  0.5105 -0.5693  0.8461
19523TIP3    H279985   1.608   5.128   1.813 -0.0718 -1.7942  2.3920
19524TIP3   OH279986   4.529   1.637   3.746  0.7674  0.0763  0.1901
19524TIP3    H179987   4.500   1.699   3.679  1.2452 -1.4397 -1.4859
19524TIP3    H279988   4.457   1.575   3.755 -0.0203  1.1966  2.4010
19525TIP3   OH279989   5.419   3.764   0.889  0.3220  0.1718 -0.0185
19525TIP3    H179990   5.388   3.754   0.799  0.2785  0.2295 -0.0092
19525TIP3    H279991   5.386   3.686   0.935  2.7243 -1.3849 -0.7271
19526TIP3   OH279992   3.496   0.779  14.104  0.0135 -0.4228  0.0805
19526TIP3    H179993   3.427   0.844  14.093  0.3259  0.4901  2.7879
19526TIP3    H279994   3.474   0.710  14.041 -3.0992  0.0380  0.5092
19527TIP3   OH279995   4.118   3.928   2.509  0.2453 -0.3722 -0.1821
19527TIP3    H179996   4.108   3.867   2.436 -0.8629 -0.5899  0.1351
19527TIP3    H279997   4.087   3.879   2.586  0.6609  0.1162  0.3000
19528TIP3   OH279998   1.623   3.304  13.937  0.2584 -0.1832  0.3693
19528TIP3    H179999   1.669   3.260  13.865 -0.0972 -0.7535  0.4828
19528TIP3    H280000   1.562   3.363  13.893  0.6582  0.1279  0.2147
19529TIP3   OH280001   6.648   4.690   0.837  0.1834 -0.1357 -0.0685
19529TIP3    H180002   6.617   4.634   0.909  0.4939  0.9928  0.9834
19529TIP3    H280003   6.649   4.778   0.875 -1.7299  0.8552 -2.1075
19530TIP3   OH280004   0.806   5.245   3.342  0.3095  0.2193  0.7549
19530TIP3    H180005   0.733   5.200   3.299  0.8776  0.6362 -0.6970
19530TIP3    H280006   0.883   5.193   3.319  0.4820 -0.2527  2.3304
19531TIP3   OH280007   5.512   4.901   0.598 -0.1234 -0.1723  0.1025
19531TIP3    H180008   5.514   4.996   0.589 -2.7841 -0.2366 -3.3052
19531TIP3    H280009   5.567   4.869   0.526  1.3832 -1.2956  1.6838
19532TIP3   OH280010   1.641   5.899  14.944  0.2813  0.2529 -0.7811
19532TIP3    H180011   1.560   5.860  14.975  0.7962 -0.4698 -0.3014
19532TIP3    H280012   1.665   5.962  15.012  0.1925  0.3615 -0.8518
19533TIP3   OH280013   5.502   3.145  12.296  0.3574  0.3953  0.0031
19533TIP3    H180014   5.515   3.197  12.216  1.6980 -1.4321 -1.0285
19533TIP3    H280015   5.590   3.131  12.330 -0.1179  0.1650  1.1848
19534TIP3   OH280016   4.134   2.455   2.806 -0.1827  0.7747 -0.5503
19534TIP3    H180017   4.143   2.491   2.894  0.9579  0.8017 -0.6553
19534TIP3    H280018   4.045   2.420   2.802 -0.5872  1.6924  0.2613
19535TIP3   OH280019   4.988   2.884   0.752  0.3273 -0.3092 -0.3748
19535TIP3    H180020   4.990   2.970   0.794 -0.1560  0.0149 -0.9967
19535TIP3    H280021   4.895   2.866   0.738  0.3954 -1.1662  0.2065
19536TIP3   OH280022   6.693   5.840   0.372 -0.1893 -0.0168 -0.4693
19536TIP3    H180023   6.633   5.893   0.319 -1.1449 -1.8592 -1.3276
19536TIP3    H280024   6.680   5.751   0.341 -0.2016 -1.0929  2.3362
19537TIP3   OH280025   0.979   3.322  13.848  0.6470 -0.0967  0.1116
19537TIP3    H180026   1.052   3.261  13.838  1.4511  0.8053  0.3377
19537TIP3    H280027   0.953   3.343  13.758 -0.5361 -1.7761  0.0083
19538TIP3   OH280028   1.750   3.211   5.546  0.0312 -0.5625  0.0103
19538TIP3    H180029   1.770   3.300   5.575  1.3103  0.0182 -2.4209
19538TIP3    H280030   1.741   3.218   5.451 -2.3827 -2.6022 -0.0225
19539TIP3   OH280031   1.877   4.542   4.017  0.3646  0.9197 -0.2596
19539TIP3    H180032   1.806   4.506   4.070 -0.6258 -0.9048 -2.6842
19539TIP3    H280033   1.863   4.637   4.021 -2.4256  0.6099 -0.8893
19540TIP3   OH280034   3.721   5.684  14.879  0.6085  0.0827 -0.5310
19540TIP3    H180035   3.729   5.651  14.790  1.7363 -0.2644 -0.3217
19540TIP3    H280036   3.725   5.779  14.871  1.6954  0.0233 -0.7726
19541TIP3   OH280037   6.698   0.831  12.138  0.3631  0.5993 -0.5644
19541TIP3    H180038   6.646   0.815  12.059 -0.0366 -1.7881  0.0901
19541TIP3    H280039   6.639   0.808  12.210  1.9405 -1.2121  0.2318
19542TIP3   OH280040   2.790   3.673  11.327  0.1171  0.2243 -1.2428
19542TIP3    H180041   2.817   3.606  11.391 -1.7537  0.4808 -0.1029
19542TIP3    H280042   2.844   3.655  11.250  0.5259 -1.8524 -0.5510
19543TIP3   OH280043   4.721   2.697   4.321  0.0559  0.1534  0.5538
19543TIP3    H180044   4.685   2.731   4.403 -1.3340  3.4677 -1.1930
19543TIP3    H280045   4.811   2.730   4.318  0.5075 -0.9874  1.2343
19544TIP3   OH280046   0.335   6.600   5.359 -0.1627 -0.1100 -0.3674
19544TIP3    H180047   0.313   6.693   5.372 -1.9507 -0.4722 -0.5700
19544TIP3    H280048   0.312   6.558   5.442  0.8902 -0.3680 -0.1824
19545TIP3   OH280049   4.776   2.322  11.748  0.6554 -0.2174 -0.0560
19545TIP3    H180050   4.788   2.255  11.816 -1.1450  0.3969  0.9452
19545TIP3    H280051   4.765   2.404  11.798 -0.1638  0.3358 -1.1180
19546TIP3   OH280052   4.288   6.668  15.328  0.0326  0.5074 -0.0875
19546TIP3    H180053   4.315   6.665  15.419 -1.6449  0.7064  0.4590
19546TIP3    H280054   4.301   6.759  15.302  2.2229  0.0902 -0.6543
19547TIP3   OH280055   6.033   1.413   3.272 -0.0635  0.4173 -0.1559
19547TIP3    H180056   6.079   1.484   3.227  0.5597 -0.4804 -0.9907
19547TIP3    H280057   6.087   1.395   3.349 -0.8954  1.6597  0.7645
19548TIP3   OH280058   1.933   4.746  14.292  0.5260  0.5768 -0.5440
19548TIP3    H180059   1.895   4.809  14.354  1.1614 -0.8470  1.3993
19548TIP3    H280060   2.026   4.769  14.289  0.5823  0.3333 -0.6140
19549TIP3   OH280061   4.636   4.610  13.191  0.3158 -0.8241  0.7679
19549TIP3    H180062   4.723   4.636  13.161 -0.1649 -0.6653 -0.5407
19549TIP3    H280063   4.603   4.687  13.237 -0.0258 -0.0419 -0.7350
19550TIP3   OH280064   2.416   4.169   4.695  0.0516 -0.3594 -0.4573
19550TIP3    H180065   2.510   4.189   4.698  0.1308 -0.5841 -1.3284
19550TIP3    H280066   2.375   4.252   4.670  0.0738 -0.4167 -0.6844
19551TIP3   OH280067   4.454   5.657   0.976  0.9462 -0.0914  0.4540
19551TIP3    H180068   4.524   5.599   0.943  0.8432  0.6372 -1.1720
19551TIP3    H280069   4.499   5.739   0.996  0.5231  0.6162 -1.2645
19552TIP3   OH280070   6.380   3.849  11.995  0.1727 -0.2298 -0.2982
19552TIP3    H180071   6.307   3.881  11.942 -0.1488  0.7943  0.7358
19552TIP3    H280072   6.352   3.860  12.085  1.2868 -0.5925  0.1173
19553TIP3   OH280073   6.255   3.591  13.611 -0.0556  0.2951  0.0329
19553TIP3    H180074   6.231   3.674  13.652  0.7993  0.4067  0.3244
19553TIP3    H280075   6.348   3.601  13.589  0.5316 -1.2010  1.6135
19554TIP3   OH280076   4.839   0.382  14.303  0.0616 -0.2058  0.1617
19554TIP3    H180077   4.828   0.350  14.214 -2.1145  1.6050 -0.3040
19554TIP3    H280078   4.892   0.461  14.294  0.3195 -0.3326  0.5457
19555TIP3   OH280079   4.227   5.514   1.536  0.0032 -0.2606  0.1831
19555TIP3    H180080   4.225   5.610   1.539  0.3452 -0.2611  0.3799
19555TIP3    H280081   4.240   5.494   1.443  1.2111 -0.0954  0.3078
19556TIP3   OH280082   2.137   4.371   0.227  0.4009  0.3531 -0.0172
19556TIP3    H180083   2.063   4.373   0.167  0.4616 -2.1193 -0.2704
19556TIP3    H280084   2.214   4.384   0.172  0.4107 -1.2685 -0.4315
19557TIP3   OH280085   3.656   1.423   3.459 -0.3822 -0.6368  0.5433
19557TIP3    H180086   3.562   1.404   3.459 -0.6592  0.6103  0.2710
19557TIP3    H280087   3.698   1.338   3.473 -1.5488 -1.2019  0.7471
19558TIP3   OH280088   6.655   1.278  12.018 -0.2845  0.3705 -0.4332
19558TIP3    H180089   6.588   1.211  12.005 -2.3339  2.1940  0.1529
19558TIP3    H280090   6.737   1.235  11.993 -1.9608 -1.0355 -4.2390
19559TIP3   OH280091   0.847   1.363   3.946  0.4513 -0.3633  0.0065
19559TIP3    H180092   0.818   1.386   4.034  0.1078  0.8073 -0.3942
19559TIP3    H280093   0.847   1.446   3.898  1.8027 -0.7796 -0.7673
19560TIP3   OH280094   2.208   3.009   5.406  0.0517  0.4139  0.0503
19560TIP3    H180095   2.141   3.039   5.345  1.2267 -0.1774 -1.6109
19560TIP3    H280096   2.291   3.031   5.363  0.9161 -1.6860  0.5213
19561TIP3   OH280097   5.172   2.458   3.319 -0.2084  0.0045  0.1541
19561TIP3    H180098   5.221   2.488   3.396  0.5051 -2.7116  0.8861
19561TIP3    H280099   5.238   2.447   3.251 -0.4828  0.2666 -0.1596
19562TIP3   OH280100   2.994   0.922  10.537  0.1453 -0.5160  0.4142
19562TIP3    H180101   2.988   0.971  10.619  1.5285 -1.9349  1.4197
19562TIP3    H280102   3.086   0.897  10.531  0.0873 -0.4186 -1.6175
19563TIP3   OH280103   2.714   1.598  10.346 -0.2233  0.5834  0.2821
19563TIP3    H180104   2.738   1.687  10.373  0.7841  0.7299 -0.9948
19563TIP3    H280105   2.751   1.589  10.258  0.9783 -1.6160  0.9452
19564TIP3   OH280106   1.580   4.491   0.102 -0.8233  0.5880 -0.4637
19564TIP3    H180107   1.545   4.551   0.037  0.8020  3.3881  1.0817
19564TIP3    H280108   1.542   4.519   0.185  1.2148  0.6131  0.5437
19565TIP3   OH280109   5.835   5.107  16.491  0.3255  0.2940  0.1450
19565TIP3    H180110   5.772   5.059  16.545  0.3187 -0.9465 -0.9131
19565TIP3    H280111   5.893   5.039  16.456  0.4865  1.0928 -1.1935
19566TIP3   OH280112   3.106   5.538   0.760  0.1217 -0.1422 -0.1727
19566TIP3    H180113   3.096   5.461   0.704 -2.1042  1.5702 -2.3858
19566TIP3    H280114   3.190   5.576   0.735  0.0759 -0.5101 -0.9055
19567TIP3   OH280115   1.243   3.506   1.939 -0.4196 -0.3540  0.2438
19567TIP3    H180116   1.183   3.570   1.899 -0.4945  1.3333  2.8370
19567TIP3    H280117   1.222   3.508   2.032  1.9537 -1.6396  0.8897
19568TIP3   OH280118   5.319   0.254  10.986 -0.1409  0.0833  0.5605
19568TIP3    H180119   5.340   0.167  11.020  0.4059  0.6969  1.8802
19568TIP3    H280120   5.248   0.239  10.923 -2.2974 -1.0168  3.0262
19569TIP3   OH280121   1.742   3.189   6.210 -0.6451  0.3563 -0.0561
19569TIP3    H180122   1.723   3.103   6.173  2.1967 -0.3510 -0.0836
19569TIP3    H280123   1.826   3.179   6.255 -0.1221  3.1202 -0.1885
19570TIP3   OH280124   4.249   5.311   0.433  0.6093 -0.2311 -0.3695
19570TIP3    H180125   4.187   5.378   0.403  2.5055  1.6957 -0.2950
19570TIP3    H280126   4.240   5.311   0.528  0.1927 -0.5209 -0.4073
19571TIP3   OH280127   2.805   4.169  14.119 -0.0992  0.0646  1.0167
19571TIP3    H180128   2.806   4.152  14.024 -0.5372 -2.1655  1.3668
19571TIP3    H280129   2.841   4.257  14.127  1.8380 -0.4306 -1.0742
19572TIP3   OH280130   4.908   2.577  13.135  0.1252 -0.5883  0.1836
19572TIP3    H180131   4.858   2.639  13.189  1.6504 -0.8885  2.0554
19572TIP3    H280132   4.991   2.622  13.119  1.1977 -2.0442  1.4512
19573TIP3   OH280133   5.718   2.229  11.553 -0.3286  0.1050 -0.0797
19573TIP3    H180134   5.772   2.152  11.572 -0.3201 -0.0777 -0.8249
19573TIP3    H280135   5.633   2.193  11.531  0.1350  0.1707 -2.1838
19574TIP3   OH280136   6.705   2.020  11.772 -0.1891  0.2432  0.0089
19574TIP3    H180137   6.694   2.067  11.689  1.6297 -0.0056 -0.4162
19574TIP3    H280138   6.735   2.086  11.834  0.1256  0.0969  0.0140
19575TIP3   OH280139   4.202   0.454   5.069  0.5496  0.4004 -0.2693
19575TIP3    H180140   4.192   0.374   5.018  0.6529  0.8340 -0.9861
19575TIP3    H280141   4.172   0.524   5.010  0.6969  0.9098  0.2531
19576TIP3   OH280142   5.014   2.145  13.813 -0.1666 -0.1902  0.0644
19576TIP3    H180143   5.065   2.079  13.767  1.0221  0.1480  0.8492
19576TIP3    H280144   4.926   2.108  13.817  0.4650 -1.7449  0.4982
19577TIP3   OH280145   5.660   3.340   0.114  0.4704 -0.2348 -0.0229
19577TIP3    H180146   5.579   3.316   0.068  1.4672 -1.5224 -1.1940
19577TIP3    H280147   5.651   3.297   0.200  0.0838 -0.7141 -0.2931
19578TIP3   OH280148   4.894   1.419  16.291  0.2782 -0.2862 -0.5268
19578TIP3    H180149   4.833   1.463  16.350  0.1710  0.8570 -1.4594
19578TIP3    H280150   4.930   1.348  16.344  0.3503  0.8164  0.9936
19579TIP3   OH280151   1.739   0.253  16.693 -0.0155  0.1034  0.6208
19579TIP3    H180152   1.773   0.180  16.642 -0.1363 -0.1077  0.8416
19579TIP3    H280153   1.804   0.266  16.763  0.6586  1.0295 -0.1468
19580TIP3   OH280154   4.036   4.194   3.065  0.1064  0.3799  0.0007
19580TIP3    H180155   4.080   4.192   3.150  0.0508  0.0251  0.0216
19580TIP3    H280156   4.063   4.114   3.022 -0.0989  0.4181 -0.1999
19581TIP3   OH280157   4.705   3.791   3.007 -0.7462  0.0005  0.3003
19581TIP3    H180158   4.716   3.711   3.058 -0.9553  0.7979  1.6488
19581TIP3    H280159   4.687   3.761   2.918  2.3093 -1.4452  0.0241
19582TIP3   OH280160   3.405   0.760   3.955  0.0507  0.0492  0.2435
19582TIP3    H180161   3.363   0.681   3.989  0.6026  0.4804  2.0218
19582TIP3    H280162   3.355   0.781   3.876 -1.7690 -0.5995  1.1610
19583TIP3   OH280163   5.945   5.291  14.202  0.3084  0.5837  0.1383
19583TIP3    H180164   6.007   5.309  14.273  1.1856 -0.5487 -0.3156
19583TIP3    H280165   5.992   5.314  14.122 -0.5674  1.5596 -0.1137
19584TIP3   OH280166   1.796   3.345  13.087 -0.1005 -0.4934 -0.0914
19584TIP3    H180167   1.868   3.321  13.028  1.0408 -3.0265  2.1307
19584TIP3    H280168   1.835   3.404  13.150  0.1057 -1.9035  1.1460
19585TIP3   OH280169   0.032   1.944  14.858 -0.6666  0.5037  0.6757
19585TIP3    H180170   0.054   1.971  14.769  0.1256 -1.9615  0.0392
19585TIP3    H280171  -0.054   1.982  14.875 -2.1218 -1.1953 -2.2429
19586TIP3   OH280172   2.999   2.466   2.219 -0.3182  0.1439 -0.0175
19586TIP3    H180173   2.951   2.548   2.210  2.1819  1.7887  0.7235
19586TIP3    H280174   3.086   2.485   2.185  0.4233 -2.1555  0.4183
19587TIP3   OH280175   1.589   4.846  13.790 -0.1030 -0.2362 -0.0911
19587TIP3    H180176   1.505   4.891  13.789 -0.5347 -1.0109 -0.2039
19587TIP3    H280177   1.566   4.755  13.812  0.4945 -0.8628 -1.8913
19588TIP3   OH280178   1.050   4.193   5.710 -0.2049  0.3134  0.2007
19588TIP3    H180179   1.016   4.242   5.785  0.0475  0.3588  0.2880
19588TIP3    H280180   1.133   4.236   5.689 -0.8594  1.0828 -0.8952
19589TIP3   OH280181   4.573   5.148   0.517  0.0767  0.7317  0.6946
19589TIP3    H180182   4.640   5.195   0.566  0.3442  0.8084  0.2618
19589TIP3    H280183   4.570   5.061   0.555  0.9991  0.4679  0.1817
19590TIP3   OH280184   3.838   2.151  15.388  0.1463  0.9937 -0.3462
19590TIP3    H180185   3.824   2.187  15.301  1.7411  0.8435 -0.6925
19590TIP3    H280186   3.765   2.090  15.401  0.3699  0.3288 -1.9636
19591TIP3   OH280187   5.777   1.872  16.878  0.0952  0.4249  0.3509
19591TIP3    H180188   5.820   1.871  16.963  1.0040  0.9997 -0.0875
19591TIP3    H280189   5.741   1.961  16.870 -0.2114  0.2941  0.2347
19592TIP3   OH280190   2.570   1.607   4.630 -0.1221 -0.8620  0.4973
19592TIP3    H180191   2.596   1.691   4.669  0.5314 -1.5914  1.6655
19592TIP3    H280192   2.647   1.579   4.580  0.3385 -1.6207  1.5922
19593TIP3   OH280193   6.518   5.447  16.291  0.0606  0.4047  0.2964
19593TIP3    H180194   6.424   5.434  16.279  0.3146 -1.0831 -0.2941
19593TIP3    H280195   6.543   5.508  16.221 -0.6091  1.5896  1.0617
19594TIP3   OH280196   5.157   1.076  13.496  0.0732 -0.6025  0.0368
19594TIP3    H180197   5.067   1.047  13.509 -0.7825  0.4434 -2.6361
19594TIP3    H280198   5.148   1.166  13.463  2.3536  1.1556  3.5811
19595TIP3   OH280199   4.630   3.966   2.694  0.4028 -0.0144  0.6424
19595TIP3    H180200   4.615   3.871   2.687  0.2281  0.1046 -1.3884
19595TIP3    H280201   4.582   3.992   2.772 -1.7421 -1.2404 -0.1612
19596TIP3   OH280202   3.506   1.708  16.310 -0.2422 -0.4359  0.5571
19596TIP3    H180203   3.577   1.771  16.297 -0.1326 -0.7037 -0.1746
19596TIP3    H280204   3.447   1.723  16.237 -0.6947 -0.5501  0.8963
19597TIP3   OH280205   3.052   2.552   1.861  0.0660  0.4053 -0.0468
19597TIP3    H180206   3.124   2.518   1.914 -0.4445 -1.5520 -0.5303
19597TIP3    H280207   3.091   2.562   1.774 -0.3129 -1.1555 -0.4365
19598TIP3   OH280208   3.749   3.904   5.625 -0.1215  0.5023 -0.4610
19598TIP3    H180209   3.716   3.849   5.554  0.4456  1.2411 -1.3181
19598TIP3    H280210   3.689   3.886   5.699  0.0724 -1.2681 -0.6857
19599TIP3   OH280211   6.722   4.042   1.820 -0.2192  0.0240 -0.2896
19599TIP3    H180212   6.638   4.008   1.789 -0.3587 -0.4219  0.5629
19599TIP3    H280213   6.708   4.136   1.829 -0.9575 -0.1831  0.8639
19600TIP3   OH280214   6.598   4.119  14.741  0.0509 -0.6533  0.0592
19600TIP3    H180215   6.504   4.125  14.720  0.4513 -0.2603 -1.8270
19600TIP3    H280216   6.633   4.058  14.677  1.5035  1.1131 -0.9405
19601TIP3   OH280217   3.243   5.552   6.665 -0.0639 -0.0843  0.4123
19601TIP3    H180218   3.332   5.575   6.690 -0.1014  2.1302 -1.2003
19601TIP3    H280219   3.193   5.633   6.676 -1.8405 -1.2118  1.0244
19602TIP3   OH280220   5.129   3.976  17.026  0.2025 -0.6298  0.5601
19602TIP3    H180221   5.193   4.045  17.008  1.1727 -1.5756  0.2317
19602TIP3    H280222   5.182   3.896  17.034 -1.0195 -1.6243 -0.7636
19603TIP3   OH280223   6.185   5.090   1.659  0.4501  0.5620 -0.3416
19603TIP3    H180224   6.236   5.066   1.581  3.0938  0.7392  1.2126
19603TIP3    H280225   6.152   5.178   1.639 -0.9806 -0.2981 -2.1449
19604TIP3   OH280226   0.603   2.092   0.673  0.0740 -1.0321 -0.6408
19604TIP3    H180227   0.524   2.063   0.718 -0.0794  0.9802  0.4936
19604TIP3    H280228   0.600   2.047   0.588 -1.9485 -1.4792 -0.3839
19605TIP3   OH280229   0.277   4.315  13.120  0.1150  0.5755 -0.3118
19605TIP3    H180230   0.369   4.307  13.093 -0.4158 -0.8806 -1.8479
19605TIP3    H280231   0.244   4.225  13.119 -0.8719  0.8419  2.0448
19606TIP3   OH280232   6.724   4.852  16.268  0.2824 -0.1236 -0.8843
19606TIP3    H180233   6.780   4.928  16.283  0.0767 -0.3340  1.1900
19606TIP3    H280234   6.636   4.884  16.288  0.5468 -1.7856  4.2526
19607TIP3   OH280235   5.291   0.234   2.876 -0.2225  0.1764 -0.2173
19607TIP3    H180236   5.301   0.140   2.890 -2.9031 -0.0127  1.0103
19607TIP3    H280237   5.381   0.267   2.868  0.8557 -2.2392  0.9783
19608TIP3   OH280238   2.846   4.813   1.836 -0.4536  0.0101  0.1339
19608TIP3    H180239   2.906   4.782   1.768  0.8789  1.8356  0.4037
19608TIP3    H280240   2.803   4.889   1.797 -0.4845  0.4184  0.9397
19609TIP3   OH280241   2.707   5.529   5.846  0.2740 -0.0547 -0.6020
19609TIP3    H180242   2.626   5.527   5.794  1.0163  1.5449 -1.9028
19609TIP3    H280243   2.751   5.446   5.823 -0.4424 -0.3919 -0.7938
19610TIP3   OH280244   6.182   4.376   6.341 -0.6685  0.6308 -0.6595
19610TIP3    H180245   6.092   4.383   6.373 -1.1338  0.1559 -1.8371
19610TIP3    H280246   6.216   4.466   6.347 -1.3499  0.8908 -0.6076
19611TIP3   OH280247   5.855   4.314   1.802 -0.1472  0.7579  0.0439
19611TIP3    H180248   5.776   4.365   1.817  0.3386  1.5752 -0.0987
19611TIP3    H280249   5.907   4.367   1.742 -0.2540 -0.5699 -1.3105
19612TIP3   OH280250   5.320   5.117   2.382  0.5881  0.1103  0.6651
19612TIP3    H180251   5.234   5.084   2.355  1.2308 -0.8524 -0.2701
19612TIP3    H280252   5.301   5.175   2.456 -0.9147  0.3397  0.1332
19613TIP3   OH280253   1.126   5.465  11.622  0.4243  0.3801  0.3709
19613TIP3    H180254   1.072   5.527  11.574 -0.7243 -0.9165 -0.0475
19613TIP3    H280255   1.200   5.447  11.564  0.7607  1.2919  0.4869
19614TIP3   OH280256   5.219   4.293   0.379 -0.0356 -0.3989  0.0765
19614TIP3    H180257   5.261   4.281   0.464  1.2112  0.3819 -0.4033
19614TIP3    H280258   5.261   4.229   0.321  0.7326  0.5678 -0.4706
19615TIP3   OH280259   3.202   5.883  14.920  0.0379  0.1265  0.1708
19615TIP3    H180260   3.239   5.808  14.966  1.1963  0.6252  0.0756
19615TIP3    H280261   3.206   5.860  14.827 -0.9949 -0.2952  0.2152
19616TIP3   OH280262   6.345   1.856  12.499  0.1210 -0.0138  0.2305
19616TIP3    H180263   6.357   1.830  12.408 -0.8277  1.5986 -0.3865
19616TIP3    H280264   6.419   1.816  12.545 -0.3282 -2.3022 -0.9055
19617TIP3   OH280265   0.401   1.024  14.309  0.0909 -0.2979 -0.6076
19617TIP3    H180266   0.481   1.034  14.359 -0.5481 -1.6461  0.7501
19617TIP3    H280267   0.337   1.078  14.355 -0.6119 -1.8889  0.3577
19618TIP3   OH280268   2.602   3.418   1.411 -0.3810  0.3731  0.3010
19618TIP3    H180269   2.562   3.498   1.377 -1.4473 -0.0559  0.5052
19618TIP3    H280270   2.536   3.350   1.395  0.1017 -0.2802  1.0298
19619TIP3   OH280271   2.824   2.457   0.081 -0.2575 -0.1296 -0.3406
19619TIP3    H180272   2.764   2.387   0.106  0.1713 -0.1198  0.8010
19619TIP3    H280273   2.880   2.469   0.158  0.5223  0.5780 -0.9935
19620TIP3   OH280274   2.598   1.180  13.453 -0.6748 -0.1076 -0.4214
19620TIP3    H180275   2.582   1.131  13.534 -0.7734 -0.2978 -0.5543
19620TIP3    H280276   2.581   1.271  13.475 -1.3006 -0.2302 -0.3890
19621TIP3   OH280277   3.530   3.850  13.876  0.3548 -0.1888  0.3854
19621TIP3    H180278   3.601   3.909  13.850  2.1875 -2.0121  0.9319
19621TIP3    H280279   3.539   3.842  13.971 -2.5255  1.8014  0.9578
19622TIP3   OH280280   3.591   4.502   1.261 -0.0764 -0.4706  0.2764
19622TIP3    H180281   3.556   4.423   1.220  0.1607 -0.6719  0.4579
19622TIP3    H280282   3.679   4.512   1.224  0.1515 -0.6709  0.7445
19623TIP3   OH280283   0.964   0.473   1.613  0.1758 -0.4221  0.4006
19623TIP3    H180284   0.946   0.399   1.672 -0.8094 -2.5749 -2.3786
19623TIP3    H280285   1.059   0.480   1.612  0.2561 -1.2398  1.2029
19624TIP3   OH280286   3.514   2.178   1.029 -0.2348  0.0949  0.2626
19624TIP3    H180287   3.433   2.171   1.080 -1.2847 -1.0727 -1.4186
19624TIP3    H280288   3.574   2.115   1.070 -0.8248 -0.3411  0.4790
19625TIP3   OH280289   4.847   4.950  16.721 -0.5110  0.8393 -0.1223
19625TIP3    H180290   4.921   4.924  16.667 -2.3501  1.4633 -3.2411
19625TIP3    H280291   4.871   4.926  16.810  3.1744  0.6084 -1.0463
19626TIP3   OH280292   5.288   4.724   4.267 -0.0778 -0.0239  1.0489
19626TIP3    H180293   5.350   4.678   4.210 -0.0140  1.8134 -0.4520
19626TIP3    H280294   5.202   4.691   4.239  0.0123  0.2057  0.4736
19627TIP3   OH280295   5.567   5.797  13.659  0.2712  0.0493 -0.6938
19627TIP3    H180296   5.578   5.794  13.754 -1.5991  1.6228 -0.3568
19627TIP3    H280297   5.646   5.841  13.627  1.3482 -1.3170 -0.0115
19628TIP3   OH280298   1.511   3.421  16.652 -0.0983  0.2468 -0.1627
19628TIP3    H180299   1.496   3.330  16.675  1.1339  0.1605  0.3628
19628TIP3    H280300   1.541   3.462  16.734 -0.5631  1.1064 -0.4037
19629TIP3   OH280301   1.888   0.998   3.680  0.3750 -0.0953 -0.2873
19629TIP3    H180302   1.941   0.983   3.758 -0.9672 -3.0583  0.2061
19629TIP3    H280303   1.850   1.085   3.693  1.2698  0.0575  1.6786
19630TIP3   OH280304   3.988   5.179  13.959 -0.6815  0.2999  0.1639
19630TIP3    H180305   4.077   5.216  13.954 -1.2223  1.7362  0.7541
19630TIP3    H280306   3.963   5.164  13.868  0.8516 -1.9546  0.0095
19631TIP3   OH280307   4.838   2.044  14.956  0.0395  0.0058 -0.6473
19631TIP3    H180308   4.792   2.103  15.016  0.0546  0.6703 -1.2778
19631TIP3    H280309   4.838   1.960  15.001 -2.4195 -0.2149 -0.9230
19632TIP3   OH280310   3.394   0.510  12.975 -0.6254 -0.4971  0.7175
19632TIP3    H180311   3.444   0.469  13.046  0.7689 -1.2543 -0.6414
19632TIP3    H280312   3.303   0.487  12.993 -0.1907 -1.4962  1.7347
19633TIP3   OH280313   5.520   2.638  14.088 -0.5969 -0.2440  0.6033
19633TIP3    H180314   5.606   2.661  14.052 -1.0155  1.1464  0.4327
19633TIP3    H280315   5.510   2.695  14.164 -0.1307 -2.4770  2.4733
19634TIP3   OH280316   6.609   3.522  14.209 -0.2538 -0.1728  0.3609
19634TIP3    H180317   6.615   3.435  14.170 -1.8218  0.1040 -0.5676
19634TIP3    H280318   6.688   3.567  14.178 -0.2607 -0.7316 -0.5108
19635TIP3   OH280319   1.800   6.626   4.043  0.0180  0.1759 -0.1213
19635TIP3    H180320   1.739   6.566   4.086 -0.5080  0.7854 -0.0042
19635TIP3    H280321   1.856   6.658   4.113  0.5694 -0.4871 -0.2502
19636TIP3   OH280322   1.404   6.487   5.852  0.1881 -0.3812  0.3234
19636TIP3    H180323   1.416   6.416   5.790  0.5912  0.8615 -1.0757
19636TIP3    H280324   1.408   6.567   5.799 -0.6827  0.6847  1.7689
19637TIP3   OH280325   2.111   4.984   0.690  0.3164 -0.1916  0.5664
19637TIP3    H180326   2.043   4.977   0.624 -1.3630  0.1344  2.1790
19637TIP3    H280327   2.138   4.893   0.706 -0.5645 -0.4468  0.6883
19638TIP3   OH280328   2.282   6.425  15.367 -0.1133 -0.2798 -0.2803
19638TIP3    H180329   2.304   6.332  15.360  0.3547 -0.2018  0.0754
19638TIP3    H280330   2.363   6.466  15.399 -0.2246  0.2909 -0.7179
19639TIP3   OH280331   0.365   4.199   5.410 -0.0842  0.2942  0.3803
19639TIP3    H180332   0.377   4.270   5.346  1.0217  0.0877  0.3382
19639TIP3    H280333   0.287   4.153   5.380  0.1085  0.5300 -0.5134
19640TIP3   OH280334   5.181   6.282   1.900 -0.0889  0.0928 -0.6706
19640TIP3    H180335   5.151   6.199   1.938 -0.2574 -0.0362 -1.0831
19640TIP3    H280336   5.105   6.340   1.906  0.2746  0.4862  0.3788
19641TIP3   OH280337   1.826   2.260  14.975 -0.2089  0.0353 -0.1598
19641TIP3    H180338   1.917   2.259  14.944 -0.4686  1.2909 -1.0325
19641TIP3    H280339   1.800   2.167  14.974  0.4827 -0.1774 -1.6960
19642TIP3   OH280340   0.504   4.653  12.950  0.2329 -0.1289 -0.0184
19642TIP3    H180341   0.454   4.646  13.031  1.2738 -1.4851  0.5358
19642TIP3    H280342   0.564   4.579  12.952  0.7347  0.1893 -1.7260
19643TIP3   OH280343   2.177   6.687  14.767  0.4452 -0.3079  0.3893
19643TIP3    H180344   2.127   6.613  14.802 -1.8828  0.2506 -1.4521
19643TIP3    H280345   2.209   6.656  14.682 -1.1964  0.9513 -0.7497
19644TIP3   OH280346   4.423   2.989   3.943 -0.3059  0.1029  0.5677
19644TIP3    H180347   4.457   2.934   4.014  1.5511  0.1915 -0.2120
19644TIP3    H280348   4.457   2.951   3.863 -1.4772  0.6499 -0.2347
19645TIP3   OH280349   5.710   4.664   4.266  0.2842  0.0520  0.5568
19645TIP3    H180350   5.764   4.732   4.227  2.1380 -2.5982 -1.9392
19645TIP3    H280351   5.760   4.634   4.341 -0.4041  1.1622  1.4926
19646TIP3   OH280352   3.029   0.721   2.089 -0.0705  0.5294 -0.2242
19646TIP3    H180353   2.974   0.764   2.023 -0.7455 -0.5808 -0.4263
19646TIP3    H280354   3.025   0.628   2.066  2.5165  0.4575 -0.6795
19647TIP3   OH280355   1.836   1.721  14.917 -0.0129 -0.5753  0.3078
19647TIP3    H180356   1.924   1.720  14.880 -0.8073  1.3841 -1.9049
19647TIP3    H280357   1.846   1.687  15.005  2.8866 -0.7601 -0.0187
19648TIP3   OH280358   3.794   4.115  11.600 -0.0711 -0.3202 -0.0720
19648TIP3    H180359   3.756   4.091  11.515 -1.6047  0.1402  0.4442
19648TIP3    H280360   3.805   4.031  11.645  2.0544 -0.7105 -1.1873
19649TIP3   OH280361   0.963   3.012  11.212 -0.1435 -0.7932  0.4068
19649TIP3    H180362   0.916   2.995  11.294  0.8083  0.2893  1.2162
19649TIP3    H280363   0.898   3.053  11.155 -0.1163  1.2558  1.7289
19650TIP3   OH280364   1.851   3.842   3.456 -0.0644 -0.0537 -0.3613
19650TIP3    H180365   1.894   3.760   3.477 -1.0855 -0.5761 -0.2397
19650TIP3    H280366   1.828   3.880   3.541  1.7981  1.1689 -0.3362
19651TIP3   OH280367   0.867   1.704   2.870 -0.7515 -0.0131 -0.3297
19651TIP3    H180368   0.828   1.664   2.948 -1.4039  0.6402 -0.3094
19651TIP3    H280369   0.948   1.655   2.856 -1.3037 -1.0488 -0.0416
19652TIP3   OH280370   5.394   4.393  13.755 -0.8787  0.1276 -0.3443
19652TIP3    H180371   5.341   4.363  13.681 -0.9228 -2.2058  0.5767
19652TIP3    H280372   5.482   4.358  13.738 -0.7485  0.0545  0.4319
19653TIP3   OH280373   2.484   6.797  13.127 -0.4449 -0.1501 -0.6597
19653TIP3    H180374   2.425   6.754  13.189  0.9181 -1.0559  0.0646
19653TIP3    H280375   2.462   6.758  13.043 -1.3304  0.0297 -0.5262
19654TIP3   OH280376   5.795   3.203   2.825  0.1650 -0.4962  0.6873
19654TIP3    H180377   5.885   3.173   2.835  0.8122  0.8319 -0.5912
19654TIP3    H280378   5.768   3.171   2.739 -0.7700 -1.2719  1.2478
19655TIP3   OH280379   2.082   1.825   5.249 -0.2174 -0.0548  0.2341
19655TIP3    H180380   1.989   1.842   5.265  0.1374  1.9678  0.4349
19655TIP3    H280381   2.128   1.891   5.301  1.2342  0.7351 -1.8938
19656TIP3   OH280382   6.306   0.504  16.404 -0.0081 -0.1697  0.0479
19656TIP3    H180383   6.334   0.577  16.349 -0.4456 -0.6612 -0.8289
19656TIP3    H280384   6.355   0.429  16.373 -0.5180 -0.5276  0.0868
19657TIP3   OH280385   1.241   3.583   2.214  0.1134 -0.7775  0.0367
19657TIP3    H180386   1.317   3.631   2.182  0.7942 -0.9627  1.2990
19657TIP3    H280387   1.186   3.649   2.256  0.1365 -0.8141  0.1252
19658TIP3   OH280388   0.935   0.067   4.648 -0.1798 -0.0046  0.4692
19658TIP3    H180389   0.953   0.019   4.729  0.4892  1.4184  1.1993
19658TIP3    H280390   1.010   0.125   4.637 -0.6432  0.4051 -0.7507
19659TIP3   OH280391   5.731   1.995  13.326 -0.1598 -0.1966 -0.0485
19659TIP3    H180392   5.746   2.012  13.419 -0.2337  0.8724 -0.2224
19659TIP3    H280393   5.644   1.956  13.322 -0.0444 -0.5005  0.3531
19660TIP3   OH280394   3.310   5.383   1.851  0.0240 -0.4123 -0.0238
19660TIP3    H180395   3.404   5.367   1.860  0.0210  0.0988  1.1403
19660TIP3    H280396   3.296   5.395   1.757  0.8815 -1.8916 -0.3851
19661TIP3   OH280397   4.094   1.798   1.752 -0.0302  0.3431  0.4216
19661TIP3    H180398   4.098   1.706   1.725 -0.3739  0.2562  0.6666
19661TIP3    H280399   4.079   1.795   1.846  1.8146  0.6406  0.7761
19662TIP3   OH280400   6.049   3.137   2.925 -0.0794 -0.3029 -0.0250
19662TIP3    H180401   5.994   3.139   3.004 -1.8170  1.6443 -1.1836
19662TIP3    H280402   6.081   3.047   2.922  0.3154 -0.3933  3.0262
19663TIP3   OH280403   5.789   3.784   1.906  0.0503  0.2194  0.5150
19663TIP3    H180404   5.764   3.751   1.819  2.4444 -0.4552 -0.0213
19663TIP3    H280405   5.817   3.705   1.953 -0.6720  0.6656  1.7180
19664TIP3   OH280406   6.038   0.944   5.270 -0.1347  0.0970  0.1663
19664TIP3    H180407   5.955   0.907   5.239  0.0668  0.1992 -0.5143
19664TIP3    H280408   6.089   0.960   5.190  0.4034  0.3633  0.5530
19665TIP3   OH280409   3.752   1.340  14.179 -0.3728 -0.7969  0.7454
19665TIP3    H180410   3.759   1.428  14.218  0.4859 -0.6617  0.3190
19665TIP3    H280411   3.662   1.313  14.196 -1.3095  1.0316 -0.9057
19666TIP3   OH280412   5.221   2.097  17.051 -0.1465  0.3442 -0.5090
19666TIP3    H180413   5.229   2.036  16.978  1.3232 -1.8661  1.3417
19666TIP3    H280414   5.174   2.048  17.118  1.8831  0.8378  1.3805
19667TIP3   OH280415   6.256   4.870   2.938  0.0073  0.0032  0.1662
19667TIP3    H180416   6.178   4.862   2.882 -0.2750  0.7050  0.4435
19667TIP3    H280417   6.316   4.803   2.906 -0.2287  0.2619 -0.8551
19668TIP3   OH280418   5.799   3.926  16.254 -0.6889  0.1968 -0.6758
19668TIP3    H180419   5.865   3.890  16.314 -0.4388  1.1699 -0.3485
19668TIP3    H280420   5.740   3.975  16.311 -0.3854  1.2200 -1.2247
19669TIP3   OH280421   2.828   0.113   0.062 -0.2666  0.1977  0.1983
19669TIP3    H180422   2.897   0.067   0.015 -0.4317  1.0813 -0.9555
19669TIP3    H280423   2.803   0.053   0.133  1.1261 -0.4607  0.1662
19670TIP3   OH280424   5.448   1.246  14.429 -0.7311 -0.3190  0.5010
19670TIP3    H180425   5.397   1.184  14.377 -0.5075  0.9065 -1.2417
19670TIP3    H280426   5.512   1.282  14.368 -0.9325  1.7135  1.4050
19671TIP3   OH280427   0.285   3.423   6.440 -0.0695 -0.1182  0.4681
19671TIP3    H180428   0.207   3.394   6.486 -0.6555  0.7913  0.0856
19671TIP3    H280429   0.334   3.474   6.505 -0.9620  1.2808  0.0945
19672TIP3   OH280430   4.036   1.257   0.570 -0.9275  0.0676  0.1370
19672TIP3    H180431   4.014   1.339   0.615 -1.7889 -0.3651  0.5267
19672TIP3    H280432   3.959   1.237   0.517 -0.9936 -0.8149  0.5419
19673TIP3   OH280433   0.294   0.454  11.293  0.2182 -0.2637  0.4133
19673TIP3    H180434   0.242   0.402  11.355  0.7751  0.9189  1.9228
19673TIP3    H280435   0.230   0.486  11.230 -0.5702 -0.4950  1.0696
19674TIP3   OH280436   4.020   3.362  15.152 -0.2119  0.2890 -0.6642
19674TIP3    H180437   4.027   3.278  15.197  1.8119  1.0476  0.5249
19674TIP3    H280438   4.002   3.339  15.061 -0.4791 -1.3927 -0.2123
19675TIP3   OH280439   5.964   3.438   4.839  0.5179  0.3604 -0.2927
19675TIP3    H180440   6.050   3.396   4.847  0.2156 -0.4085 -0.9849
19675TIP3    H280441   5.966   3.508   4.905  0.3603 -1.7973  2.1516
19676TIP3   OH280442   6.340   5.684   1.885 -0.4717  0.0730 -0.1723
19676TIP3    H180443   6.349   5.704   1.978 -3.6095  0.4481  0.1604
19676TIP3    H280444   6.349   5.768   1.841  2.2166 -0.2520 -0.4479
19677TIP3   OH280445   2.942   1.128  14.200  0.0574  0.0200  0.1549
19677TIP3    H180446   2.904   1.066  14.263  1.3492 -1.0818 -0.0995
19677TIP3    H280447   3.034   1.134  14.225 -0.2247  2.7924  0.8904
19678TIP3   OH280448   5.674   2.467   4.700 -1.0906  0.4624 -0.0926
19678TIP3    H180449   5.640   2.546   4.742 -1.0211  0.5355 -0.1736
19678TIP3    H280450   5.677   2.488   4.607  2.8077  1.8948  0.1645
19679TIP3   OH280451   4.834   2.811  14.952 -0.2848 -0.3764  0.3857
19679TIP3    H180452   4.826   2.810  14.857  1.8980  2.4841  0.0490
19679TIP3    H280453   4.880   2.731  14.974 -1.4666 -1.4289 -0.8325
19680TIP3   OH280454   4.681   6.007   0.361 -0.0621 -0.0828  0.3409
19680TIP3    H180455   4.771   5.986   0.336 -0.1241  0.5800 -0.4814
19680TIP3    H280456   4.632   5.926   0.345  0.1592 -0.0741 -0.4143
19681TIP3   OH280457   4.962   0.091  15.808 -0.1000 -0.2391 -0.3585
19681TIP3    H180458   4.995   0.084  15.897 -1.6604 -3.1145  0.1298
19681TIP3    H280459   4.872   0.122  15.818  0.5530  2.1224 -1.2231
19682TIP3   OH280460   2.962   5.055   5.673 -0.0857  0.1722  0.1127
19682TIP3    H180461   2.880   5.052   5.624 -1.0833 -0.6833  1.7364
19682TIP3    H280462   3.024   5.100   5.615 -1.3824 -0.1674 -1.5926
19683TIP3   OH280463   1.179   0.440   6.285  0.2271 -0.3293 -0.0990
19683TIP3    H180464   1.202   0.372   6.222  3.2351  0.3022  0.1559
19683TIP3    H280465   1.189   0.398   6.371  1.0122  0.0921  0.0289
19684TIP3   OH280466   5.334   2.910  12.524 -0.5302 -0.3834  0.6393
19684TIP3    H180467   5.396   2.882  12.456 -0.3290  1.3000  0.0870
19684TIP3    H280468   5.378   2.889  12.606  1.1037  1.3443  0.2621
19685TIP3   OH280469   6.156   1.544  14.730 -0.0305  0.1712  0.2796
19685TIP3    H180470   6.245   1.538  14.696 -0.3069  1.8219 -0.8090
19685TIP3    H280471   6.125   1.630  14.704 -1.9977 -0.3947  0.5557
19686TIP3   OH280472   4.272   1.585  13.055  0.5533 -0.8229  0.5790
19686TIP3    H180473   4.338   1.623  13.112  1.0358 -1.7919  0.6773
19686TIP3    H280474   4.279   1.490  13.068  0.4545 -1.0548 -0.8236
19687TIP3   OH280475   6.775   6.704  12.417 -0.5556  0.6081  0.1032
19687TIP3    H180476   6.684   6.676  12.419  0.2063 -2.2489  0.1479
19687TIP3    H280477   6.797   6.709  12.324 -0.6688  0.9336  0.0947
19688TIP3   OH280478   0.203   6.315  16.616 -0.0269 -0.0729 -0.7135
19688TIP3    H180479   0.138   6.255  16.652  0.1905 -0.5841 -1.1487
19688TIP3    H280480   0.154   6.396  16.599  0.0292  0.4344  1.3612
19689TIP3   OH280481   3.911   5.409   6.293 -0.0862  0.5454 -0.6210
19689TIP3    H180482   3.936   5.317   6.284 -1.2580  0.1615 -0.1375
19689TIP3    H280483   3.891   5.420   6.386  0.1365  1.3228 -0.6536
19690TIP3   OH280484   0.371   5.376  12.429 -0.1047 -0.1495  0.4250
19690TIP3    H180485   0.462   5.357  12.404 -0.4562 -1.5682  0.1545
19690TIP3    H280486   0.379   5.441  12.499  1.1460 -0.7437  0.8622
19691TIP3   OH280487   3.445   0.330   0.789 -0.4584  0.3375 -0.0221
19691TIP3    H180488   3.373   0.336   0.852 -0.0948  1.1914  0.3328
19691TIP3    H280489   3.404   0.306   0.706 -1.0370 -0.0450  0.3690
19692TIP3   OH280490   2.596   2.451  10.842 -0.0187 -0.1036  0.4551
19692TIP3    H180491   2.672   2.490  10.884  0.0386 -0.9392  1.1619
19692TIP3    H280492   2.537   2.525  10.825  0.9129  0.5343 -0.0343
19693TIP3   OH280493   2.935   6.407   1.206 -0.0205  0.0409 -0.0612
19693TIP3    H180494   3.011   6.431   1.153  2.3624 -1.2502  2.4881
19693TIP3    H280495   2.884   6.349   1.150  1.4583  0.0587 -1.5180
19694TIP3   OH280496   6.232   6.414   4.786  0.2375 -0.0569  0.8673
19694TIP3    H180497   6.164   6.442   4.725  0.7981 -0.0391  0.2388
19694TIP3    H280498   6.310   6.464   4.760  1.3696 -2.4111 -0.5066
19695TIP3   OH280499   6.339   1.631   0.249 -0.5961 -0.2340  0.7301
19695TIP3    H180500   6.279   1.611   0.321 -0.1073 -1.3949  0.8370
19695TIP3    H280501   6.369   1.546   0.218 -0.4576  0.2588 -0.5787
19696TIP3   OH280502   6.297   4.572   1.464  0.4855  0.1869  0.4518
19696TIP3    H180503   6.211   4.532   1.479  0.5064 -0.5020 -1.0613
19696TIP3    H280504   6.277   4.660   1.433  0.2567 -0.2369 -0.6836
19697TIP3   OH280505   1.392   4.063   2.441  0.4030 -0.3002 -0.2276
19697TIP3    H180506   1.379   4.056   2.535  2.2631 -1.2364  0.0155
19697TIP3    H280507   1.360   4.151   2.418  1.0431  0.4198  1.4974
19698TIP3   OH280508   6.705   6.405   5.667  0.1567 -0.0646  0.0583
19698TIP3    H180509   6.647   6.340   5.707 -1.3288  0.6913 -0.7745
19698TIP3    H280510   6.789   6.392   5.711 -0.8997 -0.5104  2.0932
19699TIP3   OH280511   2.677   6.353   0.703 -0.3747 -0.5333  0.1580
19699TIP3    H180512   2.700   6.279   0.646  2.0175 -0.6800  1.2103
19699TIP3    H280513   2.671   6.427   0.643  2.0623 -0.6938 -0.4009
19700TIP3   OH280514   4.073   0.152  14.117  0.4451 -0.3082  0.3843
19700TIP3    H180515   4.125   0.178  14.041  1.7305 -0.6002  1.1485
19700TIP3    H280516   3.983   0.176  14.093  0.9589  0.5202 -0.8204
19701TIP3   OH280517   5.294   5.061   5.159 -0.1052  0.2757 -0.1284
19701TIP3    H180518   5.267   4.988   5.104  2.2885 -1.6766  1.1020
19701TIP3    H280519   5.235   5.057   5.234  0.4976 -0.9454  0.3088
19702TIP3   OH280520   6.160   4.711  12.085  0.5655  0.2954  0.4955
19702TIP3    H180521   6.233   4.656  12.114  0.5508  0.7114  1.3453
19702TIP3    H280522   6.143   4.683  11.995  1.8413  0.2690  0.2458
19703TIP3   OH280523   0.703   4.924  15.621 -0.5078  0.0127  0.2668
19703TIP3    H180524   0.666   4.916  15.533 -1.6353  1.6960  0.5412
19703TIP3    H280525   0.669   5.007  15.654 -0.3278 -0.6906  2.3942
19704TIP3   OH280526   1.484   5.738   1.287  0.0718 -0.1815  0.0146
19704TIP3    H180527   1.543   5.671   1.253  0.4521 -0.4563  1.1921
19704TIP3    H280528   1.431   5.694   1.353 -0.6075  0.3652 -0.1394
19705TIP3   OH280529   2.842   3.867   1.488  0.0874  0.7310  0.0689
19705TIP3    H180530   2.838   3.858   1.392  1.4836 -1.3686  0.1289
19705TIP3    H280531   2.934   3.890   1.506  0.5408 -1.5046  0.9768
19706TIP3   OH280532   1.493   2.022  11.037 -0.1873  0.2212  0.0193
19706TIP3    H180533   1.478   2.115  11.055  0.5560  0.3157  0.1569
19706TIP3    H280534   1.550   2.020  10.961 -0.6941 -0.1417 -0.3673
19707TIP3   OH280535   5.845   5.297   2.179 -0.1237 -0.0616 -0.3009
19707TIP3    H180536   5.912   5.234   2.203 -0.0236 -0.0095 -0.4403
19707TIP3    H280537   5.815   5.268   2.092  0.8680  0.8482 -0.9707
19708TIP3   OH280538   0.854   6.624  12.607  0.4729  0.2445  0.2192
19708TIP3    H180539   0.779   6.593  12.657 -1.4993  2.9204 -0.8303
19708TIP3    H280540   0.868   6.558  12.540 -0.0842 -0.9125  1.2047
19709TIP3   OH280541   4.415   4.513   2.473 -0.0798  0.2244  0.6934
19709TIP3    H180542   4.508   4.530   2.460 -0.0421  0.7907  1.6096
19709TIP3    H280543   4.371   4.589   2.435 -0.1030  0.5289  1.3177
19710TIP3   OH280544   4.970   1.708   5.023  0.2674  0.1629 -0.2306
19710TIP3    H180545   5.053   1.755   5.023 -0.3893  1.3659 -1.4251
19710TIP3    H280546   4.904   1.775   5.039 -0.6217 -0.4834 -1.0850
19711TIP3   OH280547   5.319   3.782  12.854  0.2161 -0.3313  0.2374
19711TIP3    H180548   5.278   3.724  12.790 -1.2284 -1.0168  1.7023
19711TIP3    H280549   5.253   3.792  12.923  2.5775 -1.7936  2.9593
19712TIP3   OH280550   6.448   2.547  12.298 -0.2334  0.1319 -0.2187
19712TIP3    H180551   6.466   2.480  12.363  0.6814 -0.1112 -0.7198
19712TIP3    H280552   6.365   2.521  12.258 -0.9390  0.4188  1.0037
19713TIP3   OH280553   4.863   4.415  17.071  0.2776  0.0358 -0.6645
19713TIP3    H180554   4.903   4.491  17.114  0.4761  0.1487 -1.0455
19713TIP3    H280555   4.934   4.351  17.066  0.2582  0.0303 -0.8462
19714TIP3   OH280556   0.464   1.822   1.302  0.2970  0.0428  0.5805
19714TIP3    H180557   0.396   1.827   1.369  0.3531  2.1159  0.5454
19714TIP3    H280558   0.517   1.746   1.327 -0.1303  0.3106  2.4550
19715TIP3   OH280559   4.453   0.477   4.879  0.9840  0.1448 -0.0088
19715TIP3    H180560   4.399   0.475   4.958  2.9717  1.3056  1.4863
19715TIP3    H280561   4.435   0.394   4.836 -1.0646 -0.0051  1.0275
19716TIP3   OH280562   3.118   5.535  13.792 -0.3331  0.8529  0.0052
19716TIP3    H180563   3.073   5.563  13.712 -1.4956  0.0409  0.3494
19716TIP3    H280564   3.205   5.509  13.763 -0.2683  1.8807 -0.7790
19717TIP3   OH280565   1.476   6.689   6.211  0.3153 -0.3835  0.6464
19717TIP3    H180566   1.397   6.742   6.215 -0.0090 -0.8776  0.9214
19717TIP3    H280567   1.537   6.731   6.273  0.8566  0.9166 -0.7094
19718TIP3   OH280568   0.091   1.494   5.549 -0.1205 -0.7011 -0.1170
19718TIP3    H180569   0.171   1.546   5.545 -0.7214  0.8617  3.8331
19718TIP3    H280570   0.121   1.403   5.540  2.2379 -0.2105  1.8601
19719TIP3   OH280571   6.747   0.983   4.005  0.2352  0.0296  0.1813
19719TIP3    H180572   6.797   0.913   4.046  1.0604  1.3232  1.4757
19719TIP3    H280573   6.659   0.973   4.040  0.2000 -0.6988 -0.0988
19720TIP3   OH280574   0.108   4.602  15.686  0.1725 -0.6458 -1.0325
19720TIP3    H180575   0.064   4.656  15.620 -0.7173 -1.9009 -1.5141
19720TIP3    H280576   0.049   4.528  15.698 -0.1552 -0.0507  1.8471
19721TIP3   OH280577   3.793   6.704   1.792 -0.5915 -0.1240  0.3243
19721TIP3    H180578   3.750   6.618   1.786 -0.3474 -0.4014  2.1725
19721TIP3    H280579   3.724   6.763   1.822 -1.1723  0.7212 -2.3848
19722TIP3   OH280580   5.534   6.729   4.242 -0.0834 -0.0124  0.0551
19722TIP3    H180581   5.560   6.699   4.329  2.5053 -1.1651 -1.0181
19722TIP3    H280582   5.557   6.822   4.242  4.1211 -0.8309 -0.6401
19723TIP3   OH280583   1.579   1.094   0.245 -0.2583 -0.5174  0.5776
19723TIP3    H180584   1.545   1.161   0.303  0.8198 -1.9292  2.9909
19723TIP3    H280585   1.666   1.126   0.220 -0.5996 -0.0542 -0.0504
19724TIP3   OH280586   2.022   1.979   3.763 -0.4602 -1.1649  0.3375
19724TIP3    H180587   1.942   1.965   3.712  0.2601 -2.8544 -0.4073
19724TIP3    H280588   2.089   1.998   3.697 -0.4494  1.7500  1.0319
19725TIP3   OH280589   1.134   4.385  14.196  0.1551 -0.0297 -0.7131
19725TIP3    H180590   1.181   4.406  14.115  0.8602 -0.8861 -0.5448
19725TIP3    H280591   1.164   4.297  14.218  0.8747  0.6488  1.1470
19726TIP3   OH280592   0.038   6.762  14.812 -0.0183  0.8209  0.3002
19726TIP3    H180593   0.089   6.733  14.887 -1.0431  2.4758  1.7135
19726TIP3    H280594   0.005   6.848  14.837 -2.1738  0.5125 -1.1698
19727TIP3   OH280595   4.487   3.036   2.039  0.0662  0.4217  0.3129
19727TIP3    H180596   4.445   3.054   2.123 -0.3570 -0.0152  0.2046
19727TIP3    H280597   4.580   3.035   2.057  0.1335  2.6532  0.3343
19728TIP3   OH280598   1.972   3.489  17.030 -0.0516 -0.2240 -0.5311
19728TIP3    H180599   1.878   3.471  17.039 -0.1316  0.3652 -0.1465
19728TIP3    H280600   1.987   3.565  17.086  0.3609  0.6732 -1.8147
19729TIP3   OH280601   5.194   5.973   4.446 -0.2251 -0.1678 -0.0846
19729TIP3    H180602   5.208   6.034   4.519 -0.2239  1.4794 -1.3847
19729TIP3    H280603   5.099   5.958   4.446 -0.1496 -0.7180  0.6407
19730TIP3   OH280604   2.029   0.239  13.861  0.0554 -0.7343  0.1987
19730TIP3    H180605   2.019   0.192  13.778  0.3186  0.3091 -0.4401
19730TIP3    H280606   2.061   0.172  13.922 -1.3746 -1.8210 -0.1935
19731TIP3   OH280607   1.498   4.004   5.779  0.3242  0.2994 -0.5211
19731TIP3    H180608   1.447   3.956   5.714  0.8939 -0.6479 -0.2907
19731TIP3    H280609   1.436   4.018   5.852 -0.3386  1.4477 -1.2731
19732TIP3   OH280610   3.778   0.093  14.825  0.3373 -0.3021  0.0707
19732TIP3    H180611   3.716   0.160  14.797  0.5243 -0.1738 -0.0375
19732TIP3    H280612   3.723   0.023  14.861  0.1150 -0.3045 -0.2635
19733TIP3   OH280613   3.222   2.089   0.416 -0.0611 -0.1182 -0.4891
19733TIP3    H180614   3.156   2.099   0.347  0.3915 -0.3190 -0.9524
19733TIP3    H280615   3.277   2.166   0.409 -0.0700 -0.0920 -0.2855
19734TIP3   OH280616   1.616   5.027   6.425  0.3337 -0.2554 -0.1803
19734TIP3    H180617   1.551   5.020   6.355 -2.3045  0.4913  2.0001
19734TIP3    H280618   1.685   5.082   6.389 -1.4255  0.9655 -1.8695
19735TIP3   OH280619   0.806   3.265  16.329  0.5653 -0.3264  0.1991
19735TIP3    H180620   0.760   3.184  16.350  0.4737 -0.2407  0.3331
19735TIP3    H280621   0.751   3.307  16.263 -0.3005  0.4583  1.3788
19736TIP3   OH280622   6.030   1.320  15.849 -0.2913  0.4779 -0.3012
19736TIP3    H180623   6.091   1.249  15.829 -0.6241  0.1716 -0.2498
19736TIP3    H280624   6.003   1.354  15.763 -1.2086 -0.3952 -0.3771
19737TIP3   OH280625   0.491   4.118  15.538 -0.8165 -0.6281  0.6506
19737TIP3    H180626   0.440   4.084  15.465 -0.1768 -1.1339  0.4347
19737TIP3    H280627   0.497   4.212  15.521 -0.1012 -0.8358 -0.3127
19738TIP3   OH280628   4.180   2.185   4.687 -0.1874 -0.0272 -0.2299
19738TIP3    H180629   4.199   2.131   4.611  0.4801  1.1281 -0.9138
19738TIP3    H280630   4.266   2.205   4.724 -0.5522 -1.9126  1.8283
19739TIP3   OH280631   4.112   0.839  12.276 -0.2071  0.1760 -0.1451
19739TIP3    H180632   4.105   0.753  12.316 -1.0108 -0.1523 -0.9614
19739TIP3    H280633   4.190   0.834  12.221  0.4556  0.3813  0.7503
19740TIP3   OH280634   1.169   2.043  10.800  0.3357  0.0310 -0.0876
19740TIP3    H180635   1.212   2.125  10.778  0.2652  0.1723  0.2867
19740TIP3    H280636   1.214   2.012  10.879 -1.7131  1.3584  1.6986
19741TIP3   OH280637   3.907   1.755   5.961  0.0381 -0.6096 -0.2604
19741TIP3    H180638   3.849   1.681   5.980  0.7037 -1.1588 -0.3186
19741TIP3    H280639   3.995   1.718   5.963  0.2748 -0.3513 -2.7663
19742TIP3   OH280640   1.807   5.534   1.396 -0.1075  0.3454 -0.0048
19742TIP3    H180641   1.893   5.527   1.354  0.6887  0.6418  1.5158
19742TIP3    H280642   1.823   5.584   1.476 -1.4533 -0.6998  0.9704
19743TIP3   OH280643   0.135   3.685  11.477 -0.3596 -0.3496  0.0954
19743TIP3    H180644   0.174   3.746  11.414 -0.9854  0.3887  0.3994
19743TIP3    H280645   0.041   3.699  11.468 -0.4461  0.2653  1.6593
19744TIP3   OH280646   3.033   1.880   6.683 -0.6664 -0.2718 -0.2088
19744TIP3    H180647   2.962   1.938   6.656 -0.6117  0.4956  1.1741
19744TIP3    H280648   3.018   1.798   6.636 -1.8215  0.2533 -0.7746
19745TIP3   OH280649   5.065   6.026  15.002  0.0127  0.1621  0.6536
19745TIP3    H180650   5.160   6.035  15.003  0.0457 -0.0626 -0.1283
19745TIP3    H280651   5.046   5.972  15.079  0.7389 -1.7072 -0.4148
19746TIP3   OH280652   2.255   6.213   2.933 -0.0214  0.2573  0.2966
19746TIP3    H180653   2.278   6.183   2.845 -0.5668  0.6934  0.0008
19746TIP3    H280654   2.283   6.141   2.991 -1.5087 -0.9416 -0.4074
19747TIP3   OH280655   0.926   4.942   3.828 -0.6125 -0.0614  0.2472
19747TIP3    H180656   0.983   4.869   3.803  0.5959  0.7889  0.4151
19747TIP3    H280657   0.853   4.900   3.874 -1.2592 -1.3672 -1.8182
19748TIP3   OH280658   6.676   3.255   0.056 -0.0320 -0.0769  0.4527
19748TIP3    H180659   6.671   3.248   0.152  0.4305  1.8190  0.6584
19748TIP3    H280660   6.590   3.224   0.026 -0.5498  0.2272  1.5436
19749TIP3   OH280661   0.344   0.850   4.071 -0.3684  0.8359 -0.2758
19749TIP3    H180662   0.429   0.809   4.052 -0.6483  0.6869 -1.2610
19749TIP3    H280663   0.338   0.922   4.008 -0.1244  2.0830  1.0899
19750TIP3   OH280664   3.272   1.156   0.852  0.0150 -0.3394 -0.6402
19750TIP3    H180665   3.308   1.150   0.764  0.6668  1.9143 -0.5891
19750TIP3    H280666   3.199   1.217   0.845  1.7869  2.1530  0.7604
19751TIP3   OH280667   6.596   2.822  16.403 -0.2877 -0.4576 -0.2132
19751TIP3    H180668   6.524   2.774  16.442  1.7260 -2.7464  0.9774
19751TIP3    H280669   6.614   2.893  16.464  0.3372 -1.6915  1.1073
19752TIP3   OH280670   1.482   2.305  13.275 -0.4775 -0.1606  0.2072
19752TIP3    H180671   1.427   2.326  13.199  0.4092  1.5650 -0.0044
19752TIP3    H280672   1.421   2.270  13.339 -1.6418  0.5791 -0.4577
19753TIP3   OH280673   0.230   0.450  14.263 -0.5280  0.3194  0.2961
19753TIP3    H180674   0.177   0.448  14.183  0.6802 -0.2868 -0.5119
19753TIP3    H280675   0.165   0.453  14.334 -1.6268  0.5386 -0.6795
19754TIP3   OH280676   5.884   5.034   1.650 -0.3922 -0.5527  0.1284
19754TIP3    H180677   5.827   4.958   1.660  1.1709 -1.5295  2.6114
19754TIP3    H280678   5.875   5.060   1.558 -0.4028 -4.1880 -1.0294
19755TIP3   OH280679   0.572   5.552  11.903  0.3363 -0.2745  0.1614
19755TIP3    H180680   0.486   5.509  11.899  0.6575 -0.9320  0.2356
19755TIP3    H280681   0.635   5.481  11.891  0.8914  0.0925  0.8274
19756TIP3   OH280682   0.336   4.103  12.119 -0.2395  0.5964  0.4062
19756TIP3    H180683   0.321   4.110  12.213 -1.0840  0.7165  0.2662
19756TIP3    H280684   0.264   4.049  12.087 -0.0984  0.7658 -0.2064
19757TIP3   OH280685   2.981   4.809  16.990  0.0420 -0.3207 -0.2766
19757TIP3    H180686   3.008   4.718  17.007 -0.2036 -0.4404 -0.5148
19757TIP3    H280687   3.055   4.862  17.020 -0.2372 -0.5368  0.8178
19758TIP3   OH280688   1.305   5.671  13.711  0.3654  0.2433 -0.1609
19758TIP3    H180689   1.244   5.598  13.717 -0.5185  0.8025 -1.7011
19758TIP3    H280690   1.380   5.636  13.663 -0.3994  0.5167 -1.6051
19759TIP3   OH280691   2.288   3.970   4.818  0.0968  0.3281  0.0066
19759TIP3    H180692   2.288   4.021   4.899  0.5568  2.6701 -1.3746
19759TIP3    H280693   2.331   4.027   4.754  0.6558 -1.8355 -1.6691
19760TIP3   OH280694   6.315   3.012   2.352 -0.6187  0.3698  0.4826
19760TIP3    H180695   6.357   3.045   2.273 -1.2600  0.0810  0.0132
19760TIP3    H280696   6.361   2.931   2.373 -0.6800  0.2582  0.1909
19761TIP3   OH280697   1.386   4.439   3.206  0.4012 -0.0132 -0.4250
19761TIP3    H180698   1.384   4.425   3.300 -0.7779 -0.0807 -0.4514
19761TIP3    H280699   1.349   4.527   3.193  0.0706 -0.2124 -0.8621
19762TIP3   OH280700   3.059   4.341   4.444 -0.3822  0.4177 -0.3775
19762TIP3    H180701   3.072   4.375   4.355 -2.7266  0.5902 -0.6960
19762TIP3    H280702   3.034   4.417   4.495  2.8493  0.7339  1.0128
19763TIP3   OH280703   0.681   2.278  13.748 -0.7500 -0.4030 -0.1275
19763TIP3    H180704   0.687   2.372  13.767 -1.2828 -0.2185 -0.8132
19763TIP3    H280705   0.614   2.245  13.807 -0.0007 -0.5194  0.6755
19764TIP3   OH280706   2.758   5.387   5.211  0.5921 -0.2385 -0.0099
19764TIP3    H180707   2.824   5.342   5.158  0.0665 -1.1026  0.0491
19764TIP3    H280708   2.747   5.331   5.288 -0.3131 -0.1933 -0.0937
19765TIP3   OH280709   5.751   4.828   6.330  0.0482  0.0798  0.8081
19765TIP3    H180710   5.783   4.746   6.367 -1.0575 -0.6618  0.1628
19765TIP3    H280711   5.806   4.895   6.370  0.3706 -0.8910  2.0509
19766TIP3   OH280712   5.718   1.556   4.191 -0.3675 -0.0802 -0.1677
19766TIP3    H180713   5.647   1.544   4.128 -0.5177 -0.1956  0.0212
19766TIP3    H280714   5.674   1.567   4.275 -0.2121  1.0417 -0.2098
19767TIP3   OH280715   2.885   5.791   6.480  0.0277 -0.4637  0.1225
19767TIP3    H180716   2.851   5.726   6.542  0.0016  1.0898  1.8074
19767TIP3    H280717   2.812   5.850   6.463  0.5705  0.2373  0.1550
19768TIP3   OH280718   5.374   5.916   5.856  0.7454  0.1104  0.4219
19768TIP3    H180719   5.381   5.942   5.765  2.1956  0.5131  0.6062
19768TIP3    H280720   5.290   5.951   5.885  0.7132  0.8510 -0.4988
19769TIP3   OH280721   3.316   0.026  11.968 -0.7548  0.1042  0.2009
19769TIP3    H180722   3.336   0.113  11.932  0.2331 -0.2987 -0.2871
19769TIP3    H280723   3.400  -0.020  11.964 -0.9980 -0.4859  1.5739
19770TIP3   OH280724   3.945   6.594  16.606 -0.9518 -0.2203 -0.1150
19770TIP3    H180725   4.023   6.544  16.585 -1.4150 -0.6792 -0.8019
19770TIP3    H280726   3.908   6.618  16.521 -0.6695  1.4139  0.1879
19771TIP3   OH280727   4.565   1.680  15.824  0.3764  0.2107  0.3687
19771TIP3    H180728   4.544   1.590  15.848 -1.5692  0.5238 -0.0268
19771TIP3    H280729   4.660   1.686  15.834  0.3508 -1.4082  1.9757
19772TIP3   OH280730   5.545   6.513   0.741  0.2471 -0.0455 -0.4875
19772TIP3    H180731   5.570   6.494   0.832  1.6274 -1.2133 -1.0840
19772TIP3    H280732   5.554   6.429   0.696  0.2721  0.6769 -1.8561
19773TIP3   OH280733   3.274   3.057   5.495 -0.0441  0.0429 -0.6300
19773TIP3    H180734   3.281   3.061   5.400 -1.8368 -0.3821 -0.8210
19773TIP3    H280735   3.228   2.974   5.512  0.9032 -0.2473  0.6555
19774TIP3   OH280736   5.724   5.810  12.293 -0.1336  0.1036  0.2900
19774TIP3    H180737   5.750   5.718  12.291  0.3587  0.0112  3.7052
19774TIP3    H280738   5.806   5.858  12.287 -0.3941  0.3767 -1.5306
19775TIP3   OH280739   3.907   0.338  13.843 -0.2030 -0.5366  0.0670
19775TIP3    H180740   3.933   0.381  13.762 -1.4059  0.8936  0.4010
19775TIP3    H280741   3.989   0.304  13.879  0.5123 -0.1842 -1.1568
19776TIP3   OH280742   2.403   0.596  16.958 -0.6288  0.3052  0.3140
19776TIP3    H180743   2.449   0.549  17.027 -1.0906 -0.4120  0.1392
19776TIP3    H280744   2.387   0.683  16.995  0.4469  0.4187  0.5492
19777TIP3   OH280745   4.878   0.896  13.512 -0.5364 -0.4584  0.6567
19777TIP3    H180746   4.899   0.917  13.603 -1.8275 -0.4495  0.9626
19777TIP3    H280747   4.791   0.859  13.515  0.1618 -2.2966 -0.3628
19778TIP3   OH280748   4.342   6.014  10.658 -0.4739 -0.1175  0.0745
19778TIP3    H180749   4.349   5.925  10.624  1.9692  0.4165 -1.0791
19778TIP3    H280750   4.408   6.064  10.609 -1.5181  2.2679  0.9122
19779TIP3   OH280751   6.666   5.081  14.399  0.3185  0.1095 -0.1236
19779TIP3    H180752   6.577   5.067  14.368 -0.0768  0.3481  0.8650
19779TIP3    H280753   6.666   5.171  14.433  0.3168 -0.5926  1.8562
19780TIP3   OH280754   1.303   6.683  11.151 -0.3363 -1.0015 -1.0134
19780TIP3    H180755   1.380   6.643  11.192 -0.3096 -1.9832 -1.9664
19780TIP3    H280756   1.253   6.609  11.116 -0.9839 -0.2872 -1.6530
19781TIP3   OH280757   5.287   3.121   5.094 -0.1134 -0.1722 -0.0441
19781TIP3    H180758   5.309   3.076   5.176 -1.1206 -1.0092 -0.2224
19781TIP3    H280759   5.296   3.214   5.116 -0.0838 -0.3913  0.9378
19782TIP3   OH280760   3.137   0.230  15.151 -0.1102 -0.1288 -0.1144
19782TIP3    H180761   3.046   0.212  15.128 -0.4802  1.0812  0.3310
19782TIP3    H280762   3.179   0.252  15.067 -0.0905 -1.1413 -0.3884
19783TIP3   OH280763   2.428   4.985   1.699 -0.0510 -0.5317  0.2555
19783TIP3    H180764   2.418   5.080   1.706  0.5983 -0.3316 -1.0567
19783TIP3    H280765   2.359   4.949   1.754  0.3971  0.6859  1.6667
19784TIP3   OH280766   4.942   3.649   3.244 -0.3464  0.5206  0.6276
19784TIP3    H180767   4.994   3.723   3.212  2.0031 -1.0497  0.5671
19784TIP3    H280768   4.939   3.588   3.170 -1.4557  0.1369  0.9737
19785TIP3   OH280769   6.109   2.103   0.404  0.2600  0.7721  0.3404
19785TIP3    H180770   6.110   2.199   0.404  1.9822  0.8464 -2.0838
19785TIP3    H280771   6.018   2.080   0.382  0.3228  1.9427 -1.3212
19786TIP3   OH280772   0.420   1.934   1.879 -0.6280  0.2868  0.2299
19786TIP3    H180773   0.413   1.863   1.943  0.7376  0.7827  0.9724
19786TIP3    H280774   0.379   2.009   1.921 -3.3154 -0.3130 -1.0875
19787TIP3   OH280775   2.337   0.902  13.058 -0.3792  0.3267  0.3511
19787TIP3    H180776   2.271   0.834  13.062  0.3610 -0.5078 -0.7272
19787TIP3    H280777   2.303   0.966  12.995 -1.2515  1.1783  1.6598
19788TIP3   OH280778   4.864   4.028   2.088  0.0179 -0.2155 -0.6773
19788TIP3    H180779   4.928   4.019   2.159  0.4019 -1.0342 -1.1149
19788TIP3    H280780   4.908   3.991   2.012 -0.3961  0.6399 -1.3485
19789TIP3   OH280781   1.137   6.066   2.320  0.3696 -0.2325 -0.4164
19789TIP3    H180782   1.141   6.161   2.330  0.4871 -0.4901  3.6589
19789TIP3    H280783   1.226   6.036   2.337 -0.2499 -1.1620  1.4506
19790TIP3   OH280784   5.265   2.930   2.408 -0.1967 -0.3154  0.7477
19790TIP3    H180785   5.303   2.906   2.493  2.9073  0.3633 -0.3206
19790TIP3    H280786   5.311   3.010   2.382 -2.1058  0.3193 -0.9463
19791TIP3   OH280787   2.170   2.281   5.634  0.0221  0.5355  0.4430
19791TIP3    H180788   2.262   2.258   5.628  0.1283  1.1578 -0.3841
19791TIP3    H280789   2.142   2.246   5.720  0.4349 -1.6993 -0.2609
19792TIP3   OH280790   5.845   6.629   5.590  0.0504  0.6139  0.0676
19792TIP3    H180791   5.890   6.646   5.673 -0.9106  2.7335  0.2287
19792TIP3    H280792   5.914   6.630   5.524  1.1340 -2.9754  0.8957
19793TIP3   OH280793   1.117   4.718   3.947 -0.3901  0.1762 -0.7187
19793TIP3    H180794   1.095   4.690   3.858  0.9479 -0.5083 -0.8679
19793TIP3    H280795   1.212   4.711   3.951 -0.4310  0.1658  0.7806
19794TIP3   OH280796   5.632   0.583  14.911  0.6338  0.0096 -0.4588
19794TIP3    H180797   5.688   0.513  14.877  1.1898 -0.4149  1.2510
19794TIP3    H280798   5.551   0.574  14.861  0.6349 -1.9617 -0.1942
19795TIP3   OH280799   0.503   2.027  15.166 -0.4162  0.1511 -0.3955
19795TIP3    H180800   0.597   2.044  15.174 -0.2001 -0.7818 -0.7986
19795TIP3    H280801   0.461   2.107  15.196  0.4719 -0.0767  1.5850
19796TIP3   OH280802   5.370   5.075  16.871  0.7128 -0.1200 -0.8849
19796TIP3    H180803   5.457   5.041  16.853 -0.1126 -1.5542 -2.4254
19796TIP3    H280804   5.321   5.060  16.790 -1.2095 -0.2071  0.2384
19797TIP3   OH280805   0.426   2.106   5.575 -0.9409 -0.6456 -0.3710
19797TIP3    H180806   0.379   2.051   5.638 -0.4991 -1.3909 -0.6834
19797TIP3    H280807   0.360   2.132   5.512 -1.3383 -0.0871  0.2628
19798TIP3   OH280808   3.143   2.748  10.653  0.7865 -0.1242 -0.1476
19798TIP3    H180809   3.187   2.763  10.736  1.0461 -2.1408  0.1441
19798TIP3    H280810   3.083   2.675  10.671 -0.6813  0.7670 -1.2234
19799TIP3   OH280811   4.639   5.067  13.185  0.7542  0.1850 -0.4080
19799TIP3    H180812   4.626   4.989  13.131  1.6344  1.5158 -2.6773
19799TIP3    H280813   4.558   5.118  13.174  0.3705 -0.1720  0.6853
19800TIP3   OH280814   3.695   4.903  12.819  0.1724  0.0174 -0.1938
19800TIP3    H180815   3.708   4.809  12.830 -0.4498  0.0782  1.2086
19800TIP3    H280816   3.609   4.911  12.778 -1.1311  0.0183  2.3428
19801TIP3   OH280817   0.347   0.750  13.015  0.0037  0.5673  0.6664
19801TIP3    H180818   0.378   0.748  13.105  0.1382 -1.1223  0.6077
19801TIP3    H280819   0.363   0.662  12.982 -1.4687  0.7143 -0.5263
19802TIP3   OH280820   0.425   5.983  14.517 -0.2873  0.1687 -0.1722
19802TIP3    H180821   0.375   5.935  14.583  0.3916  0.6124  0.6904
19802TIP3    H280822   0.454   6.063  14.562  1.1262 -0.0386 -0.6569
19803TIP3   OH280823   0.066   1.997  14.582 -0.1211 -0.3173 -1.2288
19803TIP3    H180824   0.148   2.010  14.536  0.1969  0.2955 -0.5246
19803TIP3    H280825   0.006   2.062  14.545 -1.2450 -2.6037 -3.7835
19804TIP3   OH280826   1.936   4.912   4.291  0.3131  0.4719  0.2483
19804TIP3    H180827   1.892   4.861   4.359  1.2577  1.6347  1.8090
19804TIP3    H280828   1.903   4.877   4.209  1.5894 -3.2921  1.1743
19805TIP3   OH280829   4.476   2.442  14.132  0.2251  0.6399 -0.0143
19805TIP3    H180830   4.544   2.456  14.066 -0.3246 -1.9148 -1.2315
19805TIP3    H280831   4.514   2.376  14.191 -0.5393  0.4986  0.3237
19806TIP3   OH280832   4.220   1.513  11.569  0.8564 -0.5428 -0.1066
19806TIP3    H180833   4.260   1.446  11.623 -1.6215  0.2737  3.0171
19806TIP3    H280834   4.151   1.467  11.521 -0.5667 -0.4372  1.7197
19807TIP3   OH280835   0.431   0.284  16.521 -0.5435  0.0036  0.0634
19807TIP3    H180836   0.472   0.353  16.470 -0.4551  0.1584  0.3460
19807TIP3    H280837   0.471   0.203  16.488 -1.4258 -0.0197 -1.0330
19808TIP3   OH280838   1.547   2.549   1.992  0.0457 -0.1138 -0.0605
19808TIP3    H180839   1.601   2.627   2.007  1.6964 -0.8074 -1.9901
19808TIP3    H280840   1.595   2.478   2.035 -0.3055 -0.4212 -0.1729
19809TIP3   OH280841   2.778   3.568  15.867  0.4587 -0.3843 -0.5090
19809TIP3    H180842   2.798   3.486  15.822 -0.1280 -0.4488 -0.6597
19809TIP3    H280843   2.690   3.590  15.839  0.4768  0.1162 -0.1896
19810TIP3   OH280844   2.076   0.480   1.375 -0.5842  0.0872 -0.2868
19810TIP3    H180845   2.035   0.398   1.404 -0.8853  0.3205 -0.0467
19810TIP3    H280846   2.133   0.454   1.303 -0.2918 -0.4101  0.1164
19811TIP3   OH280847   4.239   3.219   1.460  0.1750  0.0592  0.3325
19811TIP3    H180848   4.226   3.150   1.524  0.9075  0.7923  1.3048
19811TIP3    H280849   4.152   3.259   1.449 -0.0343 -0.3392  0.5400
19812TIP3   OH280850   0.122   3.962  11.713  0.4738 -0.0446 -0.3184
19812TIP3    H180851   0.111   3.991  11.622 -1.0645 -2.1698 -0.8771
19812TIP3    H280852   0.046   3.906  11.730  3.1881 -3.8719  0.5493
19813TIP3   OH280853   2.779   5.764   6.011 -0.5159  0.4616  0.0084
19813TIP3    H180854   2.862   5.784   5.967 -1.3347  1.4780 -1.1353
19813TIP3    H280855   2.735   5.702   5.954 -0.1738 -0.8137  1.0803
19814TIP3   OH280856   6.410   6.258  14.640  0.4028  0.0969 -0.0971
19814TIP3    H180857   6.473   6.213  14.696 -1.2929 -2.5902 -0.1637
19814TIP3    H280858   6.399   6.200  14.564 -0.4690  1.6033 -1.1856
19815TIP3   OH280859   1.971   4.079  16.050  0.1669 -0.4750  0.2976
19815TIP3    H180860   2.045   4.136  16.030 -0.3177 -0.3500 -1.2370
19815TIP3    H280861   1.899   4.112  15.996 -1.1316 -0.4004  1.9781
19816TIP3   OH280862   1.295   6.768  15.834 -0.1937  0.3562 -0.1678
19816TIP3    H180863   1.219   6.718  15.864  0.2195  0.3848  0.9638
19816TIP3    H280864   1.316   6.730  15.748  0.6312 -2.0647  1.0133
19817TIP3   OH280865   3.725   1.096   4.068  0.5941 -0.0601  0.3223
19817TIP3    H180866   3.796   1.151   4.100  0.7152  0.2471 -0.4455
19817TIP3    H280867   3.661   1.158   4.033 -0.0826 -0.3299  1.0420
19818TIP3   OH280868   1.459   4.003   3.941  0.2437 -0.0330 -0.2580
19818TIP3    H180869   1.477   4.082   3.890  1.8861  0.0214  0.3215
19818TIP3    H280870   1.379   4.023   3.990  1.6007  2.0380  1.2788
19819TIP3   OH280871   1.238   5.551   5.261  0.0694 -0.2511  0.0019
19819TIP3    H180872   1.310   5.614   5.266 -0.3487  0.2125  0.2580
19819TIP3    H280873   1.176   5.579   5.328 -1.3282  0.6115 -1.5569
19820TIP3   OH280874   5.178   4.508   0.955 -0.2234 -0.4828 -0.1117
19820TIP3    H180875   5.107   4.454   0.922 -0.9508  0.6676 -0.5058
19820TIP3    H280876   5.173   4.589   0.903  1.2612 -0.2993 -0.0264
19821TIP3   OH280877   5.396   0.780   3.634  0.4157  0.6544  0.2189
19821TIP3    H180878   5.409   0.706   3.693 -0.9402 -0.9538 -1.3587
19821TIP3    H280879   5.309   0.813   3.655  0.0717  0.3007 -0.6076
19822TIP3   OH280880   2.573   0.148   3.630  0.1270  0.4445  0.3357
19822TIP3    H180881   2.664   0.138   3.601  0.1636  3.1542 -0.7914
19822TIP3    H280882   2.572   0.114   3.719  2.3792  0.8511  0.5715
19823TIP3   OH280883   1.359   5.346   2.774  0.3342  0.2013 -0.0676
19823TIP3    H180884   1.431   5.378   2.827  0.3884 -0.1639  0.0834
19823TIP3    H280885   1.291   5.322   2.837 -0.4734  1.8502 -0.2704
19824TIP3   OH280886   4.560   3.564  16.054  0.2183  0.3465  0.1435
19824TIP3    H180887   4.646   3.570  16.095  0.0083  0.9383  0.5019
19824TIP3    H280888   4.500   3.602  16.118 -0.4106 -0.7095  0.1861
19825TIP3   OH280889   5.071   5.932   5.829  0.0136 -0.4497 -0.9064
19825TIP3    H180890   4.981   5.965   5.820  0.4006  0.5982 -1.0319
19825TIP3    H280891   5.072   5.890   5.915 -0.4773 -0.0823 -0.7132
19826TIP3   OH280892   0.550   4.181  11.618 -0.4183 -0.0937  1.0035
19826TIP3    H180893   0.530   4.103  11.565 -1.5880 -0.4371  1.8991
19826TIP3    H280894   0.543   4.151  11.708  0.8452  0.6589  1.3626
19827TIP3   OH280895   1.821   0.283  11.708  0.0053  0.5275 -0.0687
19827TIP3    H180896   1.877   0.226  11.760  0.7588  0.9236 -0.4239
19827TIP3    H280897   1.733   0.265  11.738  0.1745 -1.2117 -0.5396
19828TIP3   OH280898   6.057   3.782   4.164  0.0130  0.2520  0.4173
19828TIP3    H180899   6.135   3.730   4.185  0.5011  0.6916 -0.2638
19828TIP3    H280900   5.983   3.729   4.195  0.6114  0.1612  1.7624
19829TIP3   OH280901   1.824   0.477   0.329 -0.4352  0.2369 -0.0180
19829TIP3    H180902   1.849   0.540   0.261  0.1948 -0.4471 -0.4383
19829TIP3    H280903   1.800   0.531   0.404  1.2468  0.9730  0.0396
19830TIP3   OH280904   1.719   0.190  11.417  0.2442 -0.2206 -0.6166
19830TIP3    H180905   1.741   0.253  11.486 -0.9819  0.4000 -0.7626
19830TIP3    H280906   1.712   0.243  11.338  0.7451 -0.7913 -1.0500
19831TIP3   OH280907   3.334   2.011   4.167 -0.3112 -0.0707  0.1953
19831TIP3    H180908   3.322   1.926   4.125 -2.7622 -1.1545  2.7149
19831TIP3    H280909   3.421   2.005   4.208 -0.3392 -1.2997  0.1197
19832TIP3   OH280910   4.068   1.245  13.263  0.2110  0.0236 -0.3185
19832TIP3    H180911   4.075   1.322  13.319  1.5844 -1.1780  1.2966
19832TIP3    H280912   3.998   1.266  13.202  1.4656  3.1087 -0.9019
19833TIP3   OH280913   2.665   6.561   1.406  0.2989  0.1323 -0.2534
19833TIP3    H180914   2.582   6.517   1.391  0.7506 -0.9260  0.1965
19833TIP3    H280915   2.716   6.497   1.457  2.0731 -0.0181 -2.0881
19834TIP3   OH280916   0.861   1.238   1.801 -0.2037  0.2894 -0.2493
19834TIP3    H180917   0.880   1.237   1.895  2.1056  4.1607 -0.4526
19834TIP3    H280918   0.788   1.177   1.791 -2.7338  2.0007  4.5312
19835TIP3   OH280919   4.987   1.409  15.065  0.0289 -0.2373  0.4717
19835TIP3    H180920   5.051   1.454  15.009 -2.2335 -0.2085 -2.3643
19835TIP3    H280921   5.010   1.316  15.059 -0.1264 -0.2230 -0.4896
19836TIP3   OH280922   3.769   1.408   3.154 -0.3446  0.4023 -0.3926
19836TIP3    H180923   3.734   1.446   3.235 -0.7161  0.7149 -0.6958
19836TIP3    H280924   3.739   1.316   3.157 -2.0140  0.8826 -1.0791
19837TIP3   OH280925   4.106   5.212   5.646  0.3821  0.0852 -0.7983
19837TIP3    H180926   4.013   5.190   5.641  0.2793  0.7726 -2.4434
19837TIP3    H280927   4.110   5.289   5.702 -0.0236 -0.0063 -0.6387
19838TIP3   OH280928   0.686   5.078  16.312  0.3703 -0.3738  0.2314
19838TIP3    H180929   0.612   5.137  16.298  0.2015 -0.5626  0.3201
19838TIP3    H280930   0.762   5.126  16.278  0.6359  0.9163  2.4751
19839TIP3   OH280931   2.041   6.534  17.076 -0.1191 -0.3631 -0.3688
19839TIP3    H180932   2.010   6.534  17.167 -0.3420 -1.0133 -0.4374
19839TIP3    H280933   1.967   6.500  17.025  0.8591 -2.5593 -0.4518
19840TIP3   OH280934   2.933   6.104  14.844  0.4588 -0.7162 -0.3493
19840TIP3    H180935   2.928   6.078  14.936 -1.2762  1.3140  0.1832
19840TIP3    H280936   2.989   6.182  14.844  1.4415 -1.3852 -1.2268
19841TIP3   OH280937   4.830   1.986   4.140  0.1684  0.0453 -0.3540
19841TIP3    H180938   4.776   2.044   4.194  2.4516  0.4971  1.6594
19841TIP3    H280939   4.815   1.899   4.177 -2.0503 -0.5030 -2.3483
19842TIP3   OH280940   5.347   0.004   1.415  0.6983 -0.2843 -0.2553
19842TIP3    H180941   5.313  -0.086   1.412  0.1212 -0.1211  0.7860
19842TIP3    H280942   5.288   0.053   1.358  2.6691 -1.0298 -3.1098
19843TIP3   OH280943   2.183   0.878   5.298  0.0719 -0.4872 -0.0032
19843TIP3    H180944   2.121   0.899   5.368 -0.9196 -0.4806 -0.8466
19843TIP3    H280945   2.252   0.944   5.305 -0.1917 -0.2882  0.7548
19844TIP3   OH280946   1.823   4.483  16.199  0.0330  0.2193  0.1709
19844TIP3    H180947   1.733   4.517  16.203  0.0470  0.1989  0.7739
19844TIP3    H280948   1.870   4.547  16.147 -0.5954 -0.3875 -1.1988
19845TIP3   OH280949   3.360   6.539   2.661 -0.0005  0.0936 -0.0041
19845TIP3    H180950   3.411   6.579   2.731  2.1698 -1.1772 -0.7533
19845TIP3    H280951   3.361   6.446   2.680 -1.8096  0.0006 -0.2380
19846TIP3   OH280952   2.097   1.278  15.167  0.2634 -0.0238  0.2258
19846TIP3    H180953   2.038   1.298  15.239 -1.3459  0.1029 -1.0829
19846TIP3    H280954   2.155   1.354  15.162 -1.5538  1.4031 -0.4845
19847TIP3   OH280955   0.835   5.442   3.031  0.2434  0.4252 -0.5008
19847TIP3    H180956   0.903   5.459   2.965  1.2329  0.2987  0.4643
19847TIP3    H280957   0.860   5.495   3.106 -1.3923  1.2955 -0.5309
19848TIP3   OH280958   1.907   0.692  15.921  0.0434 -0.2688 -0.5296
19848TIP3    H180959   1.862   0.651  15.995  1.7702 -2.1305 -0.4149
19848TIP3    H280960   1.975   0.746  15.960 -0.4183  0.4866 -0.7464
19849TIP3   OH280961   4.009   3.727   0.161  0.5418 -0.2562  0.9784
19849TIP3    H180962   3.993   3.820   0.143 -0.1672 -0.6160 -0.4326
19849TIP3    H280963   4.093   3.726   0.208  1.6254  0.9786 -0.7885
19850TIP3   OH280964   1.543   4.397  16.684  0.2688 -0.1676  0.0251
19850TIP3    H180965   1.579   4.476  16.724  0.4906 -1.8223  3.3826
19850TIP3    H280966   1.465   4.427  16.637 -0.5576  1.8942  2.5058
19851TIP3   OH280967   5.829   1.833  10.486 -0.2073 -0.0681 -0.1765
19851TIP3    H180968   5.912   1.880  10.477  0.4647 -1.4343 -1.6558
19851TIP3    H280969   5.848   1.745  10.455 -2.0015 -0.6765  0.3414
19852TIP3   OH280970   6.170   4.716  14.526  0.5970 -0.3510  0.4860
19852TIP3    H180971   6.100   4.758  14.475 -0.1491 -2.4704 -0.3269
19852TIP3    H280972   6.251   4.748  14.486  0.0387 -0.7424 -1.0304
19853TIP3   OH280973   5.248   4.549  16.893 -0.0141 -0.1722 -0.2839
19853TIP3    H180974   5.231   4.568  16.985 -0.8345 -2.3120  0.0483
19853TIP3    H280975   5.330   4.501  16.893  0.8391  1.2199 -0.8761
19854TIP3   OH280976   1.741   1.656  15.529  0.1375 -0.2240  0.0610
19854TIP3    H180977   1.702   1.740  15.505  1.7027  0.0659 -1.7967
19854TIP3    H280978   1.799   1.677  15.603 -0.1613  0.1587  0.1886
19855TIP3   OH280979   5.390   1.370  10.314 -0.3381 -0.0198  0.1284
19855TIP3    H180980   5.443   1.423  10.254  0.9562  0.6043  1.7427
19855TIP3    H280981   5.316   1.426  10.336 -0.2702  0.1536 -0.0796
19856TIP3   OH280982   6.324   3.776   5.021 -0.0464 -0.8642  0.4591
19856TIP3    H180983   6.400   3.762   5.077  0.1883  0.8621  0.6254
19856TIP3    H280984   6.305   3.869   5.029  0.0731 -0.5011 -2.4156
19857TIP3   OH280985   0.029   5.018   5.618 -0.7820  0.1818 -0.0055
19857TIP3    H180986   0.052   4.941   5.565  1.4112 -0.0728  1.1872
19857TIP3    H280987  -0.021   4.984   5.691  1.9601 -0.5485  1.6704
19858TIP3   OH280988   0.565   1.788  13.142  0.3237 -0.2471 -0.0532
19858TIP3    H180989   0.565   1.701  13.102 -0.4008 -0.7370  0.9601
19858TIP3    H280990   0.599   1.774  13.231  1.4884  0.7338 -0.3204
19859TIP3   OH280991   4.980   3.956  15.258  0.2887 -0.4402  0.2702
19859TIP3    H180992   4.916   3.978  15.326 -0.1227 -0.5846 -0.0667
19859TIP3    H280993   5.058   4.005  15.283  0.3103 -0.8814  1.1304
19860TIP3   OH280994   5.027   3.433  12.959 -0.6483 -0.4361  0.2120
19860TIP3    H180995   5.121   3.452  12.967 -0.7423 -0.2228  0.8535
19860TIP3    H280996   4.991   3.512  12.920 -0.6572 -0.2658  0.5621
19861TIP3   OH280997   1.523   6.038  15.275  0.0028  0.6391 -0.3410
19861TIP3    H180998   1.530   6.085  15.192 -0.5377  1.1592 -0.1063
19861TIP3    H280999   1.601   5.983  15.279  0.5603  1.3802 -0.7197
19862TIP3   OH281000   0.271   2.476   5.559  0.2759  0.2037  0.0123
19862TIP3    H181001   0.332   2.454   5.628 -0.5278  0.3956  0.8058
19862TIP3    H281002   0.314   2.448   5.478  1.0015 -0.5017  0.6336
19863TIP3   OH281003   6.637   5.156   0.598 -0.3417  0.0934  0.2734
19863TIP3    H181004   6.597   5.101   0.530 -1.3064  0.0009  0.8854
19863TIP3    H281005   6.634   5.244   0.562  2.2490 -0.3308 -1.1974
19864TIP3   OH281006   2.004   0.363  10.941 -0.1335  0.0731 -0.1675
19864TIP3    H181007   1.951   0.285  10.922 -2.4937  1.7516 -0.8770
19864TIP3    H281008   2.050   0.381  10.860 -1.1079  0.5000 -0.6440
19865TIP3   OH281009   5.083   5.957  16.953 -0.3916  0.0090 -0.2047
19865TIP3    H181010   5.149   5.888  16.961  0.1874  0.6185  0.3272
19865TIP3    H281011   5.011   5.928  17.009  0.8291  0.9537  1.9758
19866TIP3   OH281012   0.492   3.219  13.872 -0.4698  0.8728 -0.1561
19866TIP3    H181013   0.587   3.231  13.875 -0.5510  1.4137  0.3191
19866TIP3    H281014   0.479   3.154  13.802  0.2643  0.5793 -0.0341
19867TIP3   OH281015   2.734   4.334   0.247  0.4005  0.0210 -0.2901
19867TIP3    H181016   2.731   4.239   0.237  0.1662  0.0679 -0.7020
19867TIP3    H281017   2.656   4.356   0.298  0.7017 -0.0534  0.2032
19868TIP3   OH281018   0.683   3.284  13.645 -0.1108  0.6145 -0.2047
19868TIP3    H181019   0.712   3.346  13.579  0.9691  0.5175  0.1709
19868TIP3    H281020   0.590   3.305  13.658 -0.9070 -0.5329 -3.0801
19869TIP3   OH281021   1.529   2.439   0.790 -0.2779  0.4402  0.9833
19869TIP3    H181022   1.592   2.418   0.721 -1.0453  0.1054  0.3721
19869TIP3    H281023   1.542   2.532   0.806 -0.2367  0.5714  0.2312
19870TIP3   OH281024   0.795   0.594  16.192 -0.6455 -0.9748  0.1112
19870TIP3    H181025   0.709   0.554  16.180 -1.1041 -0.8260  2.4481
19870TIP3    H281026   0.784   0.652  16.268  1.6401 -1.3583  0.8065
19871TIP3   OH281027   2.259   1.923   6.257  0.1124 -0.1881  0.1263
19871TIP3    H181028   2.172   1.920   6.218 -0.0416  1.3918  0.2778
19871TIP3    H281029   2.249   1.879   6.342 -1.1328  1.8650  1.1279
19872TIP3   OH281030   5.906   4.583   4.443  0.0153 -0.2134  0.2397
19872TIP3    H181031   5.995   4.561   4.414 -0.3486 -1.4836  0.0047
19872TIP3    H281032   5.872   4.501   4.479 -0.2584  0.8131  2.4929
19873TIP3   OH281033   2.540   3.190   2.955 -0.2577  0.1169  0.6380
19873TIP3    H181034   2.592   3.269   2.939  0.4500 -0.2570  1.0350
19873TIP3    H281035   2.478   3.187   2.883 -0.9042  1.5227  1.0919
19874TIP3   OH281036   0.311   2.229  12.925  0.5210  0.5605 -0.2336
19874TIP3    H181037   0.244   2.192  12.868  0.2671 -0.7036  0.8451
19874TIP3    H281038   0.393   2.220  12.876  0.5803 -2.1189  0.2395
19875TIP3   OH281039   5.392   1.969  14.254  0.0353  0.2606  0.2577
19875TIP3    H181040   5.408   2.060  14.279  1.1982 -0.5488  2.8045
19875TIP3    H281041   5.299   1.966  14.231  0.2049  2.2580 -0.9462
19876TIP3   OH281042   0.799   1.097   3.989  0.5394  0.1930 -0.8348
19876TIP3    H181043   0.712   1.079   3.955  0.4552  1.8898 -1.6491
19876TIP3    H281044   0.813   1.190   3.970  1.9653  0.3065  0.5399
19877TIP3   OH281045   4.426   6.664  11.540 -0.3406 -0.4742 -0.1713
19877TIP3    H181046   4.393   6.742  11.586  0.5939 -0.5100  0.5966
19877TIP3    H281047   4.416   6.593  11.602 -0.7194 -0.8767 -0.6867
19878TIP3   OH281048   5.727   1.893  13.016  0.1555 -0.3862  0.2423
19878TIP3    H181049   5.787   1.828  13.052 -2.6835 -3.5487 -0.2810
19878TIP3    H281050   5.641   1.854  13.025 -1.5518  2.3828 -2.2169
19879TIP3   OH281051   2.140   4.264  13.729 -0.6351 -0.2525 -0.3352
19879TIP3    H181052   2.067   4.276  13.790 -0.3892  2.7905 -0.4807
19879TIP3    H281053   2.218   4.287  13.781 -0.3762  1.8664 -1.5418
19880TIP3   OH281054   0.792   2.277  13.496  0.2278 -0.2839  0.1758
19880TIP3    H181055   0.744   2.289  13.578 -0.9176 -0.0899 -0.5003
19880TIP3    H281056   0.726   2.286  13.428  1.4603  1.4526 -0.8837
19881TIP3   OH281057   0.746   3.297  13.211  0.1370  0.0501  0.5747
19881TIP3    H181058   0.809   3.234  13.177 -0.1266  0.4763 -0.7667
19881TIP3    H281059   0.693   3.246  13.274  0.5354 -0.8123  0.2325
19882TIP3   OH281060   1.373   5.715  15.787 -0.1409  0.2146  0.5084
19882TIP3    H181061   1.375   5.797  15.738  1.1653 -0.1229 -0.0365
19882TIP3    H281062   1.315   5.659  15.735  0.3241  0.2353 -0.0404
19883TIP3   OH281063   6.541   1.429  16.932 -0.0045 -0.3142 -0.4925
19883TIP3    H181064   6.531   1.345  16.888 -3.1561 -1.0512  1.2503
19883TIP3    H281065   6.608   1.413  16.999  0.8102 -0.8137 -1.3986
19884TIP3   OH281066   3.638   0.989  12.850  0.6233  0.4407 -0.0314
19884TIP3    H181067   3.593   0.910  12.879  0.4068  0.6210  0.1279
19884TIP3    H281068   3.604   1.058  12.907 -1.8035  1.3285 -2.3254
19885TIP3   OH281069   3.013   5.844   4.003  0.9797 -0.6615 -0.2396
19885TIP3    H181070   3.078   5.911   4.024  2.0625 -2.2921  2.1198
19885TIP3    H281071   3.019   5.833   3.908  1.4209  1.8545 -0.5636
19886TIP3   OH281072   2.335   2.416   0.914  0.1191  0.0917  0.4053
19886TIP3    H181073   2.397   2.414   0.841  0.9251  0.3459  1.0720
19886TIP3    H281074   2.276   2.489   0.894 -0.7364 -0.8997 -0.8327
19887TIP3   OH281075   3.671   5.514  16.193  0.3332  0.0492  0.5583
19887TIP3    H181076   3.606   5.464  16.243  2.0824 -2.2142  0.7433
19887TIP3    H281077   3.632   5.524  16.107 -1.2024  0.8057  1.2946
19888TIP3   OH281078   0.110   5.933  13.102 -0.4564 -0.2105  0.4217
19888TIP3    H181079   0.183   5.874  13.086 -1.0118 -1.1874  1.4150
19888TIP3    H281080   0.124   5.966  13.191 -0.4937  0.6847  0.1131
19889TIP3   OH281081   1.853   2.579  15.916  0.1351 -0.2877 -0.0468
19889TIP3    H181082   1.894   2.575  15.829  0.1066  0.2465 -0.0880
19889TIP3    H281083   1.786   2.510  15.913 -0.0896 -0.0576 -0.5693
19890TIP3   OH281084   1.864   1.272   3.801 -0.0863  0.2127 -0.0232
19890TIP3    H181085   1.778   1.309   3.780 -2.0320 -2.7106  2.0742
19890TIP3    H281086   1.856   1.243   3.892  1.8262 -3.4654 -0.8395
19891TIP3   OH281087   3.654   5.278   4.180  0.3100 -0.1184 -0.0989
19891TIP3    H181088   3.583   5.336   4.151  0.8507  0.4131 -0.3781
19891TIP3    H281089   3.609   5.203   4.219 -0.4064  0.6222  0.5299
19892TIP3   OH281090   5.942   4.975  15.912 -0.3783 -0.3281  0.4113
19892TIP3    H181091   5.863   4.989  15.860 -0.5457  0.0311  0.7603
19892TIP3    H281092   5.913   4.981  16.003 -0.2604 -1.8612  0.5874
19893TIP3   OH281093   0.308   1.176   2.632  0.2024 -0.6283 -0.0527
19893TIP3    H181094   0.238   1.155   2.694  1.4789  0.5764  1.9441
19893TIP3    H281095   0.355   1.094   2.620  0.5535 -0.6993  1.5049
19894TIP3   OH281096   2.465   0.322  16.823 -0.1841  0.0824  0.3017
19894TIP3    H181097   2.395   0.330  16.887 -0.3545 -0.7008  0.2218
19894TIP3    H281098   2.501   0.411  16.816 -2.6367  1.0495 -1.3703
19895TIP3   OH281099   5.649   0.235   0.353  0.4144  0.0654 -0.4516
19895TIP3    H181100   5.728   0.197   0.313  1.3977 -0.7029  2.0683
19895TIP3    H281101   5.585   0.164   0.353  0.2895  0.1737 -0.9443
19896TIP3   OH281102   6.694   4.892  15.352 -0.3155 -0.0162  0.3412
19896TIP3    H181103   6.601   4.869  15.350 -0.0897 -0.9337 -0.1671
19896TIP3    H281104   6.733   4.843  15.280  0.7512 -0.4482  1.1804
19897TIP3   OH281105   0.052   2.708  12.906  0.1873  0.0364  0.3157
19897TIP3    H181106   0.089   2.793  12.883 -1.6604  1.3394  1.8187
19897TIP3    H281107   0.114   2.644  12.871  1.0215  1.9430 -1.9415
19898TIP3   OH281108   1.258   6.136  15.035  0.1228 -0.5191 -0.4399
19898TIP3    H181109   1.242   6.053  15.079 -0.5454 -0.9894 -1.5339
19898TIP3    H281110   1.347   6.161  15.063  0.1431 -1.3374  0.2835
19899TIP3   OH281111   0.567   6.373   6.323 -0.2463  0.0397  0.5502
19899TIP3    H181112   0.581   6.278   6.327  0.9217  0.0573 -1.5269
19899TIP3    H281113   0.654   6.410   6.339 -0.2097  0.6378 -0.8482
19900TIP3   OH281114   5.039   6.452  13.746  0.3527  0.2203  0.2784
19900TIP3    H181115   4.996   6.536  13.735  0.3825 -0.0087 -2.1187
19900TIP3    H281116   4.977   6.388  13.712  1.3524 -0.4360 -0.3807
19901TIP3   OH281117   2.999   2.838  15.463 -0.5038  0.0126  0.2823
19901TIP3    H181118   3.080   2.821  15.414 -1.5647  0.2411 -1.6472
19901TIP3    H281119   3.025   2.899  15.532  1.3434 -1.4569  1.0051
19902TIP3   OH281120   5.739   6.478  14.966 -0.0266  0.6402 -0.4089
19902TIP3    H181121   5.810   6.511  14.910 -0.4103 -0.1701 -1.4070
19902TIP3    H281122   5.741   6.383  14.953 -1.0810  0.5755 -0.1752
19903TIP3   OH281123   0.670   0.370  10.781  0.1403 -0.3335 -0.3903
19903TIP3    H181124   0.640   0.298  10.725  1.0480 -0.7854 -0.3133
19903TIP3    H281125   0.611   0.442  10.761 -0.2221 -0.8257 -1.1384
19904TIP3   OH281126   1.842   1.755   5.934 -0.0741  0.3796  0.3004
19904TIP3    H181127   1.767   1.698   5.948 -1.5741  1.5795 -2.1177
19904TIP3    H281128   1.814   1.840   5.967  1.0693  0.4164  1.2739
19905TIP3   OH281129   6.479   3.308  16.034  0.3505 -0.1959 -0.1531
19905TIP3    H181130   6.435   3.378  16.083  0.2588 -0.4219  0.0926
19905TIP3    H281131   6.571   3.318  16.057  0.2598 -0.5454  0.3838
19906TIP3   OH281132   2.649   5.161   1.411  0.1502 -0.3586 -0.2017
19906TIP3    H181133   2.710   5.087   1.408 -0.8942 -1.1933 -1.8021
19906TIP3    H281134   2.662   5.206   1.328 -1.0000 -0.1965 -0.3011
19907TIP3   OH281135   5.775   5.487  11.784  0.3805  0.5651 -0.0316
19907TIP3    H181136   5.736   5.573  11.769 -2.5996 -0.9094 -1.5739
19907TIP3    H281137   5.724   5.450  11.855  1.4356 -0.1052  0.4012
19908TIP3   OH281138   5.093   0.768   4.735  0.9697 -0.2513 -0.1964
19908TIP3    H181139   5.080   0.812   4.819  1.2826 -0.6908  0.0846
19908TIP3    H281140   5.187   0.776   4.718  0.6522  1.4148 -1.3850
19909TIP3   OH281141   6.091   2.304   1.445  0.3239  0.4409  0.1658
19909TIP3    H181142   6.062   2.338   1.360  1.6901  1.3865  0.0333
19909TIP3    H281143   6.112   2.212   1.428  3.7583  1.3620 -1.4489
19910TIP3   OH281144   1.226   1.963  13.547  0.2796 -0.0987 -0.4803
19910TIP3    H181145   1.240   1.956  13.641  1.6738 -0.6632 -0.7005
19910TIP3    H281146   1.278   1.892  13.509  1.7885  1.5946 -1.8026
19911TIP3   OH281147   1.727   6.541  13.678 -0.3746 -0.3225 -0.1445
19911TIP3    H181148   1.733   6.637  13.679  1.4827 -0.4027 -0.2569
19911TIP3    H281149   1.662   6.520  13.745 -1.1005  1.0277 -0.3983
19912TIP3   OH281150   3.259   0.216   2.083  0.1148 -0.3617 -0.5030
19912TIP3    H181151   3.289   0.167   2.159 -1.4964  1.2828  1.2773
19912TIP3    H281152   3.339   0.259   2.049  1.4369 -3.5075 -1.7438
19913TIP3   OH281153   0.615   1.602  12.167 -0.6258 -0.3399 -0.2750
19913TIP3    H181154   0.638   1.649  12.087 -2.1775  0.5274 -0.2642
19913TIP3    H281155   0.605   1.510  12.139 -0.9390 -0.0842 -1.0485
19914TIP3   OH281156   5.726   0.791   3.185 -0.2666 -0.4513  0.0018
19914TIP3    H181157   5.709   0.754   3.098 -0.5811 -2.1320  0.7568
19914TIP3    H281158   5.767   0.720   3.234 -0.8671  0.2057  1.5045
19915TIP3   OH281159   3.043   1.222   5.570  0.2596 -0.1742 -0.2288
19915TIP3    H181160   3.075   1.144   5.615  1.0884  0.2405 -0.0863
19915TIP3    H281161   2.965   1.192   5.523 -0.2725 -0.7708  0.9636
19916TIP3   OH281162   4.081   6.714  16.813 -0.3189  0.2524 -0.5703
19916TIP3    H181163   4.047   6.680  16.730 -0.1212 -0.1971 -0.4713
19916TIP3    H281164   4.030   6.669  16.880  1.4778 -1.6341 -0.3708
19917TIP3   OH281165   1.493   1.794  16.487 -0.3408  0.1823 -0.0995
19917TIP3    H181166   1.418   1.835  16.444  0.8638  0.2487 -2.2949
19917TIP3    H281167   1.548   1.763  16.415  0.7487 -1.7367  1.4585
19918TIP3   OH281168   1.221   2.165   2.046  0.0132 -0.2575  0.6134
19918TIP3    H181169   1.130   2.143   2.029 -0.2042 -0.3247  1.7772
19918TIP3    H281170   1.254   2.198   1.963 -1.4015  0.8731  0.4698
19919TIP3   OH281171   4.938   4.553  16.503  0.5856  0.0172 -0.6514
19919TIP3    H181172   4.846   4.541  16.480  0.7872  0.5649 -1.8581
19919TIP3    H281173   4.980   4.471  16.477  0.1684 -0.9985  1.6699
19920TIP3   OH281174   2.648   4.485   6.657  0.5578  0.2279  0.1448
19920TIP3    H181175   2.676   4.510   6.569  2.0042 -1.5337  0.0395
19920TIP3    H281176   2.711   4.526   6.716 -1.7353  3.3600  0.6521
19921TIP3   OH281177   5.111   3.127   3.428  0.1829 -0.0755 -0.4762
19921TIP3    H181178   5.191   3.178   3.438 -1.0572  2.1499 -1.3507
19921TIP3    H281179   5.086   3.138   3.336  0.3896 -3.1820 -1.0188
19922TIP3   OH281180   2.319   5.722   5.781 -0.1427 -0.5087 -0.5327
19922TIP3    H181181   2.408   5.747   5.806  0.3377 -0.7890 -1.8694
19922TIP3    H281182   2.327   5.693   5.690 -1.8717  1.0140 -1.2461
19923TIP3   OH281183   1.826   2.661  12.523  0.1624  0.0463  0.6262
19923TIP3    H181184   1.856   2.639  12.434  0.9121 -1.1529  1.1446
19923TIP3    H281185   1.850   2.753  12.534 -0.3142  0.3376 -0.5572
19924TIP3   OH281186   5.497   1.053   3.505  0.1712 -0.4865  0.5809
19924TIP3    H181187   5.412   1.014   3.482  0.5226 -1.3460  0.6969
19924TIP3    H281188   5.497   1.138   3.462 -0.5942 -0.6385  0.2623
19925TIP3   OH281189   1.936   3.179  16.227  0.0100 -0.0410  0.2703
19925TIP3    H181190   1.848   3.190  16.262  1.1176  0.0208  3.2753
19925TIP3    H281191   1.940   3.240  16.153 -2.8535 -1.0946 -0.9302
19926TIP3   OH281192   2.912   1.638   2.656 -0.1902  0.6746  0.0522
19926TIP3    H181193   2.835   1.581   2.661  0.5222 -0.3119 -0.0216
19926TIP3    H281194   2.921   1.674   2.744  0.6096 -1.0411  0.7169
19927TIP3   OH281195   6.084   1.312   2.271  0.1976 -0.2235  0.2404
19927TIP3    H181196   6.146   1.293   2.342 -0.1939 -2.1546  0.1393
19927TIP3    H281197   6.001   1.329   2.317  0.2324 -0.2166  0.3015
19928TIP3   OH281198   4.755   0.267  10.769  0.1318  0.2341 -0.1229
19928TIP3    H181199   4.705   0.348  10.775  0.1478  0.3913 -1.7096
19928TIP3    H281200   4.825   0.278  10.834  0.0656  1.4362 -0.2253
19929TIP3   OH281201   4.411   4.792   3.432 -0.5864  0.0295 -0.4464
19929TIP3    H181202   4.494   4.768   3.390 -0.3083  1.1814 -0.5700
19929TIP3    H281203   4.367   4.848   3.368 -0.3808  1.3968  0.5727
19930TIP3   OH281204   3.000   2.711  12.705 -0.1075  0.4234 -0.0527
19930TIP3    H181205   2.933   2.759  12.752 -0.1813  0.6517 -0.3827
19930TIP3    H281206   3.083   2.749  12.735 -0.1062 -0.0911  0.6079
19931TIP3   OH281207   1.372   1.608  15.512 -0.5976 -0.1106  0.1604
19931TIP3    H181208   1.425   1.641  15.584  1.2126  0.5242 -1.3682
19931TIP3    H281209   1.397   1.516  15.503  0.9313  0.3735 -1.0405
19932TIP3   OH281210   4.623   1.786   5.446  0.2188  0.1200  0.4013
19932TIP3    H181211   4.569   1.855   5.484  0.6858  1.4812 -1.3065
19932TIP3    H281212   4.619   1.715   5.510 -0.8695  1.4347  1.8712
19933TIP3   OH281213   0.941   2.197   3.976  0.3935 -0.3593 -0.0932
19933TIP3    H181214   0.965   2.247   3.897  1.7493 -0.1731  0.3990
19933TIP3    H281215   1.008   2.129   3.981  0.1066 -0.5824  0.7084
19934TIP3   OH281216   2.434   3.852   1.233  0.1191  0.4343  0.3018
19934TIP3    H181217   2.456   3.884   1.146 -1.9255  0.3846 -0.3063
19934TIP3    H281218   2.430   3.930   1.287  1.0762  0.5020  0.2884
19935TIP3   OH281219   2.393   1.371   5.390  0.1486  0.3881  0.4272
19935TIP3    H181220   2.456   1.370   5.462  0.4495 -0.3165  0.1660
19935TIP3    H281221   2.445   1.348   5.313 -0.5434 -0.9262  0.3180
19936TIP3   OH281222   1.847   0.748   0.046  1.0337  0.0640  0.2317
19936TIP3    H181223   1.764   0.770   0.089  2.1587  2.0076  1.5176
19936TIP3    H281224   1.830   0.662   0.006 -2.2314  1.2653 -1.3302
19937TIP3   OH281225   1.756   5.112   4.079  0.0932  0.6306  0.0345
19937TIP3    H181226   1.822   5.085   4.015  0.2772 -0.9262  0.8504
19937TIP3    H281227   1.802   5.172   4.137  0.7034 -0.1258  0.3499
19938TIP3   OH281228   1.986   5.270  14.541  0.7045  0.2502  0.7221
19938TIP3    H181229   1.929   5.202  14.575  1.1832 -0.0656  0.8980
19938TIP3    H281230   2.074   5.240  14.561  1.0582 -0.2830 -1.3788
19939TIP3   OH281231   2.802   2.270  11.605  0.1601  0.4418 -0.4385
19939TIP3    H181232   2.822   2.176  11.604  0.3661  0.4832 -0.3119
19939TIP3    H281233   2.810   2.297  11.514  0.0524  0.3260 -0.4825
19940TIP3   OH281234   1.000   5.041  15.926 -0.1767 -0.0817 -0.0615
19940TIP3    H181235   0.952   4.974  15.878  0.4666 -0.4634 -0.1758
19940TIP3    H281236   1.092   5.024  15.907 -0.0016  0.8650 -0.1394
19941TIP3   OH281237   1.431   6.216  14.148 -0.8455 -0.0840 -0.5905
19941TIP3    H181238   1.426   6.312  14.152 -2.1562 -0.1424 -0.5092
19941TIP3    H281239   1.487   6.199  14.072 -0.3021  0.7350 -0.3934
19942TIP3   OH281240   1.074   3.971  16.979 -0.2178 -0.5439 -0.0308
19942TIP3    H181241   1.145   3.921  16.940  0.4795 -0.8425  1.5485
19942TIP3    H281242   1.078   3.951  17.072 -1.7642  0.2011  0.2364
19943LIG      S81243   3.359   3.140  16.550  0.1720  0.3310 -0.1001
19943LIG     O181244   3.328   3.406  16.705  0.4337 -0.1130  0.2700
19943LIG     O281245   3.863   3.599  16.198  0.2051  0.4918 -0.1241
19943LIG     O381246   3.762   3.763  16.271  0.0717 -0.5275 -0.3604
19943LIG     N181247   3.546   3.595  16.104 -0.3461 -0.4316 -0.2505
19943LIG     N281248   3.454   3.441  16.272 -0.1338 -0.0372  0.3130
19943LIG     N381249   3.784   3.647  16.275  0.5045  0.5853 -0.1730
19943LIG     N481250   3.272   3.706  16.725  0.1521  0.7372 -0.3773
19943LIG     C181251   3.564   3.510  15.985 -0.3172 -0.1752  0.1744
19943LIG     C281252   3.567   3.606  15.867  0.0300 -0.2720 -0.2871
19943LIG     C381253   3.688   3.429  16.001 -0.1937  0.3394 -0.1787
19943LIG     C481254   3.571   3.527  15.724  0.2508  0.0046 -0.3158
19943LIG     C581255   3.735   3.324  15.898  0.3350  0.7642  0.0990
19943LIG     C681256   3.475   3.408  15.708  0.0775 -0.6300  0.1940
19943LIG     C781257   3.617   3.242  15.840  0.0779 -0.1626 -0.7293
19943LIG     C881258   3.553   3.272  15.706  0.4675 -0.0008  0.8107
19943LIG     C981259   3.548   3.528  16.232  0.5578 -0.6333  0.3213
19943LIG    C1081260   3.667   3.559  16.327 -0.2332 -0.5008 -0.0015
19943LIG    C1181261   3.446   3.379  16.404  0.0844  1.1222  0.5002
19943LIG    C1281262   3.347   3.258  16.410  0.8426 -0.6831 -0.2624
19943LIG    C1381263   3.230   3.193  16.661  0.4268  0.2149 -0.6283
19943LIG    C1481264   3.276   3.293  16.754 -0.0122 -0.1109  0.0660
19943LIG    C1581265   3.356   3.484  16.814 -0.3447 -0.8575  1.1171
19943LIG    C1681266   3.384   3.628  16.787 -0.1829 -0.7354 -0.1706
19943LIG    C1781267   3.276   3.295  16.893 -0.6265 -0.2282  0.3271
19943LIG    C1881268   3.320   3.423  16.925 -0.1270 -0.7291  0.2396
19943LIG    C1981269   3.155   3.729  16.803 -0.0145 -0.0493  0.2679
19943LIG    C2081270   3.254   3.680  16.579 -0.0498 -0.3458 -0.0798
19943LIG     H181271   3.467   3.456  15.985 -1.7959  2.2996 -0.6647
19943LIG     H281272   3.649   3.681  15.867  0.1205 -0.3404  0.9876
19943LIG     H381273   3.477   3.671  15.870 -0.0891 -0.2072 -2.8898
19943LIG     H481274   3.695   3.378  16.099  0.1387  1.1444  0.2209
19943LIG     H581275   3.768   3.506  15.992 -0.9119  1.2190  0.7313
19943LIG     H681276   3.675   3.500  15.695 -0.1404 -2.6016  0.4965
19943LIG     H781277   3.529   3.601  15.653  0.9121  1.2358  0.5293
19943LIG     H881278   3.807   3.259  15.951 -0.7472  0.5372  1.3333
19943LIG     H981279   3.785   3.370  15.810 -0.1795  0.1205 -0.5404
19943LIG    H1081280   3.410   3.415  15.619  1.0687  2.4626 -0.3852
19943LIG    H1181281   3.397   3.402  15.788  0.1702 -1.7962  0.2181
19943LIG    H1281282   3.537   3.225  15.915 -0.6212  1.4320 -1.0846
19943LIG    H1381283   3.655   3.138  15.823  1.8757  0.4336 -0.6147
19943LIG    H1481284   3.623   3.279  15.619 -1.5043  2.3885 -0.6964
19943LIG    H1581285   3.472   3.201  15.680 -0.3077  1.1772 -0.0696
19943LIG    H1681286   3.628   3.655  16.104  1.8058 -3.1719 -0.5490
19943LIG    H1781287   3.623   3.611  16.413 -0.6898 -2.2788  0.8853
19943LIG    H1881288   3.702   3.466  16.374  2.7624  0.4125 -0.2023
19943LIG    H1981289   3.405   3.448  16.481  0.7535  0.5430  1.3956
19943LIG    H2081290   3.551   3.348  16.424  0.7789  0.2106 -3.5583
19943LIG    H2181291   3.250   3.312  16.413  1.0471 -0.3102 -0.3389
19943LIG    H2281292   3.351   3.204  16.313  0.5155  1.1333 -1.3405
19943LIG    H2381293   3.185   3.111  16.721  1.5849 -0.3699 -0.5344
19943LIG    H2481294   3.155   3.252  16.603 -0.6780  0.0776  0.6219
19943LIG    H2581295   3.413   3.670  16.885 -0.2717 -0.8351 -0.1013
19943LIG    H2681296   3.472   3.632  16.718 -0.5425 -3.6572 -0.9555
19943LIG    H2781297   3.242   3.215  16.956 -0.3830 -0.6499 -0.0709
19943LIG    H2881298   3.343   3.465  17.022  3.0333  0.0175 -0.6990
19943LIG    H2981299   3.180   3.784  16.897  0.2493 -0.0009  0.1706
19943LIG    H3081300   3.102   3.638  16.838 -1.2180  0.2475 -0.7107
19943LIG    H3181301   3.082   3.794  16.750 -1.3217 -0.6239  1.3048
19943LIG    H3281302   3.187   3.760  16.540 -1.3877 -0.4248  1.8564
19943LIG    H3381303   3.216   3.577  16.565 -3.2658  0.7241 -0.0967
19943LIG    H3481304   3.350   3.687  16.525 -0.3179 -0.8716 -0.6356
   6.80210   6.80210  17.19522
